Title
55513
    1DOPE     N    1   5.253   3.114   6.935 -0.1239 -0.0314 -0.5538
    1DOPE   HN1    2   5.318   3.191   6.964 -0.2579 -0.1458  0.0618
    1DOPE   HN2    3   5.250   3.128   6.832  0.2117 -0.4869 -0.6287
    1DOPE   HN3    4   5.157   3.136   6.968  0.0302  0.4763 -0.4225
    1DOPE   C12    5   5.321   2.991   6.991 -0.4344  0.2214 -0.4737
    1DOPE  H12A    6   5.326   3.009   7.101 -1.6784  0.0203 -0.3676
    1DOPE  H12B    7   5.425   2.991   6.952 -0.2155  0.2884  0.0918
    1DOPE   C11    8   5.253   2.856   6.958  0.1640 -0.7321 -0.3705
    1DOPE  H11A    9   5.321   2.777   6.995  0.1635 -0.7769 -0.4634
    1DOPE  H11B   10   5.252   2.843   6.847 -1.2253 -2.3925 -0.1981
    1DOPE     P   11   5.064   2.719   7.076 -0.1329 -0.0815  0.6442
    1DOPE   O13   12   4.915   2.730   7.095  0.2657  0.0922 -0.0638
    1DOPE   O14   13   5.135   2.711   7.209  0.0560 -0.5696  0.2709
    1DOPE   O11   14   5.109   2.595   6.995 -0.2715  0.0748  0.1329
    1DOPE   O12   15   5.118   2.844   6.999 -0.3856  0.0783 -0.0849
    1DOPE    C1   16   5.011   2.549   6.899 -0.2368  0.3028 -0.1011
    1DOPE    HA   17   4.969   2.622   6.827 -1.1632 -0.1458 -0.0360
    1DOPE    HB   18   4.921   2.509   6.950  0.0876 -0.4617 -0.0992
    1DOPE    C2   19   5.075   2.439   6.814  0.4976 -0.5620  0.4607
    1DOPE    HS   20   5.111   2.365   6.889 -1.3584 -3.0331 -0.9579
    1DOPE   O21   21   5.186   2.483   6.740 -0.2096  0.5568  0.1719
    1DOPE   C21   22   5.304   2.493   6.799  0.6460 -0.3108 -0.2932
    1DOPE   O22   23   5.335   2.457   6.909  0.3646  0.5297  0.2184
    1DOPE   C22   24   5.404   2.579   6.713  1.1093  0.8719 -0.4866
    1DOPE   H2R   25   5.502   2.537   6.744 -0.7521 -2.7041  1.1823
    1DOPE   H2S   26   5.398   2.686   6.740  0.0824  1.0616 -1.4034
    1DOPE    C3   27   4.966   2.370   6.719 -0.5533 -0.1594  0.7260
    1DOPE    HX   28   4.928   2.447   6.649  1.1459 -0.1135 -0.1940
    1DOPE    HY   29   4.875   2.352   6.781 -1.3250 -1.6722 -0.7694
    1DOPE   O31   30   5.008   2.250   6.643  0.3096  0.0347  0.4225
    1DOPE   C31   31   5.049   2.146   6.710  0.0656  1.1022 -0.0335
    1DOPE   O32   32   5.052   2.139   6.831  0.2672  0.1889  0.1327
    1DOPE   C32   33   5.103   2.034   6.620 -0.6877  0.7243 -0.3073
    1DOPE   H2X   34   5.135   1.953   6.689  0.2149  0.9440 -0.4518
    1DOPE   H2Y   35   5.017   1.999   6.561  0.3189 -0.9042 -0.8618
    1DOPE   C23   36   5.380   2.569   6.558 -0.3926  0.0629  0.6320
    1DOPE   H3R   37   5.313   2.482   6.541 -2.5125  1.9642 -1.4053
    1DOPE   H3S   38   5.483   2.559   6.517 -0.6555 -1.3773  0.2875
    1DOPE   C24   39   5.312   2.685   6.485  0.2606  0.8375  0.7787
    1DOPE   H4R   40   5.380   2.771   6.498  3.4012 -1.2189 -0.8384
    1DOPE   H4S   41   5.217   2.708   6.538 -2.1904 -3.5461 -1.1644
    1DOPE   C25   42   5.269   2.640   6.344  0.6360  0.0889 -0.3351
    1DOPE   H5R   43   5.195   2.560   6.366  0.8612  0.0051  0.1495
    1DOPE   H5S   44   5.355   2.591   6.295 -0.5612 -2.0817 -0.3842
    1DOPE   C26   45   5.211   2.753   6.253  0.3229 -0.0120  0.4178
    1DOPE   H6R   46   5.224   2.723   6.146 -0.2747  0.5061  0.1952
    1DOPE   H6S   47   5.275   2.844   6.258  0.3394 -0.0813  1.6853
    1DOPE   C27   48   5.059   2.786   6.275  0.1354 -0.3294 -0.4465
    1DOPE   H7R   49   5.021   2.862   6.204 -0.7845 -0.7362 -0.4073
    1DOPE   H7S   50   5.042   2.810   6.382 -1.0842 -0.9894 -0.4740
    1DOPE   C28   51   4.966   2.653   6.249  0.1662 -0.0420 -0.2918
    1DOPE   H8R   52   4.865   2.691   6.275  0.7150  1.2052  0.0731
    1DOPE   H8S   53   4.997   2.583   6.330 -0.1859  1.5538  1.3013
    1DOPE   C29   54   4.983   2.587   6.116  0.5793 -0.4552  0.6569
    1DOPE   H9R   55   5.090   2.573   6.095  0.6987  0.9261  0.2584
    1DOPE  C210   56   4.886   2.557   6.027 -0.6434  0.7393  0.7796
    1DOPE  H10R   57   4.910   2.504   5.934  0.2992 -0.8098  1.8700
    1DOPE  C211   58   4.733   2.568   6.043 -0.4925  0.7965  1.3059
    1DOPE  H11R   59   4.713   2.635   6.130  2.8212  3.0930  0.5045
    1DOPE  H11S   60   4.695   2.466   6.063  1.4667  0.1533  1.9248
    1DOPE  C212   61   4.663   2.622   5.914  0.1248  0.8873  0.1352
    1DOPE  H12R   62   4.558   2.590   5.931  1.4763 -3.8129  1.2516
    1DOPE  H12S   63   4.703   2.580   5.819  1.1172  3.3202 -0.5947
    1DOPE  C213   64   4.679   2.768   5.898  0.1440 -0.4754  0.3750
    1DOPE  H13R   65   4.788   2.789   5.888 -0.0254 -0.2423 -1.4293
    1DOPE  H13S   66   4.651   2.818   5.993  0.1192 -0.1909  0.2215
    1DOPE  C214   67   4.602   2.839   5.784  1.1141  0.5464 -0.5547
    1DOPE  H14R   68   4.493   2.822   5.802  1.6584  0.5853  3.8493
    1DOPE  H14S   69   4.638   2.792   5.689  3.1202 -1.2330  0.9917
    1DOPE  C215   70   4.615   2.985   5.778 -0.5875  0.0783 -0.5240
    1DOPE  H15R   71   4.722   3.013   5.782 -0.1505 -1.5899 -0.1129
    1DOPE  H15S   72   4.564   3.028   5.868 -0.7135 -0.0166 -0.5499
    1DOPE  C216   73   4.548   3.046   5.657  0.2596 -0.3472 -0.2354
    1DOPE  H16R   74   4.446   3.002   5.649 -0.9454  1.8139  1.9902
    1DOPE  H16S   75   4.623   3.032   5.576  2.0219 -1.6057  1.5080
    1DOPE  C217   76   4.533   3.205   5.677 -0.3184  0.6515  0.0080
    1DOPE  H17R   77   4.585   3.245   5.587  2.4760 -0.6110  0.9193
    1DOPE  H17S   78   4.595   3.244   5.761  0.1933 -1.1285  0.5208
    1DOPE  C218   79   4.395   3.259   5.703 -0.0186  0.8242 -0.2166
    1DOPE  H18R   80   4.402   3.365   5.735  1.6531  0.4744  0.6854
    1DOPE  H18S   81   4.343   3.207   5.786  0.9807 -1.4501 -0.9533
    1DOPE  H18T   82   4.334   3.249   5.611 -0.8238  2.7811  0.0510
    1DOPE   C33   83   5.221   2.090   6.534  0.0839 -0.1232 -0.4681
    1DOPE   H3X   84   5.305   2.144   6.582 -1.1208  2.1665 -0.7466
    1DOPE   H3Y   85   5.192   2.170   6.463  0.7107 -0.0225 -0.6096
    1DOPE   C34   86   5.283   1.976   6.438 -0.2829  0.3158  0.4926
    1DOPE   H4X   87   5.201   1.921   6.386  1.1139 -0.5149 -0.9209
    1DOPE   H4Y   88   5.353   2.021   6.365 -0.2495 -0.2960  0.1414
    1DOPE   C35   89   5.376   1.875   6.515  0.2377  0.7188 -0.6754
    1DOPE   H5X   90   5.312   1.817   6.585  0.6101  0.5179 -0.4982
    1DOPE   H5Y   91   5.445   1.933   6.579 -1.9832  0.8192  1.8188
    1DOPE   C36   92   5.437   1.763   6.432 -0.7239  0.1776  0.1605
    1DOPE   H6X   93   5.348   1.713   6.388 -1.1823  0.7231  0.4513
    1DOPE   H6Y   94   5.485   1.690   6.500  0.3188  0.8101  0.1231
    1DOPE   C37   95   5.558   1.811   6.354  0.3686  0.1349 -0.3946
    1DOPE   H7X   96   5.516   1.878   6.276 -0.8115  0.7566  0.7448
    1DOPE   H7Y   97   5.613   1.867   6.433 -2.7033  1.6717  0.8230
    1DOPE   C38   98   5.652   1.702   6.299 -0.0243 -0.0232  0.2233
    1DOPE   H8X   99   5.688   1.642   6.386  2.7546 -0.2629 -0.9608
    1DOPE   H8Y  100   5.748   1.746   6.263  1.1184 -1.7545  0.9765
    1DOPE   C39  101   5.591   1.611   6.197  0.4085  0.8076  0.0068
    1DOPE   H9X  102   5.499   1.557   6.226  0.2210  1.2193  0.1899
    1DOPE  C310  103   5.623   1.621   6.066 -0.5749  0.9595 -0.5416
    1DOPE  H10X  104   5.571   1.553   5.997 -0.2787  0.2928 -0.1218
    1DOPE  C311  105   5.733   1.705   5.998  0.0333  0.0140  0.1259
    1DOPE  H11X  106   5.679   1.738   5.907 -2.4337 -0.5293  1.3064
    1DOPE  H11Y  107   5.770   1.792   6.057 -1.5177  0.8052 -0.0075
    1DOPE  C312  108   5.854   1.625   5.941 -0.5729  0.1532 -0.2609
    1DOPE  H12X  109   5.917   1.698   5.886 -0.5463  0.2473 -0.1046
    1DOPE  H12Y  110   5.813   1.563   5.859 -0.5991  2.2514 -1.9243
    1DOPE  C313  111   5.918   1.538   6.051 -0.9247  0.7568  0.0501
    1DOPE  H13X  112   5.968   1.607   6.123  1.2685 -0.6923  0.0302
    1DOPE  H13Y  113   5.846   1.475   6.107 -2.7985 -0.0531 -3.0107
    1DOPE  C314  114   6.032   1.457   5.989  0.1167  0.6440  0.0523
    1DOPE  H14X  115   6.084   1.533   5.925  0.7842 -0.5588 -0.8773
    1DOPE  H14Y  116   5.979   1.383   5.925 -1.4290  1.5443  0.2233
    1DOPE  C315  117   6.129   1.398   6.089 -0.1601 -0.7068  0.6029
    1DOPE  H15X  118   6.087   1.346   6.177  1.6275 -2.8104  0.3064
    1DOPE  H15Y  119   6.181   1.483   6.137  0.2343  1.2089 -2.9000
    1DOPE  C316  120   6.227   1.292   6.035 -0.0860  0.0004 -0.0068
    1DOPE  H16X  121   6.164   1.221   5.977  0.9767  0.4404 -1.7736
    1DOPE  H16Y  122   6.275   1.223   6.109 -0.9990 -2.3060 -1.4450
    1DOPE  C317  123   6.325   1.353   5.933 -0.2257  0.4870 -0.0750
    1DOPE  H17X  124   6.269   1.410   5.855  1.0282 -0.3882 -1.6680
    1DOPE  H17Y  125   6.385   1.421   5.998  1.5076 -1.9074  1.0010
    1DOPE  C318  126   6.414   1.250   5.865  0.7175  0.2863 -0.2480
    1DOPE  H18X  127   6.498   1.221   5.931 -0.4222 -0.2171  1.0386
    1DOPE  H18Y  128   6.364   1.154   5.841 -1.0794  1.0033  0.4352
    1DOPE  H18Z  129   6.449   1.294   5.769  0.5858  2.7185  0.7449
    2DOPE     N  130   4.175   2.356   7.199  0.2274 -0.6717  0.1778
    2DOPE   HN1  131   4.123   2.316   7.280 -0.3085 -2.6422 -1.0672
    2DOPE   HN2  132   4.264   2.303   7.189 -0.3231 -1.2994 -1.8013
    2DOPE   HN3  133   4.202   2.455   7.215  0.0490 -0.0038 -3.1362
    2DOPE   C12  134   4.099   2.355   7.075  0.1243 -0.7751 -0.5737
    2DOPE  H12A  135   4.007   2.418   7.084  0.4758 -0.1056 -1.4821
    2DOPE  H12B  136   4.067   2.252   7.050  1.4955 -0.6357 -3.2104
    2DOPE   C11  137   4.188   2.403   6.954  0.2516 -0.4472  0.2822
    2DOPE  H11A  138   4.196   2.513   6.964  1.5103 -0.6821  2.5127
    2DOPE  H11B  139   4.136   2.388   6.857  1.7883 -0.9224 -0.5099
    2DOPE     P  140   4.321   2.197   6.884  0.0681 -0.4994 -0.4523
    2DOPE   O13  141   4.216   2.102   6.926 -0.3096 -0.2545  0.0668
    2DOPE   O14  142   4.463   2.155   6.892 -0.3758  0.0023  0.0304
    2DOPE   O11  143   4.295   2.249   6.737 -0.3068 -0.2842 -0.0361
    2DOPE   O12  144   4.312   2.340   6.956 -0.0989  0.5394  0.5193
    2DOPE    C1  145   4.264   2.146   6.638  0.0937  0.1896  0.3207
    2DOPE    HA  146   4.155   2.124   6.644 -0.0336  0.6793 -0.1468
    2DOPE    HB  147   4.317   2.052   6.665 -1.8168 -0.0663  3.8302
    2DOPE    C2  148   4.309   2.203   6.492  0.6322  0.5988 -0.2611
    2DOPE    HS  149   4.311   2.116   6.423  0.9315 -1.6540  2.4205
    2DOPE   O21  150   4.434   2.263   6.498  0.1579 -0.0958  0.3667
    2DOPE   C21  151   4.534   2.193   6.543 -0.4792 -0.0228 -0.4329
    2DOPE   O22  152   4.527   2.072   6.558 -0.0183  0.1769 -0.5774
    2DOPE   C22  153   4.658   2.277   6.546 -0.1299  0.0326  0.0559
    2DOPE   H2R  154   4.723   2.229   6.622  1.4753 -0.6364 -1.6658
    2DOPE   H2S  155   4.620   2.371   6.592 -2.0712 -0.9643  0.5900
    2DOPE    C3  156   4.209   2.308   6.442 -0.1706 -0.7667  0.0524
    2DOPE    HX  157   4.229   2.402   6.498  1.4294 -0.3573 -1.1384
    2DOPE    HY  158   4.104   2.279   6.465 -0.7852  1.4041  0.1897
    2DOPE   O31  159   4.239   2.341   6.303  0.4926 -0.3459 -0.4995
    2DOPE   C31  160   4.225   2.251   6.214 -0.3923  0.3714  0.2504
    2DOPE   O32  161   4.169   2.143   6.217 -0.2176 -0.1247  0.3224
    2DOPE   C32  162   4.307   2.300   6.088 -0.0110 -0.6931 -0.6721
    2DOPE   H2X  163   4.251   2.387   6.047  0.7367  0.5900  0.8751
    2DOPE   H2Y  164   4.400   2.353   6.118 -1.2270  1.3141 -0.2598
    2DOPE   C23  165   4.738   2.314   6.418  0.2722 -0.0395  0.7338
    2DOPE   H3R  166   4.825   2.377   6.446 -1.0548  1.9174  0.6034
    2DOPE   H3S  167   4.663   2.365   6.355  0.6659  1.6570  1.5746
    2DOPE   C24  168   4.796   2.193   6.347 -0.6252  0.4790  0.7792
    2DOPE   H4R  169   4.724   2.111   6.330 -0.8716  0.9158 -0.4279
    2DOPE   H4S  170   4.875   2.156   6.416 -1.6539 -1.1865  1.0994
    2DOPE   C25  171   4.863   2.248   6.221 -0.3173  0.7867 -0.9779
    2DOPE   H5R  172   4.931   2.334   6.235  0.7194 -0.4116  2.1565
    2DOPE   H5S  173   4.785   2.298   6.160 -0.8186  2.5288  0.9814
    2DOPE   C26  174   4.925   2.149   6.120  0.1239  0.4341 -0.0326
    2DOPE   H6R  175   4.942   2.216   6.033 -0.2580  1.5280  0.7195
    2DOPE   H6S  176   4.844   2.077   6.093  0.3115  0.3449 -0.3569
    2DOPE   C27  177   5.049   2.075   6.166 -0.1371  0.1573  0.2331
    2DOPE   H7R  178   5.031   2.030   6.266 -0.7318  1.7373  0.8648
    2DOPE   H7S  179   5.130   2.147   6.189  3.4054 -2.9504 -1.3180
    2DOPE   C28  180   5.101   1.975   6.057 -0.5614  0.6520 -0.1096
    2DOPE   H8R  181   5.126   2.027   5.962 -0.6476 -2.0931 -1.7429
    2DOPE   H8S  182   5.024   1.903   6.023 -1.3154  2.0628 -1.5068
    2DOPE   C29  183   5.227   1.901   6.097  0.4256 -0.5114 -0.0161
    2DOPE   H9R  184   5.319   1.962   6.108  0.1869 -0.1908  0.2322
    2DOPE  C210  185   5.238   1.771   6.125  0.0142 -0.6493 -0.0716
    2DOPE  H10R  186   5.333   1.723   6.150 -0.0693 -0.9739 -0.3791
    2DOPE  C211  187   5.134   1.669   6.111  0.8201 -0.2443  0.1477
    2DOPE  H11R  188   5.034   1.713   6.092  0.5759  1.1064  3.7620
    2DOPE  H11S  189   5.118   1.619   6.209  0.3137  1.3195  0.8946
    2DOPE  C212  190   5.185   1.564   6.009 -0.1493 -0.5046  0.2626
    2DOPE  H12R  191   5.100   1.507   5.968 -0.4170  0.2849 -0.2879
    2DOPE  H12S  192   5.255   1.490   6.054 -1.0269 -1.0411  0.7831
    2DOPE  C213  193   5.248   1.633   5.883  0.4232  0.3230  0.7872
    2DOPE  H13R  194   5.343   1.686   5.906  0.3082  1.0051 -0.2226
    2DOPE  H13S  195   5.169   1.710   5.875 -0.2220 -0.2996  1.1024
    2DOPE  C214  196   5.249   1.544   5.758 -0.3649  0.6110 -0.2452
    2DOPE  H14R  197   5.155   1.485   5.760 -0.1196  0.2234  0.3550
    2DOPE  H14S  198   5.336   1.474   5.759 -1.1288 -0.3760 -0.9166
    2DOPE  C215  199   5.248   1.627   5.630  0.7031 -0.0786 -0.4623
    2DOPE  H15R  200   5.347   1.677   5.636  0.6060 -0.0309  1.5036
    2DOPE  H15S  201   5.179   1.712   5.648  1.5547  0.3019  1.2098
    2DOPE  C216  202   5.227   1.547   5.496  0.0409  0.2892  0.0317
    2DOPE  H16R  203   5.136   1.486   5.512  0.0329  0.3358  0.1678
    2DOPE  H16S  204   5.319   1.487   5.482  0.0595  0.3759 -0.2115
    2DOPE  C217  205   5.208   1.630   5.369 -0.1458 -0.1016  0.4709
    2DOPE  H17R  206   5.295   1.700   5.373  1.3003 -1.8199  0.2296
    2DOPE  H17S  207   5.112   1.687   5.374  0.0443  0.3082 -0.3238
    2DOPE  C218  208   5.205   1.542   5.240 -0.4273 -0.2999  0.1200
    2DOPE  H18R  209   5.201   1.597   5.143 -1.8739  2.4387  1.6060
    2DOPE  H18S  210   5.114   1.481   5.256  0.3222 -2.2110 -2.3100
    2DOPE  H18T  211   5.293   1.474   5.240 -1.1683 -1.2804  0.1214
    2DOPE   C33  212   4.345   2.200   5.981  0.8681  0.0560  0.8165
    2DOPE   H3X  213   4.366   2.229   5.875  0.1863  2.4643  1.2681
    2DOPE   H3Y  214   4.253   2.143   5.955  1.3190  0.6656 -2.7509
    2DOPE   C34  215   4.456   2.108   6.028  0.4658  0.4173  0.1437
    2DOPE   H4X  216   4.553   2.161   6.040  0.4737  0.6080 -0.7308
    2DOPE   H4Y  217   4.423   2.042   6.111 -1.4757 -0.9438 -1.6274
    2DOPE   C35  218   4.492   2.001   5.914 -0.2311 -0.5082 -0.1433
    2DOPE   H5X  219   4.531   2.073   5.838 -1.1556  1.1001  0.8444
    2DOPE   H5Y  220   4.393   1.967   5.876 -0.8857  2.0963 -1.0210
    2DOPE   C36  221   4.606   1.904   5.953  0.0232  1.0103 -0.5702
    2DOPE   H6X  222   4.551   1.814   5.989  1.6293 -0.6707 -2.0781
    2DOPE   H6Y  223   4.662   1.947   6.038  0.2629 -0.0160 -0.1924
    2DOPE   C37  224   4.690   1.851   5.834 -0.5710  0.2446 -0.2528
    2DOPE   H7X  225   4.621   1.823   5.752 -1.8819 -1.8952  1.4600
    2DOPE   H7Y  226   4.766   1.926   5.802 -0.6102 -0.3738 -1.8405
    2DOPE   C38  227   4.768   1.719   5.855 -0.3271 -0.0420  0.0521
    2DOPE   H8X  228   4.693   1.637   5.862  1.5070 -2.1639 -2.7610
    2DOPE   H8Y  229   4.824   1.722   5.951 -0.9119  0.9648  0.3749
    2DOPE   C39  230   4.862   1.705   5.742 -0.1028  0.2938 -0.3343
    2DOPE   H9X  231   4.927   1.793   5.733 -0.8590  0.7665 -1.4005
    2DOPE  C310  232   4.882   1.603   5.664 -0.0708 -0.1241  0.3102
    2DOPE  H10X  233   4.954   1.605   5.581  0.2739 -0.3670  0.6036
    2DOPE  C311  234   4.812   1.469   5.673  0.6495 -0.6193  0.3386
    2DOPE  H11X  235   4.892   1.392   5.683  0.6836 -0.5159  0.8593
    2DOPE  H11Y  236   4.747   1.453   5.761 -0.2152 -2.7298 -0.6192
    2DOPE  C312  237   4.731   1.425   5.547 -0.1868  0.1464 -0.0540
    2DOPE  H12X  238   4.812   1.404   5.475  0.2561 -0.5169  0.6158
    2DOPE  H12Y  239   4.663   1.510   5.524 -1.7147 -0.5695  1.5173
    2DOPE  C313  240   4.643   1.294   5.571  0.0915 -0.1001 -0.3204
    2DOPE  H13X  241   4.712   1.209   5.590 -1.3388 -0.7037  2.6637
    2DOPE  H13Y  242   4.580   1.315   5.660  0.9575 -1.5229  0.6668
    2DOPE  C314  243   4.558   1.266   5.447  0.0123  0.2183  0.4326
    2DOPE  H14X  244   4.601   1.290   5.348 -1.7178  1.4270 -0.0678
    2DOPE  H14Y  245   4.476   1.342   5.450 -1.3763 -1.2484  0.8244
    2DOPE  C315  246   4.491   1.125   5.453 -0.2159  0.1403  0.4279
    2DOPE  H15X  247   4.438   1.113   5.550  3.0047 -0.9954  2.1981
    2DOPE  H15Y  248   4.571   1.048   5.464  0.4875  0.7680 -0.2269
    2DOPE  C316  249   4.396   1.095   5.340  0.3776  0.2630  0.2940
    2DOPE  H16X  250   4.420   1.098   5.232 -1.1743 -0.0116 -0.0806
    2DOPE  H16Y  251   4.314   1.166   5.363 -0.6408 -1.2681  1.6337
    2DOPE  C317  252   4.333   0.952   5.356  0.4406 -0.1016  0.0091
    2DOPE  H17X  253   4.265   0.937   5.270  0.9889 -1.8857 -0.1510
    2DOPE  H17Y  254   4.407   0.869   5.367 -1.6893 -2.1917 -0.5808
    2DOPE  C318  255   4.237   0.941   5.474  0.1258 -0.2381 -0.1771
    2DOPE  H18X  256   4.293   0.947   5.569 -2.4165  0.0531  1.4034
    2DOPE  H18Y  257   4.160   1.021   5.479 -1.4706 -1.7511  0.9256
    2DOPE  H18Z  258   4.179   0.847   5.460 -1.1327  0.5674 -0.5044
    3DOPE     N  259   5.146   3.605   7.238  0.2817 -0.2094  0.2865
    3DOPE   HN1  260   5.080   3.529   7.209 -1.1410  1.5572 -1.4202
    3DOPE   HN2  261   5.235   3.599   7.184  2.4531 -0.0360  3.5834
    3DOPE   HN3  262   5.170   3.589   7.338 -0.2745 -0.8905  0.3164
    3DOPE   C12  263   5.087   3.744   7.227 -0.0918 -0.2732 -0.4308
    3DOPE  H12A  264   5.168   3.808   7.268 -0.9105  0.5818 -0.1160
    3DOPE  H12B  265   4.993   3.742   7.286  0.9627 -1.2296  1.2816
    3DOPE   C11  266   5.074   3.787   7.078  0.1555  0.4515  0.8704
    3DOPE  H11A  267   4.985   3.746   7.024  1.2537  0.0909 -0.7304
    3DOPE  H11B  268   5.160   3.758   7.015 -0.5675  0.4541 -0.1465
    3DOPE     P  269   4.926   4.001   7.112  0.2600 -0.1095  0.3903
    3DOPE   O13  270   4.958   4.129   7.179  0.0510 -0.3989  0.3063
    3DOPE   O14  271   4.842   3.904   7.189 -0.2942 -0.0348 -0.0863
    3DOPE   O11  272   4.849   4.032   6.975  0.3462 -0.0480  0.0418
    3DOPE   O12  273   5.064   3.926   7.079  0.3393  0.7524  0.1157
    3DOPE    C1  274   4.936   4.072   6.867 -0.4123 -0.8530 -0.0864
    3DOPE    HA  275   4.972   3.985   6.808  0.5238 -1.7225  1.6744
    3DOPE    HB  276   5.019   4.135   6.905 -0.8851 -0.5432  0.4472
    3DOPE    C2  277   4.857   4.173   6.784 -0.0825  0.9470 -0.5912
    3DOPE    HS  278   4.806   4.240   6.856 -2.0150 -0.2601 -0.7667
    3DOPE   O21  279   4.756   4.107   6.700 -0.8450  0.0829  0.1333
    3DOPE   C21  280   4.633   4.162   6.690 -0.5797  0.8903 -0.2525
    3DOPE   O22  281   4.594   4.259   6.745  0.5680  0.5814 -0.1987
    3DOPE   C22  282   4.541   4.070   6.594  0.0743  0.6398 -0.1970
    3DOPE   H2R  283   4.438   4.111   6.581 -0.6548 -1.6094 -2.2680
    3DOPE   H2S  284   4.530   3.974   6.650 -0.5289 -0.5447 -2.2219
    3DOPE    C3  285   4.954   4.266   6.705 -0.7837 -0.4863  0.1724
    3DOPE    HX  286   4.984   4.202   6.619  0.8603 -1.7545  1.6144
    3DOPE    HY  287   5.043   4.299   6.763 -1.5990  1.4634  0.3910
    3DOPE   O31  288   4.892   4.379   6.658  0.5007  0.0845 -0.1686
    3DOPE   C31  289   4.898   4.495   6.726  0.0132  0.3960 -0.0238
    3DOPE   O32  290   4.930   4.499   6.844 -0.8229  0.0311  0.0445
    3DOPE   C32  291   4.870   4.608   6.629  0.0552 -0.8051 -0.1470
    3DOPE   H2X  292   4.873   4.696   6.696 -0.3673 -1.3594  0.6253
    3DOPE   H2Y  293   4.951   4.615   6.554 -0.7281  0.3844 -0.8993
    3DOPE   C23  294   4.604   4.045   6.459 -0.1836  0.0456 -0.8449
    3DOPE   H3R  295   4.585   3.937   6.442  0.6429 -1.0747  3.8569
    3DOPE   H3S  296   4.715   4.041   6.469 -0.3456  0.1751  1.3952
    3DOPE   C24  297   4.572   4.141   6.356  0.2065 -0.4928  0.4584
    3DOPE   H4R  298   4.637   4.231   6.358  1.6130 -1.3245 -2.3516
    3DOPE   H4S  299   4.467   4.178   6.367  0.7513  0.8188  1.5388
    3DOPE   C25  300   4.593   4.072   6.224  0.0392 -0.3962 -0.1974
    3DOPE   H5R  301   4.521   3.988   6.219 -0.3160 -0.0344 -2.3214
    3DOPE   H5S  302   4.693   4.026   6.209  0.8393  1.5035 -1.1763
    3DOPE   C26  303   4.559   4.168   6.104  0.5232  0.1408 -0.3249
    3DOPE   H6R  304   4.631   4.252   6.088  1.7857 -1.0014 -0.8215
    3DOPE   H6S  305   4.465   4.224   6.125  0.8045 -0.2538  2.3591
    3DOPE   C27  306   4.547   4.098   5.976  0.1549  0.3826  0.0621
    3DOPE   H7R  307   4.652   4.065   5.957  0.7212  1.6943  0.7493
    3DOPE   H7S  308   4.513   4.170   5.898 -1.5812  1.0342  1.3656
    3DOPE   C28  309   4.453   3.982   5.967  0.1708 -0.2614 -0.0611
    3DOPE   H8R  310   4.352   4.017   5.998 -0.0732 -0.3982 -0.6970
    3DOPE   H8S  311   4.490   3.914   6.047 -0.0912  2.0305  2.1462
    3DOPE   C29  312   4.445   3.942   5.826  0.7073 -0.5148 -0.6809
    3DOPE   H9R  313   4.433   4.021   5.750 -1.8027 -1.9274 -1.8629
    3DOPE  C210  314   4.471   3.820   5.777 -0.6554  0.2378 -0.2793
    3DOPE  H10R  315   4.442   3.805   5.672  0.2816  0.9870 -0.6617
    3DOPE  C211  316   4.507   3.700   5.858 -0.0366  0.1908  0.3041
    3DOPE  H11R  317   4.464   3.611   5.807 -4.3204  0.5778  2.7668
    3DOPE  H11S  318   4.467   3.710   5.961 -0.2866 -0.0901  0.2338
    3DOPE  C212  319   4.662   3.677   5.877  0.3798  0.2651 -0.2954
    3DOPE  H12R  320   4.696   3.734   5.965  0.8133  0.1906 -0.4135
    3DOPE  H12S  321   4.716   3.703   5.783 -0.9120 -0.9277 -1.4106
    3DOPE  C213  322   4.699   3.534   5.917  0.6041 -0.4058  0.2917
    3DOPE  H13R  323   4.707   3.466   5.830  2.5468 -1.4426  1.2155
    3DOPE  H13S  324   4.608   3.502   5.972 -0.7358 -0.8392 -2.0302
    3DOPE  C214  325   4.819   3.513   6.016  0.2483 -0.5466 -0.5992
    3DOPE  H14R  326   4.919   3.533   5.971  0.5715  0.0664  0.3743
    3DOPE  H14S  327   4.825   3.405   6.043 -1.9612 -0.1499  1.8380
    3DOPE  C215  328   4.822   3.612   6.134  0.6280  0.3458  0.3650
    3DOPE  H15R  329   4.720   3.617   6.177 -0.2601  1.7635 -1.7657
    3DOPE  H15S  330   4.840   3.710   6.085  1.1797  0.2164  0.3012
    3DOPE  C216  331   4.922   3.570   6.238 -0.1898 -0.0216  0.2982
    3DOPE  H16R  332   5.023   3.537   6.207 -0.5016 -0.6708 -0.0426
    3DOPE  H16S  333   4.886   3.480   6.293 -2.6058  0.6781 -0.0143
    3DOPE  C217  334   4.938   3.685   6.347  0.7592  0.3463 -0.4424
    3DOPE  H17R  335   4.972   3.776   6.293 -0.0785  0.9127 -0.0217
    3DOPE  H17S  336   5.021   3.648   6.412 -0.4735  0.0104  0.9821
    3DOPE  C218  337   4.813   3.720   6.427 -0.0015  0.1193  0.1425
    3DOPE  H18R  338   4.740   3.777   6.365 -1.7498 -1.5624  0.5812
    3DOPE  H18S  339   4.830   3.786   6.514 -1.0838 -0.4021  0.7654
    3DOPE  H18T  340   4.766   3.629   6.469 -0.1116 -1.0459 -2.3026
    3DOPE   C33  341   4.738   4.603   6.551  0.0358  0.1956  0.2074
    3DOPE   H3X  342   4.708   4.708   6.537 -1.6106 -0.1144  1.0965
    3DOPE   H3Y  343   4.651   4.563   6.608 -0.0425 -1.2816 -0.8843
    3DOPE   C34  344   4.748   4.540   6.404  0.4123  0.4743 -0.6161
    3DOPE   H4X  345   4.842   4.574   6.356  0.0334  0.6272 -1.2638
    3DOPE   H4Y  346   4.743   4.429   6.409  1.9695  0.3927 -0.5023
    3DOPE   C35  347   4.642   4.591   6.307  0.7565  0.5207 -0.3937
    3DOPE   H5X  348   4.643   4.701   6.326  3.2676  0.5754 -0.5563
    3DOPE   H5Y  349   4.540   4.552   6.329  1.2201 -1.2556 -1.2114
    3DOPE   C36  350   4.678   4.562   6.163  0.0809 -0.0121  0.7600
    3DOPE   H6X  351   4.677   4.451   6.161  1.0695 -0.0583  1.6073
    3DOPE   H6Y  352   4.784   4.592   6.148  0.3048 -1.0163  0.2533
    3DOPE   C37  353   4.606   4.639   6.051  0.2077  0.4935 -0.6863
    3DOPE   H7X  354   4.498   4.626   6.074  0.6985  0.5060  1.9264
    3DOPE   H7Y  355   4.623   4.748   6.046 -2.0288  0.8708 -1.4762
    3DOPE   C38  356   4.639   4.579   5.912  0.8899 -1.1065  0.4942
    3DOPE   H8X  357   4.568   4.623   5.838 -0.5286  0.4465  2.6829
    3DOPE   H8Y  358   4.626   4.469   5.915 -1.3770 -0.8753  1.2495
    3DOPE   C39  359   4.771   4.629   5.859  0.2302  0.6703  0.7479
    3DOPE   H9X  360   4.780   4.738   5.853 -3.8809  1.1206 -0.4011
    3DOPE  C310  361   4.864   4.547   5.812 -0.8727 -0.0010  0.1488
    3DOPE  H10X  362   4.949   4.593   5.759 -2.2266  1.0819 -1.1764
    3DOPE  C311  363   4.858   4.396   5.807 -0.0256 -0.7570  0.4417
    3DOPE  H11X  364   4.961   4.356   5.800 -0.2828 -1.2793 -0.5731
    3DOPE  H11Y  365   4.808   4.345   5.892 -2.9142 -1.2773 -1.4112
    3DOPE  C312  366   4.788   4.354   5.680 -0.1505 -0.3273  0.4189
    3DOPE  H12X  367   4.827   4.402   5.587  1.1131 -1.1489  0.4978
    3DOPE  H12Y  368   4.684   4.393   5.683  0.1095  0.5360 -0.8676
    3DOPE  C313  369   4.783   4.200   5.655 -0.5651 -0.5886 -0.1400
    3DOPE  H13X  370   4.765   4.161   5.758  2.5473  0.9806  1.1257
    3DOPE  H13Y  371   4.707   4.169   5.580 -0.6017 -1.0396  0.0803
    3DOPE  C314  372   4.918   4.149   5.597  0.4742 -0.4887  0.4815
    3DOPE  H14X  373   4.926   4.040   5.614  1.3372 -1.1013 -3.0278
    3DOPE  H14Y  374   5.011   4.186   5.646  0.0023  0.8039  0.4456
    3DOPE  C315  375   4.941   4.167   5.445 -0.0430 -0.1104 -0.8700
    3DOPE  H15X  376   4.961   4.273   5.422  0.9802  0.2618  1.4635
    3DOPE  H15Y  377   4.846   4.138   5.395 -1.3066  0.5827  1.0230
    3DOPE  C316  378   5.053   4.076   5.391 -0.2775 -0.8576 -0.0092
    3DOPE  H16X  379   5.068   3.977   5.440  1.5009 -0.0720  1.1274
    3DOPE  H16Y  380   5.146   4.127   5.424 -1.8003  0.7222  2.0684
    3DOPE  C317  381   5.056   4.080   5.236  0.4666 -0.5191  0.4267
    3DOPE  H17X  382   4.962   4.036   5.195  2.1538 -2.1307 -1.9438
    3DOPE  H17Y  383   5.045   4.185   5.202 -1.4786 -0.0212  2.3357
    3DOPE  C318  384   5.168   4.001   5.164  0.6187 -0.4998 -0.1264
    3DOPE  H18X  385   5.267   4.043   5.191 -0.9154  1.9691  2.1771
    3DOPE  H18Y  386   5.170   3.895   5.197  0.2470 -1.0705 -1.8415
    3DOPE  H18Z  387   5.171   4.008   5.053  2.3561 -2.7948 -0.3075
    4DOPE     N  388   7.248   1.579   7.088 -0.1501  0.2698  0.5075
    4DOPE   HN1  389   7.318   1.644   7.128 -0.2227  0.3253  0.5459
    4DOPE   HN2  390   7.169   1.553   7.151 -0.0323 -2.9683 -0.4693
    4DOPE   HN3  391   7.291   1.490   7.055 -0.7149 -0.5406  1.8554
    4DOPE   C12  392   7.186   1.645   6.972 -0.3612 -0.4762 -0.1578
    4DOPE  H12A  393   7.108   1.581   6.926 -0.8638 -0.1547  0.2391
    4DOPE  H12B  394   7.266   1.659   6.896  0.5855 -0.6599  0.7775
    4DOPE   C11  395   7.138   1.784   7.019  0.8451  0.3684 -0.1932
    4DOPE  H11A  396   7.098   1.826   6.924  0.5927 -0.4799 -0.4681
    4DOPE  H11B  397   7.224   1.847   7.051  1.1300 -0.8151  1.5022
    4DOPE     P  398   6.937   1.887   7.160  0.3121 -0.4408 -0.1520
    4DOPE   O13  399   6.992   2.029   7.154 -0.9202 -0.1364 -0.3329
    4DOPE   O14  400   6.848   1.846   7.271  0.2248  0.0094  1.1639
    4DOPE   O11  401   6.855   1.882   7.030  0.3461  0.3077  0.4027
    4DOPE   O12  402   7.044   1.776   7.123 -0.6427  0.1155 -0.4701
    4DOPE    C1  403   6.793   1.764   6.969 -0.0810  0.5085  0.5117
    4DOPE    HA  404   6.713   1.727   7.036 -1.6962  1.7340 -0.6478
    4DOPE    HB  405   6.867   1.682   6.958 -1.6600 -0.7303 -1.7397
    4DOPE    C2  406   6.728   1.788   6.826 -0.4788 -0.2261  0.2884
    4DOPE    HS  407   6.658   1.705   6.801 -0.7358 -0.8293  2.7043
    4DOPE   O21  408   6.832   1.813   6.720  0.3939  0.1431  0.2848
    4DOPE   C21  409   6.910   1.716   6.687  0.9555  0.8095 -0.0338
    4DOPE   O22  410   6.889   1.596   6.713  0.2936  0.0988  0.2500
    4DOPE   C22  411   7.033   1.760   6.608  0.6545  0.0860 -0.5742
    4DOPE   H2R  412   7.105   1.771   6.692  2.0042  2.1290 -1.9027
    4DOPE   H2S  413   7.014   1.858   6.559  0.8551  0.1701 -0.4853
    4DOPE    C3  414   6.636   1.912   6.827  0.0991  0.0492 -0.4488
    4DOPE    HX  415   6.693   1.995   6.874 -1.5860 -0.0688  1.9489
    4DOPE    HY  416   6.551   1.889   6.895 -0.1534  0.3104 -0.6722
    4DOPE   O31  417   6.591   1.934   6.689 -0.4641  0.1481  0.2766
    4DOPE   C31  418   6.543   2.057   6.671  0.3385 -0.2737  0.8486
    4DOPE   O32  419   6.551   2.151   6.744  0.5462  0.4021 -0.3218
    4DOPE   C32  420   6.466   2.072   6.540 -0.3937 -0.0348  0.1719
    4DOPE   H2X  421   6.524   2.031   6.454  0.0062 -0.3365  0.5846
    4DOPE   H2Y  422   6.374   2.012   6.558 -1.0329  0.9064  0.1432
    4DOPE   C23  423   7.062   1.670   6.488 -0.5017  0.2841  0.7254
    4DOPE   H3R  424   7.060   1.564   6.521 -1.1186  0.9612  2.9902
    4DOPE   H3S  425   7.168   1.681   6.459 -0.9851  1.1321 -0.8839
    4DOPE   C24  426   6.967   1.691   6.369 -0.0484 -0.2259  0.3977
    4DOPE   H4R  427   6.994   1.787   6.321 -3.4863  1.6893  1.9697
    4DOPE   H4S  428   6.864   1.702   6.410 -1.1436 -0.6243 -2.1024
    4DOPE   C25  429   6.963   1.581   6.260  0.4388 -0.5461 -0.4035
    4DOPE   H5R  430   6.942   1.484   6.309 -1.2765  0.1478  0.3319
    4DOPE   H5S  431   7.072   1.573   6.238  0.7550  1.2375  0.3157
    4DOPE   C26  432   6.873   1.616   6.140  0.8125  0.4861  0.7165
    4DOPE   H6R  433   6.842   1.722   6.126 -1.1970 -0.3894 -2.7998
    4DOPE   H6S  434   6.781   1.557   6.158  0.0668  1.4540  0.2149
    4DOPE   C27  435   6.923   1.580   5.993  0.2442  0.1127 -0.6981
    4DOPE   H7R  436   6.967   1.479   6.003  1.9630  0.8174 -0.7807
    4DOPE   H7S  437   7.010   1.642   5.964  1.4605 -0.8899  0.6302
    4DOPE   C28  438   6.811   1.568   5.889  0.0350 -0.6550 -0.3146
    4DOPE   H8R  439   6.747   1.658   5.883  1.0623  0.0034 -2.0567
    4DOPE   H8S  440   6.740   1.486   5.917 -1.9044  0.7229 -0.9860
    4DOPE   C29  441   6.852   1.548   5.744  0.4108 -0.2762 -0.4677
    4DOPE   H9R  442   6.819   1.449   5.710  0.9736 -1.3439  1.8732
    4DOPE  C210  443   6.922   1.639   5.670 -0.1150  0.2479 -0.7567
    4DOPE  H10R  444   6.963   1.631   5.568 -0.0153  0.2683 -0.7183
    4DOPE  C211  445   6.957   1.777   5.726  0.5382  0.8561  0.3859
    4DOPE  H11R  446   7.064   1.783   5.755  0.2929  1.6753  1.1680
    4DOPE  H11S  447   6.907   1.806   5.820 -0.9875  3.3742 -1.0955
    4DOPE  C212  448   6.932   1.890   5.631  0.0136 -0.2707  0.4297
    4DOPE  H12R  449   6.967   1.870   5.528 -0.5956 -1.3950  0.4211
    4DOPE  H12S  450   6.983   1.983   5.664  2.8645 -0.1532 -3.6105
    4DOPE  C213  451   6.779   1.928   5.614 -0.5019  0.8045  0.2524
    4DOPE  H13R  452   6.756   2.019   5.673 -0.4758  0.6847  0.4483
    4DOPE  H13S  453   6.727   1.839   5.655  1.2675 -1.2901 -1.7358
    4DOPE  C214  454   6.747   1.965   5.472 -0.6238  0.5849  0.5662
    4DOPE  H14R  455   6.748   1.876   5.405  0.0874 -1.0188  2.6164
    4DOPE  H14S  456   6.828   2.033   5.439 -1.1690 -0.1023 -2.5655
    4DOPE  C215  457   6.624   2.055   5.438 -0.6682 -0.0375  0.1912
    4DOPE  H15R  458   6.596   2.135   5.509 -3.3836 -1.5728  1.0159
    4DOPE  H15S  459   6.542   1.981   5.428 -0.6508  0.0411 -0.5887
    4DOPE  C216  460   6.639   2.134   5.304 -0.0535  0.2274 -0.3591
    4DOPE  H16R  461   6.647   2.052   5.229 -0.4548 -0.3891  0.2650
    4DOPE  H16S  462   6.734   2.190   5.291  0.9836 -1.3465  0.1145
    4DOPE  C217  463   6.516   2.216   5.271 -0.4317  0.3495  0.0956
    4DOPE  H17R  464   6.466   2.258   5.361  0.9772 -1.4078  1.7948
    4DOPE  H17S  465   6.441   2.146   5.229  1.0813 -0.8294 -0.7459
    4DOPE  C218  466   6.540   2.324   5.168 -0.7282 -0.2270  0.4570
    4DOPE  H18R  467   6.453   2.392   5.159  0.4058  1.9744  4.1424
    4DOPE  H18S  468   6.563   2.273   5.072  1.5429  0.8721  0.3452
    4DOPE  H18T  469   6.623   2.394   5.193  0.4944 -0.5638 -2.2850
    4DOPE   C33  470   6.425   2.214   6.493  0.1982  0.4846 -0.2147
    4DOPE   H3X  471   6.504   2.290   6.478 -0.2072  1.1901  1.1263
    4DOPE   H3Y  472   6.362   2.252   6.576  0.0268  0.3256 -0.2694
    4DOPE   C34  473   6.326   2.213   6.370  0.9847  1.0759 -0.0601
    4DOPE   H4X  474   6.378   2.161   6.287 -0.0131 -0.6921  0.3693
    4DOPE   H4Y  475   6.240   2.147   6.396  2.2288 -1.5153 -2.1250
    4DOPE   C35  476   6.279   2.351   6.331 -0.7335 -0.1977 -0.6939
    4DOPE   H5X  477   6.363   2.414   6.295 -0.4647  1.9337  3.1291
    4DOPE   H5Y  478   6.243   2.402   6.424 -1.1518  1.2698 -1.6305
    4DOPE   C36  479   6.180   2.341   6.218  0.4751 -0.5178  0.6096
    4DOPE   H6X  480   6.087   2.292   6.254  0.5154  0.7012  2.4765
    4DOPE   H6Y  481   6.231   2.281   6.140 -0.8738  0.5537 -1.1778
    4DOPE   C37  482   6.149   2.479   6.157 -0.0440  0.7863  0.1533
    4DOPE   H7X  483   6.107   2.550   6.231  0.1847  1.0426  0.0403
    4DOPE   H7Y  484   6.251   2.515   6.131  1.2143 -1.4318  1.7815
    4DOPE   C38  485   6.058   2.476   6.036  0.3905 -0.8283  0.1812
    4DOPE   H8X  486   5.952   2.449   6.058 -0.0260  1.5129  1.3736
    4DOPE   H8Y  487   6.101   2.393   5.976 -0.4316  0.6007 -2.5313
    4DOPE   C39  488   6.046   2.591   5.940  0.6956 -0.1645 -0.3714
    4DOPE   H9X  489   6.115   2.674   5.964 -0.6085  0.7008  0.4972
    4DOPE  C310  490   5.958   2.606   5.847  0.1850 -0.2371  0.6026
    4DOPE  H10X  491   5.968   2.704   5.797 -1.8191  0.2254  1.0332
    4DOPE  C311  492   5.854   2.511   5.801  0.4183 -0.2327  0.3210
    4DOPE  H11X  493   5.892   2.407   5.806  1.8764  0.1321 -1.7000
    4DOPE  H11Y  494   5.769   2.530   5.869 -0.7890 -2.1518 -0.5732
    4DOPE  C312  495   5.795   2.539   5.656 -0.8009 -0.1804  0.0926
    4DOPE  H12X  496   5.876   2.517   5.583 -1.8387  1.0299 -1.4697
    4DOPE  H12Y  497   5.773   2.647   5.645 -1.5166 -0.3278  0.0392
    4DOPE  C313  498   5.669   2.460   5.631  0.2542  0.4862  0.4009
    4DOPE  H13X  499   5.684   2.350   5.629 -3.1068 -0.0756 -0.2352
    4DOPE  H13Y  500   5.592   2.467   5.711 -0.5032 -2.8272  0.0801
    4DOPE  C314  501   5.591   2.508   5.507 -0.5981 -0.2072  0.6542
    4DOPE  H14X  502   5.652   2.465   5.425  0.1855 -1.5444  1.9021
    4DOPE  H14Y  503   5.587   2.619   5.512 -3.0801 -0.2552  0.9994
    4DOPE  C315  504   5.449   2.445   5.494  0.1180 -0.2992 -0.4157
    4DOPE  H15X  505   5.397   2.473   5.589  1.4790 -0.0250  0.2762
    4DOPE  H15Y  506   5.452   2.334   5.498 -0.1499 -0.3530 -1.4341
    4DOPE  C316  507   5.377   2.500   5.375  0.3079 -0.9840  0.4803
    4DOPE  H16X  508   5.450   2.508   5.291 -0.5189 -0.9583 -0.2410
    4DOPE  H16Y  509   5.344   2.605   5.386 -0.0007 -1.1526  1.1721
    4DOPE  C317  510   5.257   2.413   5.319  0.4443  0.0631 -0.0740
    4DOPE  H17X  511   5.288   2.314   5.281  3.0679  1.0941 -0.8730
    4DOPE  H17Y  512   5.179   2.406   5.398 -0.5738  1.1004 -0.9288
    4DOPE  C318  513   5.189   2.483   5.207 -0.4718 -0.5271 -0.4338
    4DOPE  H18X  514   5.145   2.579   5.241  1.9276  0.7671 -0.7692
    4DOPE  H18Y  515   5.263   2.510   5.129  0.3154  1.0092  0.7883
    4DOPE  H18Z  516   5.101   2.423   5.173 -1.3312 -0.7147  1.9122
    5DOPE     N  517   3.704   4.100   7.174  0.1357  0.4828  0.3254
    5DOPE   HN1  518   3.606   4.069   7.189  0.5690 -2.1424 -1.5305
    5DOPE   HN2  519   3.759   4.014   7.196 -1.2489 -0.6816 -0.5941
    5DOPE   HN3  520   3.730   4.175   7.241  0.6846  0.2466  0.3861
    5DOPE   C12  521   3.724   4.138   7.027  0.3844  0.3541 -0.2107
    5DOPE  H12A  522   3.821   4.189   7.007  1.4225 -1.3143  0.3797
    5DOPE  H12B  523   3.634   4.196   6.996  1.3234  0.8161 -2.1896
    5DOPE   C11  524   3.717   4.007   6.938  0.2812  0.0464 -0.2266
    5DOPE  H11A  525   3.805   3.948   6.971  0.4419  0.6812  0.5062
    5DOPE  H11B  526   3.715   4.046   6.835  0.1788  0.5280 -0.0448
    5DOPE     P  527   3.474   3.918   6.885 -0.4441 -0.1269  0.2950
    5DOPE   O13  528   3.413   4.050   6.855 -0.3349 -0.5114 -0.3300
    5DOPE   O14  529   3.385   3.820   6.956 -0.1366  0.1513  0.0568
    5DOPE   O11  530   3.534   3.843   6.754  0.2642 -0.2314  0.2581
    5DOPE   O12  531   3.600   3.929   6.974 -0.2555  0.4652  0.3486
    5DOPE    C1  532   3.615   3.732   6.777 -0.1551  0.6059  0.0774
    5DOPE    HA  533   3.567   3.663   6.850 -1.3737  0.5675 -0.7227
    5DOPE    HB  534   3.718   3.755   6.809 -0.0296 -0.3041  0.3560
    5DOPE    C2  535   3.642   3.648   6.656  0.3305 -0.3214  0.9112
    5DOPE    HS  536   3.727   3.583   6.687  1.8858  1.6970  1.0774
    5DOPE   O21  537   3.663   3.730   6.538  0.2196 -0.2662  0.4394
    5DOPE   C21  538   3.792   3.760   6.530 -0.3127  0.6673 -0.1445
    5DOPE   O22  539   3.879   3.729   6.611  0.1871  0.2012 -0.6328
    5DOPE   C22  540   3.812   3.831   6.394  0.4587 -0.2255 -0.7948
    5DOPE   H2R  541   3.917   3.810   6.363  0.2624 -0.8635 -1.0461
    5DOPE   H2S  542   3.803   3.940   6.410  1.7707 -0.1758 -0.2426
    5DOPE    C3  543   3.528   3.547   6.612  0.3424 -0.2212 -0.0467
    5DOPE    HX  544   3.435   3.606   6.594  0.2004 -0.4915 -0.2011
    5DOPE    HY  545   3.510   3.485   6.702 -0.6986  1.3233  0.8709
    5DOPE   O31  546   3.552   3.469   6.492  0.7831 -0.1155 -0.1834
    5DOPE   C31  547   3.454   3.421   6.433  0.1770 -0.4952  0.5835
    5DOPE   O32  548   3.331   3.430   6.465 -0.2075 -0.4099 -0.3480
    5DOPE   C32  549   3.501   3.347   6.314 -0.4775  0.0179  0.2892
    5DOPE   H2X  550   3.574   3.272   6.349 -0.0373  0.3929  0.1928
    5DOPE   H2Y  551   3.420   3.295   6.258 -0.5904  0.9488 -0.4518
    5DOPE   C23  552   3.719   3.767   6.282 -0.9301  0.4224 -0.3643
    5DOPE   H3R  553   3.610   3.776   6.300 -0.8132 -0.9871  1.3598
    5DOPE   H3S  554   3.746   3.659   6.278 -1.0370  0.2950  1.4066
    5DOPE   C24  555   3.754   3.834   6.145  0.0486 -0.4280 -0.1952
    5DOPE   H4R  556   3.697   3.772   6.073 -0.0091 -0.9348  0.2841
    5DOPE   H4S  557   3.859   3.811   6.119  0.0824  0.9412 -1.4443
    5DOPE   C25  558   3.710   3.979   6.124 -0.7339 -0.6407 -0.9200
    5DOPE   H5R  559   3.782   4.045   6.177 -1.0383 -0.8077 -0.2941
    5DOPE   H5S  560   3.610   3.999   6.170  0.5604  1.1563  1.3340
    5DOPE   C26  561   3.708   4.011   5.969  0.1675 -0.4009  0.2704
    5DOPE   H6R  562   3.647   3.934   5.916  0.6664 -0.0213 -0.8940
    5DOPE   H6S  563   3.811   4.002   5.927 -0.2448 -0.4409 -0.7730
    5DOPE   C27  564   3.644   4.144   5.942  0.3055 -0.4565  0.7715
    5DOPE   H7R  565   3.701   4.217   6.003  1.0007  0.6500 -1.1121
    5DOPE   H7S  566   3.537   4.135   5.970 -0.3238  0.3296 -1.2239
    5DOPE   C28  567   3.642   4.181   5.789  0.2888 -0.7649  0.0652
    5DOPE   H8R  568   3.748   4.174   5.755  0.7555 -1.2393  1.5271
    5DOPE   H8S  569   3.608   4.286   5.777  1.8798 -0.1492  0.6116
    5DOPE   C29  570   3.530   4.090   5.731  0.0549  0.1659 -0.1464
    5DOPE   H9R  571   3.428   4.126   5.751 -0.5578 -0.3943 -2.0467
    5DOPE  C210  572   3.537   3.990   5.647  0.0754 -0.2922 -0.2556
    5DOPE  H10R  573   3.444   3.946   5.609  0.3371 -0.1773 -1.0319
    5DOPE  C211  574   3.660   3.912   5.620  0.4523 -0.4889 -0.3999
    5DOPE  H11R  575   3.653   3.803   5.639  2.6268 -0.8379 -1.2632
    5DOPE  H11S  576   3.747   3.946   5.681  0.4410 -1.2701  0.0613
    5DOPE  C212  577   3.709   3.919   5.465  0.0092  0.6371  0.3910
    5DOPE  H12R  578   3.809   3.873   5.456 -0.3998 -0.1119 -0.4926
    5DOPE  H12S  579   3.727   4.025   5.440 -0.5687  0.8200  0.7265
    5DOPE  C213  580   3.610   3.863   5.369 -0.0425 -0.1649 -0.1285
    5DOPE  H13R  581   3.519   3.927   5.373  0.7931  1.0119  3.0822
    5DOPE  H13S  582   3.559   3.767   5.393 -1.9522  0.3923 -1.6920
    5DOPE  C214  583   3.665   3.854   5.224  0.1548 -0.0688  0.7677
    5DOPE  H14R  584   3.727   3.763   5.212  1.2254  0.3711  2.5071
    5DOPE  H14S  585   3.729   3.941   5.199 -1.1260  0.4227 -1.0014
    5DOPE  C215  586   3.552   3.864   5.117  0.0346 -0.4619  0.1859
    5DOPE  H15R  587   3.595   3.857   5.015 -0.8845 -2.4365 -0.1108
    5DOPE  H15S  588   3.502   3.963   5.129  1.1501  0.1162  0.2565
    5DOPE  C216  589   3.449   3.753   5.137 -0.7632  0.1951 -0.7026
    5DOPE  H16R  590   3.413   3.766   5.241  2.5542  0.0291  0.5982
    5DOPE  H16S  591   3.496   3.653   5.147  1.2803  1.2606  1.3960
    5DOPE  C217  592   3.338   3.751   5.032 -0.5074  0.0985 -0.1814
    5DOPE  H17R  593   3.385   3.726   4.934  0.2084  0.6240  0.0179
    5DOPE  H17S  594   3.294   3.853   5.037  0.7026  0.5779  1.4452
    5DOPE  C218  595   3.236   3.641   5.059 -0.5786 -0.1390  0.2253
    5DOPE  H18R  596   3.274   3.537   5.053  0.0878  0.2047 -2.6595
    5DOPE  H18S  597   3.155   3.651   4.984 -0.0572 -0.2294 -0.3562
    5DOPE  H18T  598   3.195   3.659   5.161 -0.2606 -0.6594  0.4503
    5DOPE   C33  599   3.577   3.434   6.198  0.2677 -0.5787 -1.0070
    5DOPE   H3X  600   3.666   3.484   6.242  1.5450 -0.9753 -3.0472
    5DOPE   H3Y  601   3.520   3.525   6.171 -0.1005  0.0001  1.4475
    5DOPE   C34  602   3.629   3.350   6.079  0.3039 -0.0362  0.2236
    5DOPE   H4X  603   3.684   3.261   6.115  1.0904  0.7286  0.9628
    5DOPE   H4Y  604   3.543   3.312   6.020  0.1945 -1.5676  1.3000
    5DOPE   C35  605   3.716   3.437   5.993  0.0359 -0.7452 -0.2592
    5DOPE   H5X  606   3.802   3.484   6.044 -1.1140  2.4460 -0.9857
    5DOPE   H5Y  607   3.663   3.529   5.961 -0.0193 -0.4468  0.6747
    5DOPE   C36  608   3.782   3.381   5.870  0.0783  0.1283  0.0801
    5DOPE   H6X  609   3.708   3.310   5.826  1.3039 -0.1785 -1.6050
    5DOPE   H6Y  610   3.866   3.324   5.914 -0.9972 -1.8541 -0.2979
    5DOPE   C37  611   3.815   3.485   5.756  0.5668 -0.1255 -1.4278
    5DOPE   H7X  612   3.718   3.522   5.716 -1.0383 -1.2600  1.2045
    5DOPE   H7Y  613   3.852   3.579   5.802 -0.8143 -0.1467 -0.2032
    5DOPE   C38  614   3.918   3.434   5.649  0.3262  0.3411 -0.6149
    5DOPE   H8X  615   3.883   3.337   5.607 -2.4847  2.2727 -3.0519
    5DOPE   H8Y  616   4.003   3.420   5.719 -0.5757  2.6404  1.0284
    5DOPE   C39  617   3.942   3.528   5.540 -0.0802 -0.7076  0.2486
    5DOPE   H9X  618   3.865   3.547   5.464  0.7404 -0.9415 -0.6656
    5DOPE  C310  619   4.063   3.579   5.506  0.2056  0.1427  0.3500
    5DOPE  H10X  620   4.066   3.628   5.407  0.0080 -1.2195 -0.3677
    5DOPE  C311  621   4.191   3.571   5.584  0.2706 -0.8365 -0.1913
    5DOPE  H11X  622   4.212   3.663   5.644 -0.1370 -0.0078 -1.2769
    5DOPE  H11Y  623   4.189   3.489   5.659  0.1085  0.1350  0.8948
    5DOPE  C312  624   4.319   3.542   5.504 -0.1665  0.2708 -0.3372
    5DOPE  H12X  625   4.307   3.443   5.454 -0.8449  0.1141  0.1165
    5DOPE  H12Y  626   4.403   3.540   5.576 -1.9915 -0.5353  1.8736
    5DOPE  C313  627   4.358   3.648   5.406 -0.4468 -0.3910  0.4740
    5DOPE  H13X  628   4.298   3.633   5.314  1.1231 -1.1033 -0.4767
    5DOPE  H13Y  629   4.356   3.750   5.449  3.9863 -0.2508  0.8035
    5DOPE  C314  630   4.500   3.651   5.349  0.0117  0.7573 -0.4025
    5DOPE  H14X  631   4.506   3.719   5.262 -1.7276  0.5906 -0.6851
    5DOPE  H14Y  632   4.511   3.550   5.303 -2.4739  0.7590 -1.1224
    5DOPE  C315  633   4.613   3.658   5.456 -0.4925  1.0048  0.4414
    5DOPE  H15X  634   4.606   3.590   5.544 -1.2263  1.1850  0.5257
    5DOPE  H15Y  635   4.605   3.762   5.494 -1.0092  0.9140  0.5945
    5DOPE  C316  636   4.752   3.633   5.402  0.4552 -0.4701  0.5105
    5DOPE  H16X  637   4.749   3.664   5.296 -0.9118  3.1268  1.4647
    5DOPE  H16Y  638   4.775   3.524   5.399 -0.6328 -0.6997 -0.3543
    5DOPE  C317  639   4.847   3.711   5.485 -1.0804 -0.2703  0.5556
    5DOPE  H17X  640   4.830   3.814   5.447 -1.4768 -0.9120 -1.1255
    5DOPE  H17Y  641   4.835   3.700   5.595 -1.0982 -0.3339  0.5466
    5DOPE  C318  642   4.997   3.680   5.458 -0.1607 -0.0969  0.1069
    5DOPE  H18X  643   5.021   3.576   5.425 -1.3535 -0.3469 -0.0201
    5DOPE  H18Y  644   5.026   3.753   5.380 -0.7310 -0.9715 -0.9482
    5DOPE  H18Z  645   5.050   3.707   5.551  2.4845 -0.7128 -1.1316
    6DOPE     N  646   2.972   3.267   7.154  0.1418  0.6939 -0.1923
    6DOPE   HN1  647   3.041   3.190   7.162 -0.6676  0.0634  1.0416
    6DOPE   HN2  648   2.999   3.340   7.223  1.5547  0.6968 -0.7089
    6DOPE   HN3  649   2.882   3.224   7.182 -0.5656  2.0714 -0.2997
    6DOPE   C12  650   2.962   3.332   7.016 -0.0222 -0.5343 -0.3715
    6DOPE  H12A  651   3.048   3.403   7.013  0.1310 -0.7154 -0.2928
    6DOPE  H12B  652   2.863   3.381   7.004  0.1875 -0.0698 -0.2415
    6DOPE   C11  653   2.970   3.241   6.889  0.2454 -0.2588 -0.2855
    6DOPE  H11A  654   3.078   3.219   6.878  1.1361  3.6644 -1.2169
    6DOPE  H11B  655   2.943   3.310   6.805  1.7546 -0.0498 -0.6201
    6DOPE     P  656   2.920   2.982   6.836 -0.4522  0.3141  0.0221
    6DOPE   O13  657   2.843   2.886   6.921 -0.0793 -0.1959 -0.6404
    6DOPE   O14  658   3.064   2.967   6.825  0.2512 -0.0468 -0.2740
    6DOPE   O11  659   2.862   2.984   6.693 -0.2050 -0.1626  0.6760
    6DOPE   O12  660   2.883   3.132   6.889  0.9509  0.0889 -0.1632
    6DOPE    C1  661   2.909   3.078   6.591  0.0292  0.0894 -0.4050
    6DOPE    HA  662   3.005   3.041   6.551  0.6417  0.5875  0.5637
    6DOPE    HB  663   2.923   3.177   6.639 -4.1711  0.6225  0.0703
    6DOPE    C2  664   2.792   3.094   6.491 -0.1743 -0.4295  0.6040
    6DOPE    HS  665   2.710   3.148   6.543  0.0786  0.6774 -0.1084
    6DOPE   O21  666   2.761   2.963   6.435 -0.1785 -0.1123  0.6450
    6DOPE   C21  667   2.643   2.961   6.377  0.1726 -0.0376 -0.1028
    6DOPE   O22  668   2.561   3.052   6.384 -0.6484 -0.0778  0.4317
    6DOPE   C22  669   2.619   2.820   6.321 -0.0377 -0.0365 -1.0484
    6DOPE   H2R  670   2.516   2.791   6.349 -0.3921 -0.4537 -2.6720
    6DOPE   H2S  671   2.688   2.743   6.362 -0.5683  0.2464  0.4535
    6DOPE    C3  672   2.843   3.188   6.380  0.6528  0.7936 -0.7592
    6DOPE    HX  673   2.862   3.287   6.425 -0.2808  0.2120  1.0066
    6DOPE    HY  674   2.767   3.190   6.298  0.4849 -2.0082 -0.7830
    6DOPE   O31  675   2.961   3.141   6.329  0.3837  0.5998 -0.1777
    6DOPE   C31  676   3.011   3.226   6.241  0.3573 -0.0500 -0.5993
    6DOPE   O32  677   2.967   3.336   6.211  0.2932  0.9091  0.2796
    6DOPE   C32  678   3.135   3.171   6.176 -0.1019  0.6008  0.6338
    6DOPE   H2X  679   3.198   3.251   6.132  0.5437 -0.1346  0.1705
    6DOPE   H2Y  680   3.188   3.129   6.265 -1.5887  1.6283  2.0498
    6DOPE   C23  681   2.623   2.820   6.168  0.3914  0.0566 -0.1112
    6DOPE   H3R  682   2.575   2.911   6.126 -0.4403 -0.1019  0.4493
    6DOPE   H3S  683   2.558   2.738   6.129  0.6695  0.2952 -1.0948
    6DOPE   C24  684   2.762   2.816   6.105  0.6684 -1.1281  0.4057
    6DOPE   H4R  685   2.817   2.726   6.140  1.8055 -1.2631 -1.5479
    6DOPE   H4S  686   2.826   2.903   6.129 -1.4283  0.2281  1.3842
    6DOPE   C25  687   2.763   2.795   5.953  0.7845  0.0864  0.4789
    6DOPE   H5R  688   2.870   2.797   5.922  1.6469 -2.1360  2.9446
    6DOPE   H5S  689   2.705   2.876   5.904  1.3043 -0.3851 -0.9636
    6DOPE   C26  690   2.705   2.666   5.899  0.1310 -0.4810  0.0928
    6DOPE   H6R  691   2.597   2.662   5.928  0.0775 -1.1290 -0.1680
    6DOPE   H6S  692   2.759   2.583   5.949 -0.0421 -1.8699 -1.9137
    6DOPE   C27  693   2.737   2.655   5.749 -1.0381 -0.5184  0.6445
    6DOPE   H7R  694   2.846   2.635   5.744 -0.6169  1.7584 -3.4810
    6DOPE   H7S  695   2.724   2.753   5.700  2.8126  0.6435  1.5865
    6DOPE   C28  696   2.675   2.539   5.675  0.0906  0.4268 -0.1224
    6DOPE   H8R  697   2.575   2.581   5.654  0.1442  0.1620 -0.9379
    6DOPE   H8S  698   2.667   2.453   5.745  0.9493  1.1753  0.9192
    6DOPE   C29  699   2.755   2.481   5.558 -0.3466 -0.4088  0.2443
    6DOPE   H9R  700   2.760   2.537   5.463 -0.4034 -2.1477 -0.8131
    6DOPE  C210  701   2.843   2.376   5.574  0.5857 -0.0990  0.4337
    6DOPE  H10R  702   2.911   2.354   5.490  2.1438  0.7849  1.3937
    6DOPE  C211  703   2.858   2.278   5.687  0.1073 -0.0482  0.2533
    6DOPE  H11R  704   2.770   2.272   5.754  0.3466 -0.3085  0.5478
    6DOPE  H11S  705   2.934   2.313   5.759 -0.2307  0.0368  0.5697
    6DOPE  C212  706   2.884   2.137   5.631  0.1287 -0.2379 -0.0491
    6DOPE  H12R  707   2.978   2.143   5.572  0.9341 -0.6347  1.1481
    6DOPE  H12S  708   2.803   2.107   5.561  0.0051  0.5325 -0.2514
    6DOPE  C213  709   2.911   2.038   5.743  0.6327  0.3366 -0.4736
    6DOPE  H13R  710   2.828   2.024   5.816  1.1270  1.2263  0.2841
    6DOPE  H13S  711   2.997   2.076   5.802  1.6656 -0.9381 -1.1175
    6DOPE  C214  712   2.942   1.895   5.691 -0.2665 -0.3214  0.4631
    6DOPE  H14R  713   3.031   1.902   5.625  0.7189 -0.2769  1.7627
    6DOPE  H14S  714   2.856   1.869   5.626 -0.4738 -0.3772  0.7602
    6DOPE  C215  715   2.968   1.795   5.804 -0.4232 -0.6543 -0.3568
    6DOPE  H15R  716   2.871   1.782   5.855  0.0931 -3.0533  0.1428
    6DOPE  H15S  717   3.041   1.846   5.871 -2.0819  0.8218  0.3906
    6DOPE  C216  718   3.023   1.660   5.757 -0.2903 -0.3912  0.2608
    6DOPE  H16R  719   3.100   1.676   5.680 -1.3701 -0.7599 -0.9312
    6DOPE  H16S  720   2.943   1.611   5.697 -1.0509 -1.4810  2.0870
    6DOPE  C217  721   3.079   1.575   5.868  1.0164  0.5305  0.0526
    6DOPE  H17R  722   3.101   1.470   5.837  3.8977  0.9640  0.3481
    6DOPE  H17S  723   2.995   1.568   5.941  0.8564  2.2288  0.0740
    6DOPE  C218  724   3.209   1.622   5.924 -0.1960  0.5609 -0.1069
    6DOPE  H18R  725   3.210   1.713   5.987 -0.3489  1.0251 -0.7689
    6DOPE  H18S  726   3.288   1.623   5.846  0.1715 -3.3656 -0.0179
    6DOPE  H18T  727   3.255   1.539   5.984  1.7549  0.9243 -1.0248
    6DOPE   C33  728   3.098   3.071   6.073  0.7414 -0.5369  0.9809
    6DOPE   H3X  729   3.055   2.980   6.120 -0.2670 -0.2370  0.6773
    6DOPE   H3Y  730   3.188   3.026   6.026  1.1228  1.2257 -0.0853
    6DOPE   C34  731   3.016   3.116   5.951  0.4025 -0.8663  1.2238
    6DOPE   H4X  732   3.008   3.037   5.873  0.0164  0.8163 -0.5169
    6DOPE   H4Y  733   2.910   3.138   5.974  0.1546 -0.7120 -0.0149
    6DOPE   C35  734   3.070   3.243   5.877 -0.9511 -0.3234  0.6393
    6DOPE   H5X  735   3.058   3.333   5.942 -0.4228 -0.0600  0.3785
    6DOPE   H5Y  736   3.006   3.270   5.790  0.2746  1.6416  0.2577
    6DOPE   C36  737   3.216   3.236   5.819  0.0517  0.0735 -0.7830
    6DOPE   H6X  738   3.233   3.135   5.776 -1.8358 -0.1716 -1.0634
    6DOPE   H6Y  739   3.280   3.247   5.908 -0.3041  0.3056 -0.5544
    6DOPE   C37  740   3.247   3.343   5.720 -0.1723 -0.0587 -0.6154
    6DOPE   H7X  741   3.181   3.334   5.631 -1.3580  0.3903  0.1969
    6DOPE   H7Y  742   3.214   3.436   5.772  0.3042 -0.8055  1.0866
    6DOPE   C38  743   3.397   3.354   5.693  0.4717 -0.7874  0.3269
    6DOPE   H8X  744   3.425   3.253   5.658  0.0914 -1.1029  0.9167
    6DOPE   H8Y  745   3.457   3.373   5.785 -0.8520  0.6144  0.9504
    6DOPE   C39  746   3.437   3.464   5.596  0.3656 -0.1322 -0.5958
    6DOPE   H9X  747   3.455   3.563   5.640 -2.1802  0.7253 -1.3233
    6DOPE  C310  748   3.447   3.454   5.465 -0.1151  0.0245  0.5088
    6DOPE  H10X  749   3.487   3.543   5.414 -1.6639  0.5442  0.1484
    6DOPE  C311  750   3.446   3.332   5.374  0.0468  0.7960 -0.6961
    6DOPE  H11X  751   3.385   3.254   5.424 -1.6912  1.0168 -2.3625
    6DOPE  H11Y  752   3.386   3.357   5.284 -2.7533 -0.6841  0.6246
    6DOPE  C312  753   3.594   3.295   5.354  0.7762  0.0198  0.0128
    6DOPE  H12X  754   3.598   3.185   5.341 -0.3907 -0.1824  1.1092
    6DOPE  H12Y  755   3.643   3.314   5.452 -1.5342 -0.5129  1.3480
    6DOPE  C313  756   3.666   3.361   5.234 -0.1354 -0.2411  0.1827
    6DOPE  H13X  757   3.622   3.319   5.141 -0.7195  0.8884 -0.0761
    6DOPE  H13Y  758   3.653   3.472   5.238  5.4104  0.7279 -0.5111
    6DOPE  C314  759   3.818   3.332   5.224 -0.2001  0.0433  0.0949
    6DOPE  H14X  760   3.823   3.222   5.216 -0.9068  0.0878 -1.3620
    6DOPE  H14Y  761   3.887   3.358   5.307 -1.0923  0.9751  0.5727
    6DOPE  C315  762   3.887   3.396   5.098  0.4273  0.0167  0.3709
    6DOPE  H15X  763   3.853   3.372   4.995  0.1614 -2.2512  0.9421
    6DOPE  H15Y  764   3.991   3.359   5.091  0.5647  0.4750 -0.0056
    6DOPE  C316  765   3.907   3.549   5.115  0.3107  0.1908 -0.4666
    6DOPE  H16X  766   3.904   3.572   5.224 -1.6959  1.1562 -0.6706
    6DOPE  H16Y  767   3.824   3.605   5.066  1.2035  0.3058 -1.9131
    6DOPE  C317  768   4.039   3.594   5.047 -0.1359 -0.6764 -0.8947
    6DOPE  H17X  769   4.114   3.527   5.094  0.5601 -0.2423 -1.3575
    6DOPE  H17Y  770   4.035   3.581   4.936 -0.5754  1.5710 -1.1931
    6DOPE  C318  771   4.088   3.742   5.078 -0.3379  0.5609 -0.9121
    6DOPE  H18X  772   4.000   3.810   5.066 -0.8351  0.0852 -0.0710
    6DOPE  H18Y  773   4.127   3.765   5.180  0.7811 -1.9635 -0.7091
    6DOPE  H18Z  774   4.168   3.775   5.009 -0.7452 -2.4185 -2.9913
    7DOPE     N  775   5.446   4.351   7.601 -0.1481  0.4558  0.0019
    7DOPE   HN1  776   5.366   4.397   7.552  0.7449  2.7072  0.5274
    7DOPE   HN2  777   5.436   4.254   7.566  1.8132 -0.0114  0.6351
    7DOPE   HN3  778   5.425   4.357   7.702 -0.1072 -0.0404  0.0414
    7DOPE   C12  779   5.576   4.420   7.552 -0.1033  0.4162 -0.3495
    7DOPE  H12A  780   5.659   4.393   7.620  0.3139  2.5878  0.0862
    7DOPE  H12B  781   5.564   4.530   7.560  0.7727  0.4177  1.1959
    7DOPE   C11  782   5.599   4.370   7.409  0.1130 -0.2977 -0.0239
    7DOPE  H11A  783   5.683   4.425   7.361 -0.7269  0.8880 -0.1733
    7DOPE  H11B  784   5.505   4.397   7.355 -1.0506  0.0997  2.0956
    7DOPE     P  785   5.741   4.155   7.347 -0.1044 -0.1028 -0.0386
    7DOPE   O13  786   5.716   4.012   7.337  0.1209 -0.8163 -0.0783
    7DOPE   O14  787   5.853   4.196   7.441 -0.1488 -0.0092  0.2224
    7DOPE   O11  788   5.761   4.214   7.204  0.2888 -0.5850 -0.2290
    7DOPE   O12  789   5.612   4.229   7.403  0.7037  0.0345 -0.0336
    7DOPE    C1  790   5.888   4.252   7.146  0.2452  0.3943 -0.1255
    7DOPE    HA  791   5.969   4.181   7.172 -0.7523 -1.0980 -0.9588
    7DOPE    HB  792   5.915   4.351   7.189  2.1629 -0.5000  0.8496
    7DOPE    C2  793   5.885   4.244   6.990  0.2798  0.7806  0.9362
    7DOPE    HS  794   5.800   4.313   6.973 -0.2897  0.1129  1.0082
    7DOPE   O21  795   5.880   4.110   6.936  0.0295 -0.2231 -0.4445
    7DOPE   C21  796   5.770   4.080   6.868  0.2275 -0.1713 -0.1893
    7DOPE   O22  797   5.666   4.146   6.866  0.6377 -0.0284 -0.4333
    7DOPE   C22  798   5.791   3.938   6.806 -0.1431  0.3039 -0.2750
    7DOPE   H2R  799   5.735   3.869   6.873  3.7182 -1.8024  1.0443
    7DOPE   H2S  800   5.897   3.905   6.810 -0.3647 -0.5541 -1.0120
    7DOPE    C3  801   6.006   4.320   6.932 -0.2736 -0.3173  0.2977
    7DOPE    HX  802   6.100   4.276   6.970  0.6529  0.4309 -1.0576
    7DOPE    HY  803   5.998   4.421   6.979 -0.4089 -0.6316  0.9633
    7DOPE   O31  804   5.991   4.329   6.791  0.7561  0.0101 -0.4904
    7DOPE   C31  805   6.097   4.376   6.727 -0.4511  0.4995  0.3581
    7DOPE   O32  806   6.193   4.434   6.778 -1.2324 -0.0876  0.4371
    7DOPE   C32  807   6.088   4.340   6.581 -0.7044 -0.3963 -1.1604
    7DOPE   H2X  808   5.999   4.276   6.562 -0.6640 -0.2591 -1.8390
    7DOPE   H2Y  809   6.068   4.436   6.528 -2.2736  0.7514  1.3167
    7DOPE   C23  810   5.736   3.922   6.658 -0.5628 -0.0506 -0.1084
    7DOPE   H3R  811   5.762   4.010   6.596  0.9443 -0.6720 -0.3873
    7DOPE   H3S  812   5.626   3.908   6.670 -0.1408 -1.8175  2.8344
    7DOPE   C24  813   5.787   3.794   6.584  0.1493  0.2988  0.5371
    7DOPE   H4R  814   5.728   3.771   6.492  2.7463 -0.1297 -1.1144
    7DOPE   H4S  815   5.762   3.708   6.650 -0.8675  1.9219  2.3741
    7DOPE   C25  816   5.935   3.787   6.545  0.3083 -0.6332  0.0429
    7DOPE   H5R  817   5.992   3.829   6.631  2.0887 -2.2468 -0.2945
    7DOPE   H5S  818   5.947   3.850   6.454  2.2123  0.6301  1.1021
    7DOPE   C26  819   5.975   3.649   6.501  0.3688  0.0746  0.4099
    7DOPE   H6R  820   5.902   3.613   6.425  0.0994 -0.5918  0.9727
    7DOPE   H6S  821   5.965   3.591   6.594 -0.9005 -0.1946  0.1350
    7DOPE   C27  822   6.118   3.645   6.445  0.1018 -0.2991  0.3960
    7DOPE   H7R  823   6.187   3.664   6.530  1.2024 -0.9934 -0.3120
    7DOPE   H7S  824   6.125   3.717   6.360 -1.0029  0.7662  1.1617
    7DOPE   C28  825   6.157   3.509   6.381 -0.3198  0.4405 -0.3084
    7DOPE   H8R  826   6.095   3.501   6.289 -1.3466  0.8967  0.3146
    7DOPE   H8S  827   6.114   3.420   6.434  0.7806 -0.6142 -1.1321
    7DOPE   C29  828   6.305   3.483   6.357  0.1068  0.6369 -0.2378
    7DOPE   H9R  829   6.372   3.506   6.441 -1.7731 -0.8947  1.8111
    7DOPE  C210  830   6.370   3.468   6.236 -0.1805 -0.0149 -0.9926
    7DOPE  H10R  831   6.476   3.438   6.233 -0.8322 -2.6817 -0.2867
    7DOPE  C211  832   6.297   3.456   6.105 -0.4288 -0.0976 -0.4584
    7DOPE  H11R  833   6.349   3.518   6.030 -2.3482 -0.0660 -1.8461
    7DOPE  H11S  834   6.191   3.491   6.109 -0.4536 -0.1931 -0.2273
    7DOPE  C212  835   6.295   3.308   6.061  0.0916  0.2374 -0.1752
    7DOPE  H12R  836   6.259   3.239   6.139  1.1003 -0.0804  0.0290
    7DOPE  H12S  837   6.401   3.280   6.039  0.0449  1.2054 -1.8177
    7DOPE  C213  838   6.221   3.280   5.931  0.6484  0.0718  0.4860
    7DOPE  H13R  839   6.113   3.261   5.952  1.0267 -1.8881  0.8433
    7DOPE  H13S  840   6.256   3.182   5.891 -3.4775 -1.1707 -0.6187
    7DOPE  C214  841   6.248   3.392   5.823 -0.2658 -0.0950 -0.8944
    7DOPE  H14R  842   6.357   3.395   5.804 -0.3991 -1.3867 -1.9470
    7DOPE  H14S  843   6.224   3.497   5.850  0.6945  0.2140 -1.2393
    7DOPE  C215  844   6.177   3.373   5.691  0.4270 -0.1530 -0.7100
    7DOPE  H15R  845   6.215   3.448   5.618  1.5230 -0.0942 -0.0946
    7DOPE  H15S  846   6.068   3.390   5.708  0.3634 -1.8524  0.9334
    7DOPE  C216  847   6.193   3.229   5.629  0.4494 -0.8537  0.0191
    7DOPE  H16R  848   6.179   3.155   5.710 -2.4922 -1.6249 -1.0543
    7DOPE  H16S  849   6.298   3.223   5.594  0.3972 -2.2722  0.0743
    7DOPE  C217  850   6.100   3.197   5.510  0.1940 -0.7881  0.0914
    7DOPE  H17R  851   6.122   3.273   5.432  1.3840 -1.5719 -0.3669
    7DOPE  H17S  852   5.994   3.208   5.541 -0.3191  1.8733 -2.2344
    7DOPE  C218  853   6.124   3.060   5.455  0.8956  0.4332 -0.5089
    7DOPE  H18R  854   6.074   2.981   5.516  0.2589  0.3726 -1.0948
    7DOPE  H18S  855   6.230   3.030   5.440  0.1984 -1.5346 -2.0422
    7DOPE  H18T  856   6.082   3.052   5.353  0.9392 -0.6351 -0.4539
    7DOPE   C33  857   6.222   4.279   6.528 -0.3157 -0.5321 -0.0482
    7DOPE   H3X  858   6.309   4.335   6.568  0.5942 -0.7756 -1.6353
    7DOPE   H3Y  859   6.213   4.292   6.418 -3.7984  3.0621  0.4231
    7DOPE   C34  860   6.228   4.127   6.551 -0.1579  0.4414 -0.2752
    7DOPE   H4X  861   6.229   4.099   6.659  0.8656  1.1934 -0.0665
    7DOPE   H4Y  862   6.133   4.092   6.507  0.5633 -0.0768 -1.4709
    7DOPE   C35  863   6.339   4.061   6.465  0.4514  0.5188 -0.4398
    7DOPE   H5X  864   6.368   3.964   6.510  2.1013  1.5495  0.8357
    7DOPE   H5Y  865   6.432   4.113   6.494 -0.5971  1.6364  1.1052
    7DOPE   C36  866   6.312   4.063   6.313  0.1168 -0.1348  0.3776
    7DOPE   H6X  867   6.311   4.170   6.283  2.5353  0.2169  1.3774
    7DOPE   H6Y  868   6.217   4.013   6.282 -0.7408  1.8481 -0.3642
    7DOPE   C37  869   6.415   3.990   6.239 -0.1565  0.1390 -0.1748
    7DOPE   H7X  870   6.506   4.052   6.257 -1.0139  1.2289  0.4805
    7DOPE   H7Y  871   6.421   3.891   6.290  1.9490 -0.2975 -1.1475
    7DOPE   C38  872   6.388   3.973   6.086 -0.5980  0.5877  0.1381
    7DOPE   H8X  873   6.488   3.964   6.041 -1.1156  1.3826 -1.2131
    7DOPE   H8Y  874   6.347   4.070   6.052 -0.1169  0.3813 -1.0725
    7DOPE   C39  875   6.293   3.854   6.071 -0.1618  0.0340  0.3667
    7DOPE   H9X  876   6.292   3.775   6.147 -1.4297 -1.2760 -0.9566
    7DOPE  C310  877   6.206   3.842   5.973 -0.4570  0.4256 -0.7877
    7DOPE  H10X  878   6.146   3.750   5.973  0.4662 -0.1953 -1.2522
    7DOPE  C311  879   6.185   3.939   5.858 -0.0879  0.6666 -0.0674
    7DOPE  H11X  880   6.085   3.987   5.859 -0.4537 -0.0906  0.9028
    7DOPE  H11Y  881   6.264   4.016   5.846  1.6666 -0.7251  1.8322
    7DOPE  C312  882   6.195   3.868   5.712  0.4079 -0.8220  0.0879
    7DOPE  H12X  883   6.163   3.949   5.644 -0.6052 -0.3184  1.1302
    7DOPE  H12Y  884   6.114   3.792   5.712 -0.9380  0.5402  0.9584
    7DOPE  C313  885   6.328   3.803   5.686 -0.1431 -0.4824  0.4757
    7DOPE  H13X  886   6.412   3.875   5.694 -1.2512  0.9839 -0.4029
    7DOPE  H13Y  887   6.345   3.729   5.767 -1.1776  0.3265  1.4663
    7DOPE  C314  888   6.336   3.740   5.554  0.2263 -0.1922 -0.7555
    7DOPE  H14X  889   6.244   3.678   5.544 -1.5723  2.1119  0.4044
    7DOPE  H14Y  890   6.428   3.679   5.558  0.8230  0.7275 -0.1527
    7DOPE  C315  891   6.338   3.841   5.441  0.4589  1.1356 -0.5888
    7DOPE  H15X  892   6.425   3.905   5.468 -0.2347  2.0660 -0.5143
    7DOPE  H15Y  893   6.250   3.909   5.445 -1.4378 -1.2295  0.6775
    7DOPE  C316  894   6.334   3.787   5.299  0.1446  0.8128  0.1979
    7DOPE  H16X  895   6.267   3.699   5.306  1.8042 -0.3949  1.5931
    7DOPE  H16Y  896   6.434   3.748   5.271 -0.9095 -1.9651  0.0473
    7DOPE  C317  897   6.308   3.902   5.210 -0.8021  0.6083  0.3226
    7DOPE  H17X  898   6.214   3.955   5.236 -0.1664  1.8798  0.1118
    7DOPE  H17Y  899   6.384   3.982   5.226  0.9870 -1.1780  1.1428
    7DOPE  C318  900   6.312   3.868   5.065  0.2718  0.2601  0.2351
    7DOPE  H18X  901   6.235   3.790   5.046 -0.5058  1.1280 -0.2553
    7DOPE  H18Y  902   6.291   3.948   4.991 -0.3379 -0.4661 -0.3809
    7DOPE  H18Z  903   6.404   3.811   5.040 -1.0367 -1.7693 -0.1536
    8DOPE     N  904   7.072   4.995   7.219  0.7309 -0.3440 -0.0281
    8DOPE   HN1  905   7.148   5.065   7.220 -0.2641  0.7536  0.1639
    8DOPE   HN2  906   6.974   5.028   7.213  0.6076 -0.4750  1.0066
    8DOPE   HN3  907   7.078   4.953   7.314 -0.3265 -1.2590 -0.3470
    8DOPE   C12  908   7.095   4.884   7.125  1.0527 -0.0378 -0.1307
    8DOPE  H12A  909   7.057   4.901   7.022  0.6064  0.5677  0.1288
    8DOPE  H12B  910   7.024   4.802   7.149 -2.0382  2.2788 -0.8079
    8DOPE   C11  911   7.232   4.834   7.114  0.3969  0.3331 -0.5968
    8DOPE  H11A  912   7.305   4.911   7.079 -0.1574  1.1696  0.0240
    8DOPE  H11B  913   7.232   4.757   7.034  3.1720  1.2561 -1.6137
    8DOPE     P  914   7.316   4.637   7.275  0.7948 -0.1765 -0.0085
    8DOPE   O13  915   7.344   4.624   7.421 -0.0349  0.4634 -0.2447
    8DOPE   O14  916   7.423   4.595   7.186  0.3137  0.0276  0.0642
    8DOPE   O11  917   7.176   4.570   7.231  0.1839  0.7261 -0.0075
    8DOPE   O12  918   7.287   4.787   7.240  0.0198  0.1261 -0.2115
    8DOPE    C1  919   7.168   4.431   7.202  0.4552  0.5125 -0.2719
    8DOPE    HA  920   7.097   4.374   7.266  0.8528 -0.8548 -1.0128
    8DOPE    HB  921   7.262   4.376   7.220 -0.0587 -0.0150  0.8962
    8DOPE    C2  922   7.125   4.413   7.047 -0.2565 -0.7850 -0.7955
    8DOPE    HS  923   7.136   4.304   7.026  2.3101 -0.3710 -1.9241
    8DOPE   O21  924   7.199   4.502   6.962  0.2921  0.8062  0.7685
    8DOPE   C21  925   7.321   4.455   6.935 -0.5533 -1.0934 -0.6640
    8DOPE   O22  926   7.357   4.345   6.963  0.4788 -0.1422 -0.4511
    8DOPE   C22  927   7.401   4.552   6.857  0.3385 -0.1708  0.3312
    8DOPE   H2R  928   7.474   4.615   6.913  0.9560  0.8099 -1.4793
    8DOPE   H2S  929   7.334   4.618   6.797  1.0609 -1.4109 -1.9499
    8DOPE    C3  930   6.971   4.443   7.033 -0.1467  0.2639  0.2685
    8DOPE    HX  931   6.961   4.554   7.038  0.6205  0.3763 -0.3398
    8DOPE    HY  932   6.918   4.390   7.115 -0.2571 -0.6052 -0.3531
    8DOPE   O31  933   6.928   4.404   6.905  0.0620 -0.0065 -0.1977
    8DOPE   C31  934   6.809   4.458   6.864  0.0312  0.1463  0.2544
    8DOPE   O32  935   6.737   4.527   6.931  0.5425  0.6927 -0.2948
    8DOPE   C32  936   6.806   4.430   6.711  0.5400 -0.5777  0.1920
    8DOPE   H2X  937   6.891   4.491   6.674  1.5807 -0.9903  1.8010
    8DOPE   H2Y  938   6.812   4.321   6.694 -1.5190 -0.8612  0.9260
    8DOPE   C23  939   7.497   4.483   6.749 -0.1413 -0.3550  0.6254
    8DOPE   H3R  940   7.455   4.388   6.710  1.5444 -0.2902 -1.5852
    8DOPE   H3S  941   7.600   4.469   6.789 -1.1511  0.7068  3.8746
    8DOPE   C24  942   7.513   4.579   6.627 -0.5929 -0.2048 -0.3313
    8DOPE   H4R  943   7.552   4.678   6.661 -0.7505 -0.0092 -0.7134
    8DOPE   H4S  944   7.409   4.604   6.597 -0.2546  0.8708 -0.6769
    8DOPE   C25  945   7.593   4.526   6.506  0.2608  0.1886  0.0726
    8DOPE   H5R  946   7.551   4.424   6.494  0.3827 -0.0881  1.7830
    8DOPE   H5S  947   7.702   4.526   6.530  0.4126 -0.1169 -0.6073
    8DOPE   C26  948   7.569   4.601   6.378 -0.6886 -0.1322 -0.0270
    8DOPE   H6R  949   7.621   4.696   6.401 -2.4129  0.6098  1.0114
    8DOPE   H6S  950   7.469   4.636   6.344 -0.5858  0.9824  0.7678
    8DOPE   C27  951   7.639   4.537   6.258 -0.0385 -0.3804  0.1382
    8DOPE   H7R  952   7.593   4.438   6.238  0.6631 -0.8495  0.7979
    8DOPE   H7S  953   7.744   4.517   6.288 -0.1156 -2.0786 -0.5890
    8DOPE   C28  954   7.644   4.624   6.133 -0.5353  0.1222  0.6255
    8DOPE   H8R  955   7.698   4.716   6.165 -1.1854  0.6366  0.2711
    8DOPE   H8S  956   7.540   4.654   6.107 -0.6075  0.9243  1.7942
    8DOPE   C29  957   7.723   4.564   6.017 -0.1804 -0.7268 -0.1687
    8DOPE   H9R  958   7.667   4.485   5.964 -2.2687  0.4391  0.1909
    8DOPE  C210  959   7.840   4.605   5.970  0.1934 -0.4602  0.6680
    8DOPE  H10R  960   7.884   4.566   5.877  0.3782  0.0926  0.5226
    8DOPE  C211  961   7.912   4.719   6.036  0.0631 -0.2879  0.0400
    8DOPE  H11R  962   8.021   4.699   6.025 -0.1357 -1.4903  0.1627
    8DOPE  H11S  963   7.900   4.726   6.146  1.2394  1.3590  0.0945
    8DOPE  C212  964   7.877   4.865   5.990 -0.0627 -0.6763 -0.8307
    8DOPE  H12R  965   7.936   4.941   6.045 -1.1121 -0.6084  0.2400
    8DOPE  H12S  966   7.768   4.877   6.005  0.3867  0.7278  1.8008
    8DOPE  C213  967   7.906   4.888   5.844 -0.2266 -0.1511  0.0118
    8DOPE  H13R  968   7.875   4.804   5.778  0.8939 -0.2495 -0.4277
    8DOPE  H13S  969   8.016   4.884   5.827 -0.1891  1.0980 -0.0843
    8DOPE  C214  970   7.849   5.024   5.798  0.2282  0.0926  0.3676
    8DOPE  H14R  971   7.862   5.099   5.879  0.4513  2.2020 -1.5294
    8DOPE  H14S  972   7.740   5.011   5.778  0.7149  0.1948 -2.9120
    8DOPE  C215  973   7.914   5.068   5.669  0.3776  0.4684  0.4384
    8DOPE  H15R  974   7.896   4.988   5.595  1.4560  1.7870 -1.3470
    8DOPE  H15S  975   8.024   5.082   5.683  0.4537 -1.2928  1.9854
    8DOPE  C216  976   7.856   5.200   5.615 -0.5875  0.7586 -0.9063
    8DOPE  H16R  977   7.857   5.271   5.701 -1.9951  0.2256 -0.4267
    8DOPE  H16S  978   7.752   5.172   5.590 -0.1023 -3.2341  0.8105
    8DOPE  C217  979   7.932   5.256   5.503 -0.6423 -0.7056  0.4065
    8DOPE  H17R  980   7.935   5.172   5.431  0.3607  0.3044 -0.7775
    8DOPE  H17S  981   8.037   5.276   5.534 -1.0950 -1.3250  2.5739
    8DOPE  C218  982   7.879   5.379   5.429 -0.4153  0.2801 -0.1394
    8DOPE  H18R  983   7.958   5.404   5.354  0.5537  1.1326  1.1261
    8DOPE  H18S  984   7.867   5.468   5.495  2.3031  1.1537 -0.6832
    8DOPE  H18T  985   7.787   5.361   5.369  0.0762  1.7391 -1.4319
    8DOPE   C33  986   6.672   4.475   6.650  0.4041  0.4208 -0.1716
    8DOPE   H3X  987   6.660   4.583   6.675  0.9906  2.0154 -5.5471
    8DOPE   H3Y  988   6.592   4.417   6.700  1.5552 -1.2841 -0.2155
    8DOPE   C34  989   6.676   4.457   6.497 -0.2491 -0.4203 -0.2242
    8DOPE   H4X  990   6.771   4.500   6.459  0.3843 -1.2307  0.4171
    8DOPE   H4Y  991   6.694   4.351   6.466  0.3629 -0.1965 -0.6431
    8DOPE   C35  992   6.547   4.499   6.423  0.0746  0.1132  0.1484
    8DOPE   H5X  993   6.460   4.435   6.452 -1.4310  2.3886  0.9403
    8DOPE   H5Y  994   6.557   4.475   6.315  0.5265  0.1308  0.1877
    8DOPE   C36  995   6.501   4.640   6.458 -0.5328 -0.0306 -0.0878
    8DOPE   H6X  996   6.589   4.709   6.464 -0.7421  0.1745  0.8172
    8DOPE   H6Y  997   6.454   4.638   6.559 -1.6156  2.4355 -0.4604
    8DOPE   C37  998   6.406   4.689   6.347 -0.0020 -0.1026 -1.0577
    8DOPE   H7X  999   6.388   4.796   6.370 -0.6309 -0.5319  0.5604
    8DOPE   H7Y 1000   6.463   4.696   6.252  0.2718  0.7253 -0.8382
    8DOPE   C38 1001   6.274   4.609   6.353 -0.5888  0.5158 -0.1515
    8DOPE   H8X 1002   6.237   4.609   6.458 -1.1369 -0.9311 -0.3173
    8DOPE   H8Y 1003   6.296   4.503   6.328  0.6886  0.2965  1.6891
    8DOPE   C39 1004   6.174   4.663   6.247  0.3214 -0.6443  0.0118
    8DOPE   H9X 1005   6.173   4.773   6.244  1.1028 -0.6417 -0.4103
    8DOPE  C310 1006   6.109   4.593   6.150 -0.2291  0.2376  0.3411
    8DOPE  H10X 1007   6.044   4.661   6.093 -1.3572 -0.2088  1.0477
    8DOPE  C311 1008   6.115   4.441   6.115 -0.3785 -0.3076  0.7031
    8DOPE  H11X 1009   6.098   4.440   6.005  0.7177 -0.3777  0.5228
    8DOPE  H11Y 1010   6.218   4.403   6.134 -0.4093  0.1125  1.7420
    8DOPE  C312 1011   6.008   4.352   6.172  0.3990 -0.7093 -0.9405
    8DOPE  H12X 1012   5.909   4.378   6.128 -0.8388 -2.9797  0.2845
    8DOPE  H12Y 1013   5.999   4.381   6.279 -2.0323 -2.8367 -0.4546
    8DOPE  C313 1014   6.034   4.202   6.159 -0.0628 -0.3259  0.3380
    8DOPE  H13X 1015   6.025   4.178   6.050  0.7186 -0.9883  0.4041
    8DOPE  H13Y 1016   6.138   4.181   6.190 -0.3521 -0.5337  1.1777
    8DOPE  C314 1017   5.937   4.110   6.233 -0.1189 -0.2206  0.1600
    8DOPE  H14X 1018   5.952   4.132   6.341  0.6605 -1.2858  0.2830
    8DOPE  H14Y 1019   5.970   4.006   6.211  1.7384  0.3623  0.0136
    8DOPE  C315 1020   5.785   4.116   6.202  0.1157  0.1703  0.9471
    8DOPE  H15X 1021   5.760   4.044   6.121  0.5562  0.0900  0.8829
    8DOPE  H15Y 1022   5.756   4.220   6.174  1.1208  0.0609 -0.6126
    8DOPE  C316 1023   5.692   4.079   6.314 -0.6694 -0.4979 -0.6274
    8DOPE  H16X 1024   5.700   4.156   6.393 -0.1329 -0.3415 -0.8300
    8DOPE  H16Y 1025   5.725   3.978   6.349 -0.0324 -0.0092  0.2083
    8DOPE  C317 1026   5.541   4.083   6.288 -0.1196  0.1989 -0.6649
    8DOPE  H17X 1027   5.513   4.179   6.240  1.0414 -0.0043 -1.8113
    8DOPE  H17Y 1028   5.525   3.996   6.220  0.3869  1.2176 -2.1371
    8DOPE  C318 1029   5.457   4.039   6.415  1.0354 -0.0479 -0.4548
    8DOPE  H18X 1030   5.447   3.928   6.417  0.8545 -0.0370  1.3356
    8DOPE  H18Y 1031   5.356   4.084   6.411  0.5308 -0.6230  2.5915
    8DOPE  H18Z 1032   5.519   4.068   6.502  0.7613 -1.5118  0.2746
    9DOPE     N 1033   2.470   3.877   7.181 -0.0405 -0.2955  0.4164
    9DOPE   HN1 1034   2.562   3.888   7.133 -0.1615  1.1988  0.4830
    9DOPE   HN2 1035   2.479   3.797   7.246  1.6087  1.3321  2.3296
    9DOPE   HN3 1036   2.399   3.855   7.108 -0.5061  0.2243  0.7067
    9DOPE   C12 1037   2.436   3.995   7.257 -0.4777 -0.1000 -0.7017
    9DOPE  H12A 1038   2.524   4.016   7.322  0.0682 -0.2541 -1.3829
    9DOPE  H12B 1039   2.352   3.980   7.328  0.0814 -0.3120 -0.0777
    9DOPE   C11 1040   2.402   4.121   7.174 -0.2771 -0.0305  0.0103
    9DOPE  H11A 1041   2.398   4.207   7.244  0.8690  0.8359 -0.9596
    9DOPE  H11B 1042   2.305   4.116   7.122  1.0110 -2.0416 -2.3794
    9DOPE     P 1043   2.481   4.247   6.963  0.2542  0.2982 -0.1641
    9DOPE   O13 1044   2.613   4.290   6.914  0.3626  0.4278  0.5194
    9DOPE   O14 1045   2.396   4.346   7.025  0.2144 -0.2325 -0.2194
    9DOPE   O11 1046   2.408   4.172   6.847  0.1597 -0.0614  0.4558
    9DOPE   O12 1047   2.499   4.122   7.070 -1.0902  0.0704  0.5464
    9DOPE    C1 1048   2.471   4.056   6.798  0.1249  0.7254 -0.4860
    9DOPE    HA 1049   2.404   3.968   6.813 -0.5921  1.1304 -1.2202
    9DOPE    HB 1050   2.561   4.025   6.856 -0.2757 -1.4580 -0.9329
    9DOPE    C2 1051   2.499   4.062   6.646 -0.3342  0.2859  0.7870
    9DOPE    HS 1052   2.547   3.964   6.622  0.2505  0.3141  1.7739
    9DOPE   O21 1053   2.584   4.178   6.614  0.3348 -0.1952 -0.0844
    9DOPE   C21 1054   2.717   4.147   6.619 -0.1299  0.0448 -0.1586
    9DOPE   O22 1055   2.767   4.033   6.643  0.3187 -0.0893 -0.0328
    9DOPE   C22 1056   2.801   4.274   6.597 -0.2870 -0.0584 -0.0509
    9DOPE   H2R 1057   2.902   4.237   6.625 -0.4991 -1.3411 -0.9316
    9DOPE   H2S 1058   2.754   4.349   6.665 -0.6966 -1.8006  1.7035
    9DOPE    C3 1059   2.366   4.069   6.577  0.2282 -0.7270  0.3519
    9DOPE    HX 1060   2.302   4.154   6.608  1.1027 -0.2860  0.9981
    9DOPE    HY 1061   2.311   3.977   6.606 -0.3671 -0.0002  1.6009
    9DOPE   O31 1062   2.383   4.052   6.438  0.0670 -0.7808  0.5242
    9DOPE   C31 1063   2.374   4.154   6.362 -0.1627 -0.9649  0.3343
    9DOPE   O32 1064   2.353   4.271   6.392 -0.0393  0.0151 -0.3380
    9DOPE   C32 1065   2.381   4.103   6.216 -0.0064  0.5836  0.0449
    9DOPE   H2X 1066   2.474   4.045   6.200  1.5520  2.8898  0.1946
    9DOPE   H2Y 1067   2.288   4.043   6.209  0.3416 -0.0641  0.8307
    9DOPE   C23 1068   2.802   4.309   6.449 -0.9251 -0.0206 -0.3082
    9DOPE   H3R 1069   2.883   4.384   6.438  0.1110 -0.8854  1.1225
    9DOPE   H3S 1070   2.703   4.353   6.423 -0.3385  1.0113 -0.8819
    9DOPE   C24 1071   2.834   4.193   6.356 -0.5643  0.4707 -1.3561
    9DOPE   H4R 1072   2.746   4.125   6.353 -0.6408  0.4422  0.4975
    9DOPE   H4S 1073   2.919   4.141   6.404  0.1212  1.5868 -1.3381
    9DOPE   C25 1074   2.894   4.232   6.218  0.9472 -0.3877  0.7078
    9DOPE   H5R 1075   2.941   4.138   6.182  1.4010 -0.5796  1.7766
    9DOPE   H5S 1076   2.968   4.315   6.223 -1.4424  2.2076 -2.2680
    9DOPE   C26 1077   2.775   4.278   6.125 -0.7419 -0.0969  0.4020
    9DOPE   H6R 1078   2.724   4.361   6.178  2.5830  0.7081  2.6392
    9DOPE   H6S 1079   2.698   4.198   6.118  0.1905 -1.0397  0.5829
    9DOPE   C27 1080   2.819   4.317   5.980  0.1257  0.0842 -0.8754
    9DOPE   H7R 1081   2.889   4.241   5.938 -0.1406 -1.1567  0.8526
    9DOPE   H7S 1082   2.875   4.411   5.995  0.4665 -0.4214  1.3744
    9DOPE   C28 1083   2.692   4.320   5.885  0.2523 -0.3913  0.4418
    9DOPE   H8R 1084   2.606   4.361   5.941 -0.4362  2.0725 -2.1969
    9DOPE   H8S 1085   2.656   4.220   5.855 -0.5527 -0.4068  1.4439
    9DOPE   C29 1086   2.702   4.420   5.772  0.1893 -0.0554 -0.3643
    9DOPE   H9R 1087   2.693   4.522   5.814  2.2574  0.3350 -0.7227
    9DOPE  C210 1088   2.743   4.408   5.646 -0.0294 -0.5013  0.3914
    9DOPE  H10R 1089   2.727   4.497   5.583 -1.3781 -1.3900 -0.6028
    9DOPE  C211 1090   2.791   4.283   5.582 -0.4792 -0.4707 -0.7857
    9DOPE  H11R 1091   2.796   4.195   5.650  0.2888 -0.8848 -1.3629
    9DOPE  H11S 1092   2.899   4.294   5.559 -0.7109  1.1956 -1.1968
    9DOPE  C212 1093   2.711   4.233   5.454 -0.6378 -0.4543 -0.1290
    9DOPE  H12R 1094   2.608   4.215   5.492  0.4108  0.1603  3.4176
    9DOPE  H12S 1095   2.741   4.135   5.410  0.0742  0.8746 -2.8350
    9DOPE  C213 1096   2.702   4.330   5.337  0.2011 -0.1752  0.3380
    9DOPE  H13R 1097   2.803   4.359   5.302 -0.1718  0.2990 -0.3579
    9DOPE  H13S 1098   2.649   4.423   5.367  1.6481  0.9152 -0.3370
    9DOPE  C214 1099   2.628   4.269   5.217  0.7679 -0.3415 -0.0839
    9DOPE  H14R 1100   2.531   4.230   5.256 -0.9444  1.3242 -2.3818
    9DOPE  H14S 1101   2.699   4.196   5.171  1.4897  0.6728 -0.6260
    9DOPE  C215 1102   2.605   4.370   5.106 -0.5013  0.2464 -0.5021
    9DOPE  H15R 1103   2.703   4.406   5.070  0.3385 -2.2182 -0.8991
    9DOPE  H15S 1104   2.541   4.451   5.147 -0.6764 -0.5378  0.8508
    9DOPE  C216 1105   2.540   4.306   4.984 -0.7628 -0.3409  0.0946
    9DOPE  H16R 1106   2.449   4.245   5.005 -1.1430 -0.6118 -2.0691
    9DOPE  H16S 1107   2.610   4.238   4.930 -0.2241 -0.4549  0.9167
    9DOPE  C217 1108   2.516   4.412   4.871 -0.5217 -0.3640  0.2478
    9DOPE  H17R 1109   2.612   4.436   4.821 -0.9798 -0.9422 -0.9504
    9DOPE  H17S 1110   2.466   4.507   4.901  0.4379 -0.4439  2.2292
    9DOPE  C218 1111   2.447   4.338   4.752  0.0155 -0.3478 -0.0559
    9DOPE  H18R 1112   2.508   4.266   4.693  0.4974  0.5643 -0.7031
    9DOPE  H18S 1113   2.414   4.413   4.677  0.0794 -2.0556 -1.8798
    9DOPE  H18T 1114   2.358   4.284   4.789  1.7859 -3.5226 -0.0886
    9DOPE   C33 1115   2.387   4.213   6.111  0.4732  0.1283  0.0577
    9DOPE   H3X 1116   2.487   4.259   6.121  0.5493 -0.0368  0.0565
    9DOPE   H3Y 1117   2.308   4.286   6.141  1.0920  0.4783  0.8750
    9DOPE   C34 1118   2.369   4.158   5.965  0.7744 -0.0163 -0.1304
    9DOPE   H4X 1119   2.466   4.138   5.916  1.1158  1.1605  0.0425
    9DOPE   H4Y 1120   2.306   4.066   5.974 -1.3714  1.4553  0.8393
    9DOPE   C35 1121   2.283   4.256   5.870  0.0585  0.3509 -0.3500
    9DOPE   H5X 1122   2.324   4.354   5.902 -0.0785 -0.0663  1.2008
    9DOPE   H5Y 1123   2.173   4.258   5.884 -0.0272 -0.2346 -0.8903
    9DOPE   C36 1124   2.306   4.215   5.723 -0.0855  0.1134  0.2879
    9DOPE   H6X 1125   2.309   4.105   5.704 -0.9251  0.0712  0.3482
    9DOPE   H6Y 1126   2.405   4.258   5.698  0.5760 -1.6345 -0.3084
    9DOPE   C37 1127   2.209   4.285   5.621 -0.4044  0.5055  0.3153
    9DOPE   H7X 1128   2.112   4.231   5.629 -0.5599  0.9644  1.9617
    9DOPE   H7Y 1129   2.195   4.390   5.656  0.2094  0.6014  0.2811
    9DOPE   C38 1130   2.279   4.306   5.479  0.6542 -0.2267 -0.6524
    9DOPE   H8X 1131   2.313   4.214   5.428  1.9750  0.7608 -1.6168
    9DOPE   H8Y 1132   2.372   4.361   5.506 -0.0628 -0.1572  1.9106
    9DOPE   C39 1133   2.180   4.380   5.390  0.2785 -0.0677 -0.0178
    9DOPE   H9X 1134   2.168   4.484   5.424 -0.3964 -0.4963  1.0987
    9DOPE  C310 1135   2.121   4.333   5.277 -0.1449 -0.5322 -0.1174
    9DOPE  H10X 1136   2.039   4.393   5.235  0.0819  0.5361  0.9172
    9DOPE  C311 1137   2.140   4.194   5.220  0.3562 -0.6512  0.3880
    9DOPE  H11X 1138   2.246   4.163   5.234  0.3612 -1.3186 -0.9358
    9DOPE  H11Y 1139   2.066   4.125   5.266 -1.8462  0.8055 -0.7638
    9DOPE  C312 1140   2.112   4.187   5.072  0.7410  0.0469  0.4602
    9DOPE  H12X 1141   2.193   4.235   5.013  3.2709 -3.2073  1.0141
    9DOPE  H12Y 1142   2.020   4.243   5.043 -0.5488 -3.1777 -2.2252
    9DOPE  C313 1143   2.099   4.045   5.012  0.2040 -0.3497 -0.3135
    9DOPE  H13X 1144   2.195   3.995   5.036  1.3006  1.8292  0.0486
    9DOPE  H13Y 1145   2.021   3.986   5.064  0.1555 -1.0111 -1.1111
    9DOPE  C314 1146   2.074   4.044   4.858 -0.2432  0.3440  0.4177
    9DOPE  H14X 1147   2.166   4.039   4.795 -1.1951 -1.5202 -0.9394
    9DOPE  H14Y 1148   2.021   4.139   4.838  1.2083  1.1882  0.4056
    9DOPE  C315 1149   2.000   3.920   4.796 -0.3199 -0.0722 -0.1623
    9DOPE  H15X 1150   2.026   3.927   4.688 -2.4544  1.1925 -0.6442
    9DOPE  H15Y 1151   1.890   3.925   4.807 -0.1549 -0.8194  2.5866
    9DOPE  C316 1152   2.053   3.785   4.840 -0.5362 -0.1111  0.2174
    9DOPE  H16X 1153   2.052   3.776   4.951  2.0837  1.6414  0.4525
    9DOPE  H16Y 1154   2.162   3.796   4.823 -0.5473 -2.0254 -1.5584
    9DOPE  C317 1155   2.001   3.671   4.754 -0.3348  0.7045  0.2922
    9DOPE  H17X 1156   2.049   3.681   4.655 -1.2466 -0.7076 -0.3230
    9DOPE  H17Y 1157   2.039   3.571   4.784  1.4649  1.0260 -0.7836
    9DOPE  C318 1158   1.852   3.664   4.740  0.6918  0.5092 -0.9809
    9DOPE  H18X 1159   1.830   3.582   4.667 -1.7727  0.5114 -0.3080
    9DOPE  H18Y 1160   1.804   3.648   4.839 -0.3427  0.9694 -1.4003
    9DOPE  H18Z 1161   1.814   3.762   4.705  0.7432  0.6582 -0.6272
   10DOPE     N 1162   2.933   5.286   7.262 -0.0941 -0.0548 -0.7719
   10DOPE   HN1 1163   2.938   5.387   7.288  0.9227 -0.4895  0.8462
   10DOPE   HN2 1164   2.929   5.242   7.356  0.5638  1.4895  0.0189
   10DOPE   HN3 1165   3.019   5.261   7.209 -0.3402 -1.3349 -0.5976
   10DOPE   C12 1166   2.802   5.260   7.186 -0.6319  0.3165 -0.2121
   10DOPE  H12A 1167   2.724   5.324   7.231 -1.2992  0.8424 -2.0249
   10DOPE  H12B 1168   2.773   5.154   7.203  0.5031 -0.0260 -0.3431
   10DOPE   C11 1169   2.804   5.301   7.042  0.5361  0.0618  0.5602
   10DOPE  H11A 1170   2.859   5.397   7.032  1.7788 -0.3297  2.8143
   10DOPE  H11B 1171   2.702   5.334   7.013  1.2555  2.0160  0.1253
   10DOPE     P 1172   2.892   5.220   6.818  0.4262 -0.2599  0.0249
   10DOPE   O13 1173   3.027   5.281   6.818 -0.3788 -0.1198  0.0978
   10DOPE   O14 1174   2.786   5.305   6.752  0.2976 -0.2265  0.4900
   10DOPE   O11 1175   2.909   5.072   6.750  0.1090 -0.1936 -0.2742
   10DOPE   O12 1176   2.843   5.189   6.962 -0.6673 -0.0426 -0.0769
   10DOPE    C1 1177   2.790   4.994   6.751  0.4453  0.2342  0.1302
   10DOPE    HA 1178   2.732   5.040   6.668  1.3487  1.2910  0.0725
   10DOPE    HB 1179   2.744   4.983   6.851  0.4827 -0.4560  0.0771
   10DOPE    C2 1180   2.813   4.849   6.702  0.1538  0.3601 -0.4792
   10DOPE    HS 1181   2.891   4.803   6.767 -0.5719 -1.9206 -1.1171
   10DOPE   O21 1182   2.853   4.850   6.564  0.1368  0.9027 -0.0124
   10DOPE   C21 1183   2.903   4.738   6.512 -0.0686  0.2999 -1.0384
   10DOPE   O22 1184   2.923   4.632   6.572 -0.0367 -0.2048 -0.2050
   10DOPE   C22 1185   2.947   4.768   6.368 -0.0570 -0.3092 -1.1057
   10DOPE   H2R 1186   3.056   4.788   6.369 -0.1128  0.0058 -1.1471
   10DOPE   H2S 1187   2.906   4.863   6.329  0.0955  0.0994 -0.3005
   10DOPE    C3 1188   2.678   4.765   6.732 -0.0560  0.3401  1.4084
   10DOPE    HX 1189   2.652   4.759   6.840 -0.5350  2.3410  1.4484
   10DOPE    HY 1190   2.691   4.661   6.695 -1.4652  0.2326  1.1734
   10DOPE   O31 1191   2.573   4.815   6.645  0.5235 -0.0206  0.3381
   10DOPE   C31 1192   2.460   4.840   6.706  0.2434 -0.2124 -0.0646
   10DOPE   O32 1193   2.443   4.852   6.826  0.4649  0.3432 -0.7617
   10DOPE   C32 1194   2.355   4.875   6.603 -0.2988 -0.0930 -0.1441
   10DOPE   H2X 1195   2.304   4.783   6.565 -1.5667  0.4779  0.1155
   10DOPE   H2Y 1196   2.279   4.933   6.658  0.8530  0.5870  0.7692
   10DOPE   C23 1197   2.913   4.648   6.280  0.2930 -0.0356 -0.0223
   10DOPE   H3R 1198   2.802   4.641   6.273 -0.0002 -0.9995  3.5473
   10DOPE   H3S 1199   2.956   4.550   6.309 -0.8433  0.4115  3.6820
   10DOPE   C24 1200   2.979   4.669   6.146  0.0241 -0.1065 -0.0145
   10DOPE   H4R 1201   3.001   4.567   6.109  2.7591  0.1330  0.7790
   10DOPE   H4S 1202   3.077   4.720   6.153 -1.2357  2.4301  0.3312
   10DOPE   C25 1203   2.882   4.737   6.044 -0.3066 -0.2467  0.3919
   10DOPE   H5R 1204   2.867   4.843   6.073 -0.4098 -0.3998  0.9104
   10DOPE   H5S 1205   2.785   4.685   6.054 -0.9919  0.8057 -0.5840
   10DOPE   C26 1206   2.942   4.720   5.901  0.0404 -1.1464 -0.0195
   10DOPE   H6R 1207   2.949   4.611   5.880 -1.5527 -1.5242  1.1541
   10DOPE   H6S 1208   3.045   4.759   5.908 -0.1650 -0.5734 -0.1256
   10DOPE   C27 1209   2.856   4.799   5.796  0.0129  0.0373  0.6728
   10DOPE   H7R 1210   2.849   4.907   5.820 -1.5386  0.1627 -0.2260
   10DOPE   H7S 1211   2.753   4.759   5.805 -0.2406  1.0515  2.9128
   10DOPE   C28 1212   2.898   4.786   5.650  1.1563  0.2101  0.4873
   10DOPE   H8R 1213   2.823   4.846   5.595  0.3224 -0.5985  0.7170
   10DOPE   H8S 1214   2.897   4.682   5.612  3.1022  0.8868 -1.6507
   10DOPE   C29 1215   3.029   4.849   5.621 -0.2050  0.1025  0.0112
   10DOPE   H9R 1216   3.050   4.948   5.666  1.3274  0.4796 -1.3917
   10DOPE  C210 1217   3.135   4.787   5.558 -0.3247 -0.6341  0.0887
   10DOPE  H10R 1218   3.222   4.845   5.522 -1.4284 -0.0735 -1.8291
   10DOPE  C211 1219   3.125   4.656   5.490 -0.4396 -0.0263 -0.5277
   10DOPE  H11R 1220   3.136   4.666   5.379 -0.6042  1.0339 -0.4612
   10DOPE  H11S 1221   3.026   4.605   5.487 -0.1530 -0.6288  0.0583
   10DOPE  C212 1222   3.238   4.557   5.546  0.5346 -0.3653  0.8089
   10DOPE  H12R 1223   3.337   4.593   5.511 -0.3318 -0.1923 -1.7181
   10DOPE  H12S 1224   3.223   4.450   5.518  1.1764 -0.9244  2.4808
   10DOPE  C213 1225   3.242   4.541   5.700  0.1549 -0.2080  0.0823
   10DOPE  H13R 1226   3.143   4.521   5.746  0.2526 -0.4161  0.2050
   10DOPE  H13S 1227   3.271   4.641   5.740 -1.5268 -0.1091  1.1652
   10DOPE  C214 1228   3.334   4.427   5.750  0.0193 -0.2829  0.6119
   10DOPE  H14R 1229   3.433   4.435   5.700  1.0365 -0.6054  2.4846
   10DOPE  H14S 1230   3.303   4.328   5.711 -2.1427  0.5598  0.0541
   10DOPE  C215 1231   3.348   4.412   5.902 -0.1131  0.6517  0.3257
   10DOPE  H15R 1232   3.324   4.507   5.953 -0.7803 -0.4188  2.0984
   10DOPE  H15S 1233   3.451   4.385   5.933 -0.2265  1.6391  1.6484
   10DOPE  C216 1234   3.252   4.310   5.966 -0.0619 -0.5013  0.8744
   10DOPE  H16R 1235   3.266   4.213   5.913 -1.9315 -0.4458  0.2348
   10DOPE  H16S 1236   3.144   4.334   5.957 -0.0343 -0.6605  0.0248
   10DOPE  C217 1237   3.302   4.283   6.109  0.1893  0.6596  0.0638
   10DOPE  H17R 1238   3.410   4.258   6.103  0.2877  1.2848 -1.3236
   10DOPE  H17S 1239   3.250   4.189   6.139 -0.4444  0.8074 -0.5338
   10DOPE  C218 1240   3.268   4.392   6.212 -0.2084 -0.8115  0.5409
   10DOPE  H18R 1241   3.303   4.490   6.172  0.8776 -1.0466  0.8679
   10DOPE  H18S 1242   3.315   4.366   6.309 -0.1675 -1.1200  0.4430
   10DOPE  H18T 1243   3.158   4.404   6.221 -0.2536  0.2577 -0.9827
   10DOPE   C33 1244   2.412   4.967   6.489 -0.1997 -0.2785 -0.4739
   10DOPE   H3X 1245   2.465   5.056   6.530 -2.1545  1.1602 -0.9484
   10DOPE   H3Y 1246   2.328   5.023   6.443  1.3205  3.2781  0.7019
   10DOPE   C34 1247   2.487   4.895   6.371  0.3667 -0.4837 -0.4921
   10DOPE   H4X 1248   2.514   4.970   6.293  0.7216 -0.3295 -0.2254
   10DOPE   H4Y 1249   2.579   4.846   6.408  1.3322 -0.0975 -2.2710
   10DOPE   C35 1250   2.410   4.787   6.306 -0.1072  0.0688  0.1888
   10DOPE   H5X 1251   2.306   4.817   6.282 -0.4857 -1.4276 -0.1506
   10DOPE   H5Y 1252   2.384   4.709   6.382 -1.0947  1.4100  1.2765
   10DOPE   C36 1253   2.476   4.731   6.174 -0.2203  0.3046 -0.5973
   10DOPE   H6X 1254   2.562   4.662   6.189 -0.4120  0.1875 -0.0008
   10DOPE   H6Y 1255   2.515   4.815   6.114  2.0864 -1.0299 -1.0880
   10DOPE   C37 1256   2.376   4.681   6.064 -0.0306  0.0684 -0.1377
   10DOPE   H7X 1257   2.343   4.579   6.093  0.2604  0.0800  0.2436
   10DOPE   H7Y 1258   2.291   4.753   6.065  0.0879  0.2116 -0.2193
   10DOPE   C38 1259   2.428   4.681   5.919  0.7226 -0.4880 -0.1822
   10DOPE   H8X 1260   2.525   4.628   5.920  1.0081  0.0342  0.6497
   10DOPE   H8Y 1261   2.449   4.786   5.889 -0.6837  0.3677  1.6377
   10DOPE   C39 1262   2.325   4.627   5.819 -0.3756 -0.0842  0.4619
   10DOPE   H9X 1263   2.319   4.518   5.807 -0.1620  0.0218 -0.7310
   10DOPE  C310 1264   2.244   4.701   5.743  0.5304 -0.4589 -0.4669
   10DOPE  H10X 1265   2.163   4.664   5.679  0.3311 -0.2719 -0.3226
   10DOPE  C311 1266   2.228   4.853   5.742  0.0508  0.3231 -0.6824
   10DOPE  H11X 1267   2.125   4.886   5.717 -0.7289 -1.1684  0.3762
   10DOPE  H11Y 1268   2.254   4.895   5.841 -0.6969 -0.9232  0.0778
   10DOPE  C312 1269   2.325   4.917   5.640 -0.1294  0.3138  0.1396
   10DOPE  H12X 1270   2.432   4.896   5.662  0.3554  0.8485 -1.5569
   10DOPE  H12Y 1271   2.316   5.028   5.644 -2.2999  0.1562  1.4786
   10DOPE  C313 1272   2.306   4.885   5.483  0.0045  0.2804 -0.4951
   10DOPE  H13X 1273   2.197   4.873   5.466 -0.0451  1.8330 -1.3503
   10DOPE  H13Y 1274   2.345   4.976   5.434  1.2672  0.9092  1.5344
   10DOPE  C314 1275   2.384   4.763   5.427  0.2807  0.1472  0.0860
   10DOPE  H14X 1276   2.336   4.732   5.331 -0.1462  0.7858  0.0896
   10DOPE  H14Y 1277   2.383   4.678   5.500 -0.0037 -0.1413 -0.2481
   10DOPE  C315 1278   2.529   4.804   5.394 -0.0819 -0.3167 -0.0334
   10DOPE  H15X 1279   2.587   4.837   5.483  1.9402 -0.6895 -1.1553
   10DOPE  H15Y 1280   2.526   4.884   5.317 -0.1445  1.3523  1.6295
   10DOPE  C316 1281   2.606   4.683   5.335  0.3277  0.4850 -0.1985
   10DOPE  H16X 1282   2.559   4.653   5.239 -2.4024  0.2207  1.1097
   10DOPE  H16Y 1283   2.577   4.599   5.402  2.5914  0.8517  1.3721
   10DOPE  C317 1284   2.757   4.691   5.302 -0.3723 -0.6132  0.5841
   10DOPE  H17X 1285   2.808   4.702   5.400  0.4779  0.9446 -0.0024
   10DOPE  H17Y 1286   2.790   4.599   5.249 -0.5103 -1.0503  1.2383
   10DOPE  C318 1287   2.799   4.820   5.222 -0.6876 -0.7916  0.3081
   10DOPE  H18X 1288   2.728   4.838   5.138  0.0845  1.0464  0.0023
   10DOPE  H18Y 1289   2.806   4.906   5.292 -2.0581 -0.5289  0.1580
   10DOPE  H18Z 1290   2.902   4.815   5.180 -0.2692 -0.7551  1.3091
   11DOPE     N 1291   3.120   0.966   6.614  0.0746  0.2985 -0.5356
   11DOPE   HN1 1292   3.150   1.051   6.564 -0.3517  1.2832  0.8265
   11DOPE   HN2 1293   3.110   1.018   6.703  0.2656  0.3792 -0.5623
   11DOPE   HN3 1294   3.200   0.900   6.623  0.1552  0.5645  1.0024
   11DOPE   C12 1295   2.998   0.908   6.560  1.4214  0.0746  0.5297
   11DOPE  H12A 1296   3.025   0.852   6.468  1.7841 -1.7404  1.7097
   11DOPE  H12B 1297   2.921   0.986   6.540  1.4712  0.0439  0.2095
   11DOPE   C11 1298   2.937   0.805   6.655 -0.4512 -0.1000  0.4705
   11DOPE  H11A 1299   2.999   0.713   6.660  0.4051  0.4638  0.4623
   11DOPE  H11B 1300   2.841   0.774   6.608 -1.0550  3.3180 -0.8185
   11DOPE     P 1301   2.774   0.908   6.838 -0.1157  0.7059 -0.1238
   11DOPE   O13 1302   2.785   1.021   6.928 -0.6976 -0.7010  0.3167
   11DOPE   O14 1303   2.726   0.778   6.893  0.4594  0.3512  0.1134
   11DOPE   O11 1304   2.694   0.954   6.714  0.0647  0.7609 -0.4956
   11DOPE   O12 1305   2.914   0.863   6.780  0.1191  0.1592  0.3130
   11DOPE    C1 1306   2.599   0.873   6.647  0.1719 -0.1528  0.2357
   11DOPE    HA 1307   2.530   0.821   6.717  1.3814 -0.3555  1.3184
   11DOPE    HB 1308   2.643   0.786   6.593 -0.9456  1.5463 -3.8059
   11DOPE    C2 1309   2.516   0.949   6.552  0.6333 -0.5198  0.1316
   11DOPE    HS 1310   2.442   0.875   6.514  2.6156 -1.8907 -1.2633
   11DOPE   O21 1311   2.591   1.004   6.444  0.2400  0.4149  0.0054
   11DOPE   C21 1312   2.649   0.923   6.365  0.8892 -0.5623  0.1223
   11DOPE   O22 1313   2.637   0.802   6.360 -0.4204  0.2079  0.3152
   11DOPE   C22 1314   2.744   1.000   6.271  0.2670 -0.0106  0.0346
   11DOPE   H2R 1315   2.815   0.923   6.237 -0.9146 -2.6379  2.9502
   11DOPE   H2S 1316   2.803   1.073   6.330 -0.5536  1.4754 -0.9100
   11DOPE    C3 1317   2.434   1.067   6.622 -0.0115 -0.8452 -0.0577
   11DOPE    HX 1318   2.501   1.136   6.677 -0.6399 -1.9646  2.2088
   11DOPE    HY 1319   2.374   1.018   6.701 -1.7951  1.2187 -0.0292
   11DOPE   O31 1320   2.352   1.132   6.526 -0.0724  0.3526 -0.3544
   11DOPE   C31 1321   2.413   1.230   6.459 -0.3970 -0.4231  0.3053
   11DOPE   O32 1322   2.519   1.281   6.490  0.2217 -0.0669  0.7922
   11DOPE   C32 1323   2.323   1.286   6.347  0.7928  0.1776 -1.0070
   11DOPE   H2X 1324   2.280   1.210   6.278  1.3190  1.2175 -2.5322
   11DOPE   H2Y 1325   2.244   1.334   6.409  0.4631 -1.0048 -0.4873
   11DOPE   C23 1326   2.673   1.081   6.166  0.0057 -0.8799 -0.5711
   11DOPE   H3R 1327   2.667   1.188   6.196 -1.2342 -0.4226 -2.3244
   11DOPE   H3S 1328   2.572   1.036   6.151  0.2041 -1.5103 -0.0689
   11DOPE   C24 1329   2.729   1.098   6.021  0.0103  0.0975 -0.4520
   11DOPE   H4R 1330   2.760   1.003   5.972 -0.8074 -1.1418  1.3225
   11DOPE   H4S 1331   2.822   1.155   6.040  0.8401 -1.5824  0.7801
   11DOPE   C25 1332   2.637   1.184   5.933 -0.0769 -0.0130 -0.7424
   11DOPE   H5R 1333   2.625   1.286   5.975 -0.1236  0.3805 -1.6745
   11DOPE   H5S 1334   2.541   1.131   5.915  0.3316 -0.1635 -2.7483
   11DOPE   C26 1335   2.702   1.195   5.799 -0.5738  0.2900  0.0866
   11DOPE   H6R 1336   2.631   1.226   5.719  0.0623  0.6876 -0.3369
   11DOPE   H6S 1337   2.726   1.091   5.767 -0.4698  0.3781 -0.1189
   11DOPE   C27 1338   2.811   1.306   5.783 -0.0149 -0.3689 -0.5629
   11DOPE   H7R 1339   2.897   1.280   5.849 -0.8614 -2.4053 -0.1871
   11DOPE   H7S 1340   2.770   1.407   5.803 -0.0300 -0.7639  1.7385
   11DOPE   C28 1341   2.874   1.301   5.644 -0.2438  0.0547 -0.4711
   11DOPE   H8R 1342   2.943   1.388   5.639 -0.3372  0.0718 -1.9798
   11DOPE   H8S 1343   2.792   1.324   5.572 -2.9640  2.1161  2.9670
   11DOPE   C29 1344   2.937   1.165   5.617  0.4772 -0.1807  0.3638
   11DOPE   H9R 1345   3.027   1.145   5.678  2.0939 -0.5191 -2.0080
   11DOPE  C210 1346   2.910   1.080   5.509  0.3898 -0.7496 -0.8816
   11DOPE  H10R 1347   2.973   0.992   5.492  1.0947 -0.1032 -1.7382
   11DOPE  C211 1348   2.807   1.102   5.398 -0.9591  0.6417 -0.3650
   11DOPE  H11R 1349   2.841   1.049   5.307 -1.5143 -2.3092  1.0314
   11DOPE  H11S 1350   2.815   1.204   5.355  0.0023 -0.2627 -2.4696
   11DOPE  C212 1351   2.662   1.054   5.416 -0.2403 -0.8474  0.4502
   11DOPE  H12R 1352   2.611   1.123   5.487 -1.1837  0.7057 -1.6283
   11DOPE  H12S 1353   2.666   0.955   5.466  0.9740 -0.3369  1.4288
   11DOPE  C213 1354   2.576   1.073   5.288  0.5168 -0.1896 -0.4352
   11DOPE  H13R 1355   2.483   1.015   5.306  0.2463  0.5782  0.7634
   11DOPE  H13S 1356   2.631   1.025   5.204 -0.1073 -1.3605 -0.1985
   11DOPE  C214 1357   2.548   1.216   5.235  0.2092 -0.0950 -0.3981
   11DOPE  H14R 1358   2.644   1.268   5.218 -1.0565  2.0896 -1.2124
   11DOPE  H14S 1359   2.495   1.270   5.316 -0.5040  1.1057 -1.6163
   11DOPE  C215 1360   2.455   1.227   5.109  0.5020 -0.0851 -0.7185
   11DOPE  H15R 1361   2.368   1.160   5.128  0.8084 -1.1263 -2.6855
   11DOPE  H15S 1362   2.521   1.193   5.026  0.9342 -0.2443 -0.3079
   11DOPE  C216 1363   2.379   1.361   5.080  0.5654  0.1213 -0.0613
   11DOPE  H16R 1364   2.302   1.388   5.155 -0.5659  4.1039 -2.3691
   11DOPE  H16S 1365   2.315   1.349   4.991 -0.1130 -0.1858  0.4570
   11DOPE  C217 1366   2.491   1.466   5.044 -0.7812  0.2652  0.0353
   11DOPE  H17R 1367   2.552   1.411   4.970  1.7660  3.2591 -0.2883
   11DOPE  H17S 1368   2.566   1.472   5.126 -1.6148 -1.4115  0.9835
   11DOPE  C218 1369   2.442   1.603   5.017 -0.6923 -0.4776  0.5633
   11DOPE  H18R 1370   2.525   1.669   4.981 -1.7261  0.2893 -0.4981
   11DOPE  H18S 1371   2.413   1.655   5.111 -0.7483 -0.8583  0.7586
   11DOPE  H18T 1372   2.362   1.605   4.940 -0.2918  0.2467  0.1510
   11DOPE   C33 1373   2.394   1.402   6.275 -0.5388  0.9003  0.5524
   11DOPE   H3X 1374   2.479   1.362   6.215 -1.1220  1.6570 -0.8064
   11DOPE   H3Y 1375   2.435   1.475   6.348  0.2049  0.7926  0.2528
   11DOPE   C34 1376   2.303   1.477   6.184 -0.3684  0.3531  1.0854
   11DOPE   H4X 1377   2.206   1.496   6.236 -0.0972  0.7083  1.4689
   11DOPE   H4Y 1378   2.352   1.575   6.167 -0.1544  1.1826  5.4041
   11DOPE   C35 1379   2.293   1.403   6.048 -0.2508  0.0058  1.2593
   11DOPE   H5X 1380   2.265   1.297   6.068 -0.4620 -0.0677  0.6095
   11DOPE   H5Y 1381   2.391   1.409   5.995 -0.6157  0.2706  0.5931
   11DOPE   C36 1382   2.189   1.470   5.947  0.2114 -0.3799 -0.5505
   11DOPE   H6X 1383   2.094   1.453   6.003  0.0142 -0.6388 -0.9594
   11DOPE   H6Y 1384   2.175   1.411   5.854 -2.3551 -0.9914  0.1356
   11DOPE   C37 1385   2.205   1.617   5.913  0.1196  0.6114  0.1538
   11DOPE   H7X 1386   2.232   1.670   6.007  1.5847  0.2404 -0.0406
   11DOPE   H7Y 1387   2.287   1.607   5.839 -1.6839  0.8999 -2.0017
   11DOPE   C38 1388   2.086   1.671   5.855  0.0648 -0.0059  0.2034
   11DOPE   H8X 1389   2.005   1.673   5.931  0.6773  1.0085  0.8486
   11DOPE   H8Y 1390   2.051   1.592   5.786 -0.1748 -0.6503  1.0497
   11DOPE   C39 1391   2.086   1.804   5.780 -0.0601 -0.7331  0.0517
   11DOPE   H9X 1392   2.152   1.881   5.823  0.1675 -1.3038  0.7209
   11DOPE  C310 1393   2.028   1.832   5.665 -0.0241 -0.1550  1.0026
   11DOPE  H10X 1394   2.031   1.932   5.618 -2.2501 -1.0937 -1.4214
   11DOPE  C311 1395   1.949   1.734   5.585 -0.4643  1.2122  0.0611
   11DOPE  H11X 1396   1.906   1.653   5.647 -2.2516  1.2215 -1.0999
   11DOPE  H11Y 1397   1.857   1.787   5.551 -0.1130  0.1302 -2.8291
   11DOPE  C312 1398   2.017   1.672   5.464  0.0835 -0.4045 -0.0492
   11DOPE  H12X 1399   2.119   1.629   5.481 -0.4062 -2.1196 -1.1366
   11DOPE  H12Y 1400   2.031   1.762   5.400 -0.8515  0.9903  1.6214
   11DOPE  C313 1401   1.927   1.576   5.394  0.2314 -0.5418 -0.2042
   11DOPE  H13X 1402   1.893   1.506   5.473  2.4714 -0.2881  1.0507
   11DOPE  H13Y 1403   1.840   1.626   5.344  0.2168 -0.7842 -0.4263
   11DOPE  C314 1404   1.996   1.497   5.281 -0.3833  0.3533 -0.1366
   11DOPE  H14X 1405   1.947   1.397   5.284  0.3953 -0.1004  4.0982
   11DOPE  H14Y 1406   2.105   1.478   5.298 -0.0067  2.8823  0.7781
   11DOPE  C315 1407   1.974   1.543   5.142 -0.3494  0.1495 -0.1083
   11DOPE  H15X 1408   2.037   1.634   5.126 -2.2557  1.5056 -0.2022
   11DOPE  H15Y 1409   1.869   1.579   5.134 -0.9876 -1.7961 -1.1616
   11DOPE  C316 1410   1.979   1.436   5.032  0.0697  0.0198 -0.2144
   11DOPE  H16X 1411   1.887   1.374   5.040 -0.7351  1.4036  2.5505
   11DOPE  H16Y 1412   2.058   1.364   5.061 -0.1147 -0.1761 -0.1933
   11DOPE  C317 1413   1.980   1.500   4.890 -0.8356  0.6698  1.0645
   11DOPE  H17X 1414   1.888   1.561   4.881 -2.2897 -1.5881 -0.3400
   11DOPE  H17Y 1415   2.076   1.557   4.890  1.4999 -2.8297 -0.9689
   11DOPE  C318 1416   1.990   1.401   4.773  0.0599  0.2983 -0.0888
   11DOPE  H18X 1417   1.989   1.464   4.681 -1.7383 -0.5904 -0.7245
   11DOPE  H18Y 1418   2.070   1.324   4.783 -1.6831 -1.3488  1.8751
   11DOPE  H18Z 1419   1.892   1.350   4.768 -0.7020  1.6501  0.4253
   12DOPE     N 1420   3.429   4.220   6.639  0.0746 -0.0140 -0.1164
   12DOPE   HN1 1421   3.451   4.269   6.728 -0.4171 -1.8022  1.0242
   12DOPE   HN2 1422   3.339   4.261   6.607 -1.2875 -1.7955  1.2697
   12DOPE   HN3 1423   3.422   4.117   6.646 -2.5942  0.2321  2.2755
   12DOPE   C12 1424   3.548   4.241   6.544  0.0807 -0.2290  0.0725
   12DOPE  H12A 1425   3.547   4.351   6.529 -1.3866 -0.3161 -0.6006
   12DOPE  H12B 1426   3.521   4.181   6.455  0.3542 -1.4245  0.7665
   12DOPE   C11 1427   3.679   4.193   6.601 -0.7687 -0.4864  0.0584
   12DOPE  H11A 1428   3.757   4.210   6.523 -0.3202  1.0821  0.7982
   12DOPE  H11B 1429   3.671   4.083   6.611  1.5814 -0.8860 -1.5806
   12DOPE     P 1430   3.777   4.388   6.759  0.0287  0.3954 -0.1017
   12DOPE   O13 1431   3.916   4.365   6.804  0.5173  0.1666  0.2184
   12DOPE   O14 1432   3.693   4.464   6.853  0.0728  0.0193  0.2136
   12DOPE   O11 1433   3.766   4.451   6.614 -0.1839  0.6187 -0.2297
   12DOPE   O12 1434   3.708   4.251   6.726  0.3900 -0.0392 -0.5898
   12DOPE    C1 1435   3.785   4.587   6.596 -0.2902 -0.1588  0.6540
   12DOPE    HA 1436   3.850   4.597   6.507  1.3036 -0.2561  1.7701
   12DOPE    HB 1437   3.841   4.635   6.679  0.8242 -1.5491  0.7485
   12DOPE    C2 1438   3.659   4.673   6.582  1.1727 -0.0815  1.0229
   12DOPE    HS 1439   3.590   4.636   6.660 -2.0320  1.3891 -0.9290
   12DOPE   O21 1440   3.606   4.647   6.452  0.1782 -0.3412  0.3726
   12DOPE   C21 1441   3.481   4.677   6.427  0.0948  0.0808  0.3212
   12DOPE   O22 1442   3.394   4.687   6.513 -0.2852  0.1621  0.3929
   12DOPE   C22 1443   3.458   4.710   6.280  0.3531  0.6754  0.6534
   12DOPE   H2R 1444   3.480   4.818   6.267 -0.5903  0.5069 -4.5508
   12DOPE   H2S 1445   3.349   4.694   6.264  1.0921 -3.1026 -1.8093
   12DOPE    C3 1446   3.694   4.822   6.608  0.4351  0.2526  0.4407
   12DOPE    HX 1447   3.761   4.831   6.696  0.0640  1.8326  0.5875
   12DOPE    HY 1448   3.596   4.868   6.631  0.2657 -0.4945  1.2407
   12DOPE   O31 1449   3.758   4.889   6.498 -0.2964  0.2532  0.6812
   12DOPE   C31 1450   3.695   4.989   6.429 -0.5657 -0.2242 -0.4539
   12DOPE   O32 1451   3.585   5.033   6.453  0.1961  0.5282  0.1332
   12DOPE   C32 1452   3.793   5.062   6.334  0.2675  1.4623 -0.0466
   12DOPE   H2X 1453   3.731   5.146   6.298 -2.6785 -0.0819  1.0930
   12DOPE   H2Y 1454   3.871   5.109   6.398 -0.8341  0.0874  2.4806
   12DOPE   C23 1455   3.539   4.630   6.176 -0.3329  0.7153 -0.3331
   12DOPE   H3R 1456   3.486   4.536   6.152 -0.7896  0.9213 -0.1435
   12DOPE   H3S 1457   3.638   4.606   6.219  0.0555  1.7028 -0.6488
   12DOPE   C24 1458   3.559   4.712   6.049 -0.2481 -0.2831  0.4215
   12DOPE   H4R 1459   3.580   4.820   6.067  2.1752 -0.3701 -1.4253
   12DOPE   H4S 1460   3.468   4.712   5.985  0.1266  0.0742 -0.1185
   12DOPE   C25 1461   3.671   4.648   5.961  0.1466  0.5664 -0.0881
   12DOPE   H5R 1462   3.664   4.539   5.980  1.0633  0.6804  1.0321
   12DOPE   H5S 1463   3.768   4.695   5.990 -0.5520  0.8753  1.9212
   12DOPE   C26 1464   3.647   4.682   5.812  0.3343 -0.0889  0.7593
   12DOPE   H6R 1465   3.635   4.791   5.796  0.8134 -0.1402  0.0444
   12DOPE   H6S 1466   3.549   4.639   5.781  0.7129 -1.7280  1.7105
   12DOPE   C27 1467   3.754   4.637   5.711  0.3929  0.7885 -0.1976
   12DOPE   H7R 1468   3.768   4.527   5.719  0.4693  0.7020 -1.3350
   12DOPE   H7S 1469   3.851   4.686   5.732  0.3835  0.3941  0.8461
   12DOPE   C28 1470   3.700   4.661   5.567  0.2808  0.0244 -0.1446
   12DOPE   H8R 1471   3.699   4.770   5.549  1.3096 -0.0296 -0.5822
   12DOPE   H8S 1472   3.595   4.626   5.552 -0.2792  1.6766 -0.2615
   12DOPE   C29 1473   3.788   4.598   5.457 -0.0438 -0.1560  0.0286
   12DOPE   H9R 1474   3.869   4.665   5.425  0.0328 -0.2103  0.1103
   12DOPE  C210 1475   3.772   4.480   5.389 -0.6721  0.5101  0.2141
   12DOPE  H10R 1476   3.840   4.463   5.305 -0.6459 -0.5516  0.4374
   12DOPE  C211 1477   3.662   4.379   5.410 -0.0126  0.3922  0.1070
   12DOPE  H11R 1478   3.624   4.386   5.514  0.6238 -0.3958  0.4067
   12DOPE  H11S 1479   3.708   4.278   5.413  0.7755  0.6669 -1.4387
   12DOPE  C212 1480   3.562   4.373   5.297 -0.0704  0.4983  0.0410
   12DOPE  H12R 1481   3.606   4.382   5.195 -0.7173 -1.9008 -0.5082
   12DOPE  H12S 1482   3.497   4.463   5.309 -1.1567 -0.4120  1.3066
   12DOPE  C213 1483   3.457   4.265   5.303  0.3211 -0.0016 -0.1176
   12DOPE  H13R 1484   3.417   4.264   5.407  0.7863 -0.3715  0.0597
   12DOPE  H13S 1485   3.505   4.165   5.293  0.1982  0.0556 -1.4235
   12DOPE  C214 1486   3.342   4.276   5.194 -0.4250  0.8572 -0.6057
   12DOPE  H14R 1487   3.283   4.182   5.195 -0.3442  0.7817  1.0498
   12DOPE  H14S 1488   3.388   4.285   5.094  2.9965  0.4079  0.7804
   12DOPE  C215 1489   3.235   4.380   5.216  0.1472  0.2479 -0.4690
   12DOPE  H15R 1490   3.285   4.473   5.252 -1.4607  0.8615  0.2914
   12DOPE  H15S 1491   3.172   4.342   5.300  0.4774 -3.1454 -1.5944
   12DOPE  C216 1492   3.147   4.390   5.095  0.5471 -0.0890  0.1101
   12DOPE  H16R 1493   3.076   4.305   5.089  1.7364 -1.1711  0.9539
   12DOPE  H16S 1494   3.207   4.380   5.002 -0.8059  0.1813 -0.8276
   12DOPE  C217 1495   3.069   4.525   5.087 -0.1607 -0.0685  0.0404
   12DOPE  H17R 1496   3.144   4.607   5.086 -0.2333  0.0647  1.9547
   12DOPE  H17S 1497   3.004   4.543   5.175 -0.0171  0.8605 -0.0312
   12DOPE  C218 1498   2.985   4.546   4.968  0.1614 -0.2958  0.3808
   12DOPE  H18R 1499   3.034   4.531   4.869  0.9601  1.3404  0.4929
   12DOPE  H18S 1500   2.933   4.643   4.976  0.1864 -0.1898 -0.5567
   12DOPE  H18T 1501   2.901   4.473   4.971  0.1498 -0.3106 -0.2177
   12DOPE   C33 1502   3.840   4.980   6.215 -0.1039  0.5289  0.0414
   12DOPE   H3X 1503   3.756   4.935   6.157  1.2086  0.1785 -1.6419
   12DOPE   H3Y 1504   3.887   4.888   6.255 -3.3910 -0.5074  1.9360
   12DOPE   C34 1505   3.924   5.061   6.113 -0.5332 -0.0359  0.4667
   12DOPE   H4X 1506   3.867   5.129   6.046  2.2026  2.0407  0.0822
   12DOPE   H4Y 1507   3.995   5.117   6.177  1.5507 -3.1140  1.0847
   12DOPE   C35 1508   4.010   4.972   6.008  0.6041  0.6199 -0.3170
   12DOPE   H5X 1509   3.950   4.911   5.937 -0.1335 -1.3292  1.8561
   12DOPE   H5Y 1510   4.069   4.902   6.071  1.3077  0.9740 -0.5655
   12DOPE   C36 1511   4.110   5.056   5.930  0.1653  0.3304 -0.6282
   12DOPE   H6X 1512   4.190   5.077   6.004 -0.6505  0.5644  0.2166
   12DOPE   H6Y 1513   4.071   5.154   5.895  2.8372  1.2541 -1.2598
   12DOPE   C37 1514   4.175   4.980   5.810 -0.3632 -1.0346 -0.2663
   12DOPE   H7X 1515   4.182   4.875   5.846 -0.0722 -1.4514 -1.4975
   12DOPE   H7Y 1516   4.115   4.990   5.717 -0.1767 -2.4887 -0.5717
   12DOPE   C38 1517   4.323   5.011   5.774 -0.4310 -0.1741  0.1963
   12DOPE   H8X 1518   4.388   4.998   5.863 -0.6236 -0.0390  0.3580
   12DOPE   H8Y 1519   4.341   5.116   5.742  1.0236  0.2853  2.3378
   12DOPE   C39 1520   4.382   4.928   5.669 -0.3690 -0.0907 -0.2332
   12DOPE   H9X 1521   4.413   4.831   5.711  1.5440  1.2961  1.7968
   12DOPE  C310 1522   4.395   4.951   5.538  0.5117  0.0356 -0.2520
   12DOPE  H10X 1523   4.445   4.875   5.476  2.0255  0.9667 -0.2312
   12DOPE  C311 1524   4.357   5.079   5.463 -0.2635  0.0727  0.0063
   12DOPE  H11X 1525   4.266   5.066   5.401 -0.3463  0.6052  0.0055
   12DOPE  H11Y 1526   4.333   5.164   5.531 -1.2712  0.0530 -0.3062
   12DOPE  C312 1527   4.472   5.131   5.383 -0.1811 -0.4242  0.2910
   12DOPE  H12X 1528   4.501   5.065   5.299  0.3698  3.1104 -2.5653
   12DOPE  H12Y 1529   4.566   5.137   5.443 -0.2245 -1.4636  0.4720
   12DOPE  C313 1530   4.442   5.260   5.312  0.2404 -0.4856  0.1625
   12DOPE  H13X 1531   4.358   5.239   5.242 -0.2782 -0.5485  0.8025
   12DOPE  H13Y 1532   4.411   5.337   5.386  0.7955  1.2899 -1.3504
   12DOPE  C314 1533   4.566   5.310   5.230 -0.1235  0.6944 -0.1914
   12DOPE  H14X 1534   4.662   5.286   5.280  0.6254  1.0202 -1.4464
   12DOPE  H14Y 1535   4.567   5.420   5.221 -1.1118  0.7930  0.7189
   12DOPE  C315 1536   4.560   5.246   5.090 -0.0538  0.1819  0.2011
   12DOPE  H15X 1537   4.480   5.296   5.032 -0.3262  0.0216  0.4345
   12DOPE  H15Y 1538   4.543   5.136   5.096 -0.3811  0.0585 -2.1811
   12DOPE  C316 1539   4.702   5.269   5.022 -0.3554  0.0123  0.3735
   12DOPE  H16X 1540   4.775   5.211   5.082 -0.3494 -0.2137  0.1530
   12DOPE  H16Y 1541   4.723   5.378   5.014  0.0141 -0.1034 -0.4157
   12DOPE  C317 1542   4.708   5.218   4.875  0.3021 -0.3307  0.2276
   12DOPE  H17X 1543   4.680   5.111   4.885  1.9491 -0.6791  1.6316
   12DOPE  H17Y 1544   4.634   5.271   4.810  0.8321  2.0670  1.4587
   12DOPE  C318 1545   4.849   5.238   4.811 -0.5384  0.6320 -0.2903
   12DOPE  H18X 1546   4.926   5.185   4.870 -1.2166 -0.3221 -0.2319
   12DOPE  H18Y 1547   4.860   5.207   4.705  0.2530 -0.6233  0.1326
   12DOPE  H18Z 1548   4.882   5.344   4.813  3.2870 -0.4157 -0.4101
   13DOPE     N 1549   4.096   5.608   6.929  0.1323 -0.0091  0.2657
   13DOPE   HN1 1550   4.198   5.629   6.928  0.3659 -1.0188 -2.1339
   13DOPE   HN2 1551   4.052   5.634   7.020 -0.4163 -1.5967  0.4933
   13DOPE   HN3 1552   4.097   5.505   6.914  0.7813 -0.1473  1.1515
   13DOPE   C12 1553   4.024   5.672   6.808  0.0269 -0.9803  0.2803
   13DOPE  H12A 1554   4.084   5.650   6.717 -1.7438 -0.6072 -1.0396
   13DOPE  H12B 1555   4.027   5.782   6.822 -1.1431 -0.8688 -0.2746
   13DOPE   C11 1556   3.882   5.616   6.786 -1.0120  0.0765  0.0573
   13DOPE  H11A 1557   3.881   5.505   6.772 -0.9801  0.0119  0.5447
   13DOPE  H11B 1558   3.844   5.654   6.689  0.4081  0.9734 -0.1712
   13DOPE     P 1559   3.715   5.766   6.934  0.4337 -0.0030 -0.0310
   13DOPE   O13 1560   3.775   5.821   7.057 -0.1349 -0.2067  0.2385
   13DOPE   O14 1561   3.570   5.713   6.946 -0.5611 -0.0720 -0.5472
   13DOPE   O11 1562   3.729   5.867   6.817 -0.1484 -0.2624  0.6695
   13DOPE   O12 1563   3.804   5.641   6.898 -0.1767 -0.6922  0.1010
   13DOPE    C1 1564   3.792   5.991   6.821 -0.4978 -0.7071 -0.4625
   13DOPE    HA 1565   3.802   6.026   6.716 -3.2345 -0.3255 -0.6696
   13DOPE    HB 1566   3.892   5.982   6.869  0.8102  2.0511 -2.3760
   13DOPE    C2 1567   3.694   6.090   6.890 -0.4772  0.4077 -0.7660
   13DOPE    HS 1568   3.656   6.049   6.986 -1.3989 -0.8467 -1.6386
   13DOPE   O21 1569   3.579   6.102   6.802 -0.1915  0.2056 -0.1870
   13DOPE   C21 1570   3.465   6.144   6.855  0.0931  0.4754 -0.0240
   13DOPE   O22 1571   3.444   6.169   6.973 -0.0346 -0.6546 -0.7120
   13DOPE   C22 1572   3.360   6.161   6.748  0.7618 -0.7481 -0.2075
   13DOPE   H2R 1573   3.261   6.184   6.792 -0.3948 -0.7136 -2.6271
   13DOPE   H2S 1574   3.352   6.064   6.695  1.2164 -0.8244 -0.1439
   13DOPE    C3 1575   3.772   6.216   6.913 -0.0284  0.3688  0.1137
   13DOPE    HX 1576   3.856   6.190   6.980  0.2418  1.5576  0.2660
   13DOPE    HY 1577   3.704   6.284   6.970  1.1829  1.9289 -0.2236
   13DOPE   O31 1578   3.821   6.284   6.794 -0.0559 -0.3977  0.5823
   13DOPE   C31 1579   3.762   6.391   6.744  0.1122  0.2679 -0.3442
   13DOPE   O32 1580   3.673   6.453   6.791 -0.2913  0.2273  0.0927
   13DOPE   C32 1581   3.835   6.436   6.622 -0.2441 -0.0470 -0.2184
   13DOPE   H2X 1582   3.836   6.547   6.608 -1.3050  0.2672  1.7831
   13DOPE   H2Y 1583   3.941   6.402   6.626  0.5716  2.2822  0.0965
   13DOPE   C23 1584   3.389   6.280   6.654 -0.6707 -0.8018 -0.1022
   13DOPE   H3R 1585   3.475   6.261   6.588 -1.7579  1.0243 -2.1864
   13DOPE   H3S 1586   3.410   6.373   6.711 -4.1768  0.2038 -0.1937
   13DOPE   C24 1587   3.276   6.325   6.568 -0.2840 -0.1131 -0.3961
   13DOPE   H4R 1588   3.196   6.373   6.628  0.4208  1.3747 -0.6066
   13DOPE   H4S 1589   3.240   6.236   6.511  0.5709  0.2078 -1.4853
   13DOPE   C25 1590   3.328   6.432   6.462 -0.5175  0.8333 -0.3479
   13DOPE   H5R 1591   3.429   6.403   6.427 -1.1448 -0.7509 -0.9139
   13DOPE   H5S 1592   3.343   6.516   6.534 -1.2264  0.3135  0.4239
   13DOPE   C26 1593   3.232   6.468   6.349  0.2229  0.0454 -0.0302
   13DOPE   H6R 1594   3.265   6.561   6.299  0.0409  1.6163  2.5969
   13DOPE   H6S 1595   3.126   6.482   6.376  0.5244 -0.3033  1.4198
   13DOPE   C27 1596   3.218   6.364   6.236  0.2353 -0.1972  0.2454
   13DOPE   H7R 1597   3.136   6.292   6.256  0.3420 -0.9365 -1.6978
   13DOPE   H7S 1598   3.312   6.304   6.226 -0.4583 -1.4755  1.1048
   13DOPE   C28 1599   3.171   6.428   6.096 -1.1094 -0.4246 -0.1421
   13DOPE   H8R 1600   3.074   6.479   6.112 -0.9086 -0.2525  0.5811
   13DOPE   H8S 1601   3.149   6.342   6.030  2.0132 -1.9847  0.6407
   13DOPE   C29 1602   3.269   6.524   6.033  0.0964  0.7503  0.3855
   13DOPE   H9R 1603   3.359   6.548   6.091 -0.2547  0.0552  1.2413
   13DOPE  C210 1604   3.251   6.589   5.915  0.2970  0.9594 -0.9732
   13DOPE  H10R 1605   3.320   6.668   5.881  2.3788 -0.2401  0.3001
   13DOPE  C211 1606   3.120   6.574   5.840 -0.2609 -0.3314  0.1853
   13DOPE  H11R 1607   3.089   6.677   5.814 -0.7556 -0.1346  1.4716
   13DOPE  H11S 1608   3.033   6.538   5.900 -0.3931  0.3086  0.3829
   13DOPE  C212 1609   3.131   6.493   5.714 -0.1668 -0.2807  0.7450
   13DOPE  H12R 1610   3.150   6.386   5.737 -1.1146 -0.6089  0.0811
   13DOPE  H12S 1611   3.211   6.533   5.649 -1.5924  0.9165 -0.3414
   13DOPE  C213 1612   3.003   6.488   5.635  0.0640  0.3615  0.4961
   13DOPE  H13R 1613   2.919   6.447   5.695  0.6188 -0.6759  0.5857
   13DOPE  H13S 1614   3.012   6.401   5.567  1.0298 -0.5144  1.7193
   13DOPE  C214 1615   2.971   6.613   5.549  0.3835  0.4478 -0.8317
   13DOPE  H14R 1616   3.070   6.651   5.517  0.2133  1.3414 -0.3485
   13DOPE  H14S 1617   2.927   6.684   5.623  2.9176 -0.5229  1.7791
   13DOPE  C215 1618   2.883   6.587   5.431  0.6312 -0.6958 -0.5671
   13DOPE  H15R 1619   2.789   6.542   5.470 -0.5267  1.9411 -0.1315
   13DOPE  H15S 1620   2.938   6.522   5.360 -0.3605 -1.9933 -0.1873
   13DOPE  C216 1621   2.844   6.709   5.354 -0.2315  0.3645  0.5667
   13DOPE  H16R 1622   2.937   6.767   5.340  0.2746 -0.6591 -0.4901
   13DOPE  H16S 1623   2.776   6.770   5.417  0.8518  1.8505  0.3271
   13DOPE  C217 1624   2.782   6.693   5.214  0.1529  0.1942  0.1572
   13DOPE  H17R 1625   2.856   6.634   5.156 -0.4138 -0.5431  0.1685
   13DOPE  H17S 1626   2.772   6.787   5.155  2.5180 -0.1147 -0.8359
   13DOPE  C218 1627   2.649   6.616   5.217  0.1122 -0.1823 -0.2553
   13DOPE  H18R 1628   2.666   6.510   5.244 -1.0432 -0.3725 -0.2484
   13DOPE  H18S 1629   2.606   6.634   5.116 -1.1932 -0.6418  0.2047
   13DOPE  H18T 1630   2.581   6.666   5.290 -1.5877 -0.3178 -1.6805
   13DOPE   C33 1631   3.763   6.367   6.506 -0.4181 -0.3076  0.0733
   13DOPE   H3X 1632   3.668   6.419   6.483  0.6441  1.9793  0.6024
   13DOPE   H3Y 1633   3.729   6.263   6.527 -2.3735  0.3801  0.5016
   13DOPE   C34 1634   3.836   6.362   6.369 -0.0682  0.6753 -0.0467
   13DOPE   H4X 1635   3.888   6.459   6.359 -2.1323  1.7460 -0.9877
   13DOPE   H4Y 1636   3.917   6.286   6.376 -0.8384 -0.1031  0.7335
   13DOPE   C35 1637   3.734   6.352   6.248 -0.4650 -0.1490 -0.1260
   13DOPE   H5X 1638   3.648   6.421   6.260 -1.4063 -1.3682  0.3373
   13DOPE   H5Y 1639   3.697   6.248   6.253 -1.0498  0.0468 -0.3164
   13DOPE   C36 1640   3.802   6.369   6.111  0.4226 -0.1011 -0.8596
   13DOPE   H6X 1641   3.904   6.325   6.108  0.2742 -0.6945  1.1041
   13DOPE   H6Y 1642   3.803   6.478   6.088  0.2766 -0.2713 -1.7023
   13DOPE   C37 1643   3.717   6.302   6.004  0.2386 -0.0283  0.3613
   13DOPE   H7X 1644   3.710   6.194   6.031 -0.6897  0.1719  1.0033
   13DOPE   H7Y 1645   3.612   6.338   6.012  0.4977  0.3967  2.1775
   13DOPE   C38 1646   3.779   6.321   5.861 -0.2904  0.7202  0.2269
   13DOPE   H8X 1647   3.745   6.240   5.793  0.8660  0.2918  0.1418
   13DOPE   H8Y 1648   3.889   6.308   5.870 -0.0963  2.0132 -0.1487
   13DOPE   C39 1649   3.756   6.455   5.808  0.4834  0.3542  0.8176
   13DOPE   H9X 1650   3.837   6.528   5.826  0.1418  1.2190 -0.9212
   13DOPE  C310 1651   3.654   6.489   5.733 -0.2632  0.2941  0.4751
   13DOPE  H10X 1652   3.650   6.591   5.694  0.0191  0.1197 -0.0240
   13DOPE  C311 1653   3.532   6.400   5.689  0.4951  0.4441  0.4339
   13DOPE  H11X 1654   3.543   6.298   5.730  2.5627 -0.7194 -2.7180
   13DOPE  H11Y 1655   3.435   6.443   5.723 -0.0225  0.7598 -1.3584
   13DOPE  C312 1656   3.518   6.384   5.534 -0.0877 -0.2731  0.7884
   13DOPE  H12X 1657   3.508   6.485   5.487 -1.8034 -1.5340 -1.7958
   13DOPE  H12Y 1658   3.436   6.316   5.504 -0.5170 -0.8638  3.1124
   13DOPE  C313 1659   3.644   6.337   5.454 -0.0907 -0.3155 -1.2536
   13DOPE  H13X 1660   3.733   6.392   5.492 -2.0711  1.8618  0.5536
   13DOPE  H13Y 1661   3.647   6.231   5.486  3.0656  0.1533  0.3835
   13DOPE  C314 1662   3.623   6.343   5.301 -0.0642  1.0948  0.4009
   13DOPE  H14X 1663   3.524   6.304   5.268 -0.3663  2.4516 -0.3533
   13DOPE  H14Y 1664   3.692   6.260   5.272 -0.2580  0.0387  2.7032
   13DOPE  C315 1665   3.653   6.482   5.243 -0.7429  0.0712  0.2495
   13DOPE  H15X 1666   3.748   6.521   5.287 -1.1028 -0.8461  1.9278
   13DOPE  H15Y 1667   3.577   6.557   5.275  0.4558  1.6171 -0.3423
   13DOPE  C316 1668   3.646   6.476   5.089  0.5509 -0.6335 -0.5673
   13DOPE  H16X 1669   3.556   6.417   5.063 -1.5357  1.5612  1.2409
   13DOPE  H16Y 1670   3.736   6.417   5.059  0.8250  0.2712 -1.5733
   13DOPE  C317 1671   3.638   6.608   5.011 -0.3377 -0.3182 -0.1072
   13DOPE  H17X 1672   3.555   6.667   5.054 -0.7305 -0.7934 -0.2023
   13DOPE  H17Y 1673   3.729   6.670   5.028 -0.8688  1.2042 -2.4229
   13DOPE  C318 1674   3.608   6.581   4.861  0.5962  0.2047 -0.5519
   13DOPE  H18X 1675   3.679   6.509   4.816  0.5871 -0.4772  0.4851
   13DOPE  H18Y 1676   3.510   6.529   4.857  0.1767  0.8287  0.9775
   13DOPE  H18Z 1677   3.605   6.679   4.807  0.0129  0.6214  0.2058
   14DOPE     N 1678   0.749   3.953   7.201  0.4308  0.4823 -0.1147
   14DOPE   HN1 1679   0.830   3.951   7.136  2.1964 -0.0055  1.9517
   14DOPE   HN2 1680   0.667   3.924   7.144  1.3704 -0.6941 -0.9188
   14DOPE   HN3 1681   0.743   4.050   7.236  0.7944  0.4231  0.1221
   14DOPE   C12 1682   0.763   3.849   7.307  0.0698  0.4543 -0.4997
   14DOPE  H12A 1683   0.682   3.870   7.380  0.6768  0.5300  0.1645
   14DOPE  H12B 1684   0.865   3.849   7.351 -0.2603 -1.4998  0.4210
   14DOPE   C11 1685   0.756   3.716   7.241  0.0817 -0.4124  0.3466
   14DOPE  H11A 1686   0.771   3.641   7.322  1.8783  0.7687  1.1838
   14DOPE  H11B 1687   0.839   3.715   7.167 -1.6075  1.4163 -1.7277
   14DOPE     P 1688   0.555   3.552   7.173 -0.2206 -0.3209 -0.3866
   14DOPE   O13 1689   0.416   3.588   7.125  0.1942  0.2071 -0.3860
   14DOPE   O14 1690   0.570   3.496   7.304 -0.5825 -0.0401 -0.3154
   14DOPE   O11 1691   0.618   3.470   7.056  0.0293  0.4382 -0.0593
   14DOPE   O12 1692   0.639   3.688   7.165 -0.4374  0.3244 -0.3749
   14DOPE    C1 1693   0.756   3.461   7.024 -0.2449  0.5610  0.2687
   14DOPE    HA 1694   0.777   3.356   6.994  0.2788 -0.2458  3.1587
   14DOPE    HB 1695   0.817   3.478   7.115  0.7779 -0.2962 -0.2435
   14DOPE    C2 1696   0.794   3.565   6.917  0.5037 -0.1219  0.5022
   14DOPE    HS 1697   0.775   3.665   6.960  1.1913  1.4898 -2.6345
   14DOPE   O21 1698   0.718   3.545   6.798  0.3891 -0.6908  0.3872
   14DOPE   C21 1699   0.713   3.655   6.730 -0.4490  0.7078  0.2778
   14DOPE   O22 1700   0.762   3.762   6.756  0.3857  0.7380 -0.2888
   14DOPE   C22 1701   0.637   3.616   6.602 -0.4152  0.1334  0.4470
   14DOPE   H2R 1702   0.599   3.705   6.547  1.2872 -0.8799 -2.5780
   14DOPE   H2S 1703   0.545   3.562   6.634 -1.5409  2.5736  1.5602
   14DOPE    C3 1704   0.948   3.569   6.892  0.3470 -0.4463  0.0633
   14DOPE    HX 1705   0.984   3.585   6.996 -0.8153 -0.3383  0.4711
   14DOPE    HY 1706   0.967   3.662   6.835 -1.2411  0.5966  1.1310
   14DOPE   O31 1707   0.990   3.441   6.837 -0.0449 -0.4369 -0.4045
   14DOPE   C31 1708   1.049   3.442   6.724  0.1423  0.6970 -0.6126
   14DOPE   O32 1709   1.096   3.532   6.661  0.2561 -0.5211 -0.3379
   14DOPE   C32 1710   1.064   3.290   6.680  0.0151  0.1228  0.0596
   14DOPE   H2X 1711   1.082   3.232   6.773  0.2786 -2.3855 -1.4438
   14DOPE   H2Y 1712   0.964   3.261   6.641 -0.2884  0.7623  0.3580
   14DOPE   C23 1713   0.726   3.530   6.507 -0.2669  0.2739  0.2382
   14DOPE   H3R 1714   0.739   3.431   6.556 -3.4170 -1.8041 -2.5938
   14DOPE   H3S 1715   0.824   3.580   6.489 -0.0276 -0.2094  0.1581
   14DOPE   C24 1716   0.665   3.507   6.368  0.4505 -0.1463 -0.6326
   14DOPE   H4R 1717   0.632   3.606   6.327  1.0897  0.3589  0.0456
   14DOPE   H4S 1718   0.578   3.438   6.364  0.3460  0.0211 -1.5217
   14DOPE   C25 1719   0.778   3.447   6.270  0.3654 -0.4031 -0.1319
   14DOPE   H5R 1720   0.822   3.356   6.315  0.7159  0.0149  0.3849
   14DOPE   H5S 1721   0.861   3.521   6.277  0.4465 -0.3870 -1.1549
   14DOPE   C26 1722   0.720   3.423   6.133  0.2569  0.8552  0.1933
   14DOPE   H6R 1723   0.686   3.522   6.096 -0.0800  0.4251 -0.6640
   14DOPE   H6S 1724   0.632   3.358   6.151  0.5358  0.3629 -0.2030
   14DOPE   C27 1725   0.810   3.354   6.037 -0.6821  0.7147  0.1560
   14DOPE   H7R 1726   0.835   3.262   6.094 -0.1740 -0.6962 -2.1985
   14DOPE   H7S 1727   0.908   3.406   6.025 -0.5379  0.3508 -0.2739
   14DOPE   C28 1728   0.754   3.323   5.899  0.1739  0.6070  0.1889
   14DOPE   H8R 1729   0.673   3.252   5.925  0.8118 -0.3751 -0.4611
   14DOPE   H8S 1730   0.820   3.265   5.831  0.2338  0.2242  0.5654
   14DOPE   C29 1731   0.694   3.440   5.823 -0.8204  0.1512 -0.1570
   14DOPE   H9R 1732   0.584   3.426   5.824 -0.5553 -2.4478  1.1141
   14DOPE  C210 1733   0.747   3.546   5.765  0.6049  0.0928 -0.5322
   14DOPE  H10R 1734   0.676   3.624   5.732  0.3653  0.4836  0.8347
   14DOPE  C211 1735   0.890   3.580   5.766  0.1143 -0.1639  0.3113
   14DOPE  H11R 1736   0.927   3.576   5.662 -2.3264 -1.0176 -0.5902
   14DOPE  H11S 1737   0.946   3.498   5.816  0.1136  0.5914  1.6080
   14DOPE  C212 1738   0.916   3.713   5.835 -0.0314 -0.2025  0.4609
   14DOPE  H12R 1739   0.841   3.792   5.815  1.6296  1.1154 -0.8042
   14DOPE  H12S 1740   1.006   3.768   5.800 -0.6581  0.6395  0.1467
   14DOPE  C213 1741   0.946   3.703   5.990  0.2981 -0.5363  0.0342
   14DOPE  H13R 1742   1.024   3.629   6.020  0.1184 -0.6095  0.3192
   14DOPE  H13S 1743   0.854   3.663   6.036  1.1656 -1.4615  1.0201
   14DOPE  C214 1744   0.988   3.834   6.072  0.5748  0.2475 -0.3739
   14DOPE  H14R 1745   0.915   3.914   6.045 -1.6776 -0.0097  4.0910
   14DOPE  H14S 1746   1.090   3.871   6.048  0.6171  0.0649 -0.4764
   14DOPE  C215 1747   0.971   3.807   6.219 -0.1779 -0.3496 -0.0131
   14DOPE  H15R 1748   1.029   3.885   6.273 -1.3948  0.8379 -0.3748
   14DOPE  H15S 1749   1.021   3.708   6.230 -2.7778 -1.7169  0.0684
   14DOPE  C216 1750   0.836   3.813   6.287  0.6189 -0.1853 -0.2111
   14DOPE  H16R 1751   0.857   3.805   6.396 -0.6962 -0.1504  0.0566
   14DOPE  H16S 1752   0.774   3.728   6.251 -1.2505  0.5192  1.1785
   14DOPE  C217 1753   0.759   3.943   6.265 -0.3469 -0.0472  0.7136
   14DOPE  H17R 1754   0.654   3.923   6.298 -0.4227  2.4855  2.2657
   14DOPE  H17S 1755   0.751   3.957   6.155 -0.2820  1.0053  0.8341
   14DOPE  C218 1756   0.803   4.075   6.331  0.0886  0.1006  0.4222
   14DOPE  H18R 1757   0.754   4.166   6.290 -0.9511 -0.3587  0.6123
   14DOPE  H18S 1758   0.911   4.080   6.307 -0.3027 -0.1194 -1.6023
   14DOPE  H18T 1759   0.788   4.069   6.441  2.7113  2.7998  1.0410
   14DOPE   C33 1760   1.175   3.259   6.578  0.0174  0.2071  0.3718
   14DOPE   H3X 1761   1.218   3.156   6.579  2.0149  0.9708 -0.8682
   14DOPE   H3Y 1762   1.262   3.328   6.574 -0.1745  0.4533 -3.1104
   14DOPE   C34 1763   1.131   3.290   6.430  0.9619  0.5349 -0.0564
   14DOPE   H4X 1764   1.043   3.227   6.405  1.0411  0.1544  0.5933
   14DOPE   H4Y 1765   1.110   3.399   6.428  4.1927  1.2928  1.0566
   14DOPE   C35 1766   1.244   3.254   6.338 -0.7531 -0.6633  0.6680
   14DOPE   H5X 1767   1.288   3.156   6.368  1.6004  0.2133  0.3066
   14DOPE   H5Y 1768   1.319   3.336   6.338 -0.9547 -0.3792 -2.1111
   14DOPE   C36 1769   1.192   3.250   6.191 -0.5067 -0.3748 -0.2442
   14DOPE   H6X 1770   1.153   3.349   6.160  0.2526  0.5733  1.6844
   14DOPE   H6Y 1771   1.110   3.175   6.189  0.1592 -1.1030 -1.1076
   14DOPE   C37 1772   1.304   3.210   6.087  0.3098 -0.1763  0.8609
   14DOPE   H7X 1773   1.381   3.289   6.092 -0.2792  0.7217 -2.0794
   14DOPE   H7Y 1774   1.349   3.115   6.121  0.6965  0.0754  1.0613
   14DOPE   C38 1775   1.234   3.190   5.950  0.2377  0.0754 -0.2898
   14DOPE   H8X 1776   1.316   3.170   5.877  0.5451  1.1671 -0.2612
   14DOPE   H8Y 1777   1.190   3.288   5.923  1.5350  0.9382  0.6064
   14DOPE   C39 1778   1.133   3.078   5.930 -0.5337 -0.0363 -0.0499
   14DOPE   H9X 1779   1.131   3.004   6.010  0.3533  0.5649  0.5476
   14DOPE  C310 1780   1.055   3.071   5.816 -0.6933 -0.7203 -0.0753
   14DOPE  H10X 1781   0.987   2.984   5.813  0.7111 -1.9586  1.6625
   14DOPE  C311 1782   1.061   3.168   5.702 -0.4515  0.2252 -0.6835
   14DOPE  H11X 1783   1.018   3.263   5.739 -0.7692  0.1288 -0.8000
   14DOPE  H11Y 1784   1.167   3.187   5.673  1.0171 -0.9169  3.3226
   14DOPE  C312 1785   0.985   3.121   5.579  0.3172 -0.5124  0.1498
   14DOPE  H12X 1786   0.895   3.059   5.599 -0.6885  0.5239 -1.0286
   14DOPE  H12Y 1787   1.055   3.056   5.521 -0.6084 -0.1491 -1.4246
   14DOPE  C313 1788   0.944   3.237   5.481  0.5560  0.2961 -0.2983
   14DOPE  H13X 1789   0.858   3.290   5.528  0.1001 -1.1032  0.5097
   14DOPE  H13Y 1790   1.031   3.306   5.474  1.9905 -1.4086  0.0157
   14DOPE  C314 1791   0.918   3.194   5.337 -0.2478  0.1373  0.0755
   14DOPE  H14X 1792   1.007   3.136   5.306 -0.6923 -0.7814  0.4811
   14DOPE  H14Y 1793   0.913   3.274   5.260  2.1087  0.9874  0.7301
   14DOPE  C315 1794   0.786   3.121   5.334  0.1820 -0.0732  1.5298
   14DOPE  H15X 1795   0.709   3.181   5.386  0.0428  0.3902  0.8035
   14DOPE  H15Y 1796   0.793   3.032   5.399  0.7094  0.2677  1.9482
   14DOPE  C316 1797   0.723   3.094   5.195  0.3926 -0.4901  0.2618
   14DOPE  H16X 1798   0.791   3.048   5.120  2.4177  0.6951  1.2921
   14DOPE  H16Y 1799   0.699   3.196   5.158 -1.0863 -0.7083  0.5341
   14DOPE  C317 1800   0.600   3.011   5.189 -0.3779  0.7261 -0.2734
   14DOPE  H17X 1801   0.533   3.060   5.262 -0.9350 -0.2301 -0.1335
   14DOPE  H17Y 1802   0.560   3.020   5.085  0.6850 -0.5293 -0.8159
   14DOPE  C318 1803   0.621   2.863   5.211 -0.4049 -0.1290 -0.0447
   14DOPE  H18X 1804   0.668   2.857   5.312  1.1074 -2.1286 -0.7867
   14DOPE  H18Y 1805   0.523   2.814   5.224  0.0815 -1.0320  0.3260
   14DOPE  H18Z 1806   0.686   2.803   5.143 -0.4297  0.0959 -0.2656
   15DOPE     N 1807   2.217   0.873   7.419  0.2095  0.0089 -0.1703
   15DOPE   HN1 1808   2.253   0.781   7.385 -0.6654 -0.0173 -1.0820
   15DOPE   HN2 1809   2.282   0.913   7.489 -1.8174  0.6147  1.4544
   15DOPE   HN3 1810   2.144   0.845   7.488  1.7803 -1.9820  0.8253
   15DOPE   C12 1811   2.189   0.975   7.318 -0.5652 -0.7118 -0.1992
   15DOPE  H12A 1812   2.288   0.989   7.268 -0.9802 -1.1589 -1.1616
   15DOPE  H12B 1813   2.167   1.065   7.380  1.4142 -0.5111  0.2874
   15DOPE   C11 1814   2.084   0.937   7.206  0.0894  0.0515 -0.0051
   15DOPE  H11A 1815   2.138   0.867   7.139  0.0468 -0.1591  0.1811
   15DOPE  H11B 1816   2.065   1.026   7.142 -1.5568 -0.5659 -0.4401
   15DOPE     P 1817   1.829   0.939   7.280  0.1683  0.1734  0.1379
   15DOPE   O13 1818   1.844   1.053   7.371  0.4194  0.4915 -0.6641
   15DOPE   O14 1819   1.735   0.836   7.324  0.2494 -0.1761 -0.5325
   15DOPE   O11 1820   1.787   0.997   7.144 -0.0110 -0.1339  0.1972
   15DOPE   O12 1821   1.969   0.864   7.253 -0.1201 -0.5477  0.0555
   15DOPE    C1 1822   1.763   0.910   7.030 -0.3135 -0.1927  1.1499
   15DOPE    HA 1823   1.657   0.889   7.004  0.1345  0.6632 -1.7158
   15DOPE    HB 1824   1.811   0.811   7.043 -1.0476 -0.7141  0.0028
   15DOPE    C2 1825   1.840   0.958   6.901 -0.4936 -0.3905 -0.9283
   15DOPE    HS 1826   1.946   0.952   6.932 -1.4287  0.3591  2.9569
   15DOPE   O21 1827   1.786   1.080   6.849  0.0088  0.2388 -0.1035
   15DOPE   C21 1828   1.877   1.148   6.785  0.6478 -0.9784  0.0337
   15DOPE   O22 1829   1.998   1.136   6.787 -0.3208 -0.0187 -0.0109
   15DOPE   C22 1830   1.799   1.269   6.719 -0.0769  0.2756 -0.0524
   15DOPE   H2R 1831   1.799   1.354   6.791 -1.1007  0.4524 -0.2408
   15DOPE   H2S 1832   1.697   1.230   6.697  0.2953  0.5282 -2.4983
   15DOPE    C3 1833   1.825   0.843   6.792 -0.0477 -0.8797 -0.2233
   15DOPE    HX 1834   1.716   0.842   6.770 -0.2430  1.4848  0.2990
   15DOPE    HY 1835   1.860   0.746   6.833 -0.3356 -0.3876  1.2361
   15DOPE   O31 1836   1.893   0.869   6.673 -0.0756  0.2819 -0.4090
   15DOPE   C31 1837   2.030   0.855   6.676 -0.2091 -0.0096 -0.6191
   15DOPE   O32 1838   2.088   0.818   6.779 -0.1940  0.2589  0.4130
   15DOPE   C32 1839   2.103   0.905   6.554  0.0121  0.7938 -0.3748
   15DOPE   H2X 1840   2.085   1.014   6.539  2.3326  1.6419  2.1868
   15DOPE   H2Y 1841   2.210   0.877   6.563 -0.0865  1.0461  2.5838
   15DOPE   C23 1842   1.868   1.325   6.594  0.1816 -0.4097  0.5350
   15DOPE   H3R 1843   1.977   1.320   6.618  0.0430 -1.2352  1.0363
   15DOPE   H3S 1844   1.837   1.430   6.575  2.1104 -0.1313 -1.5595
   15DOPE   C24 1845   1.834   1.238   6.473  0.3117  0.0750 -0.0707
   15DOPE   H4R 1846   1.723   1.242   6.458  0.0821 -0.2274  1.4430
   15DOPE   H4S 1847   1.853   1.130   6.489 -0.7432 -0.5331 -2.3935
   15DOPE   C25 1848   1.909   1.295   6.349  0.2396 -0.8955  0.2952
   15DOPE   H5R 1849   1.951   1.211   6.289  1.9962 -0.2336  0.5349
   15DOPE   H5S 1850   1.999   1.345   6.391 -0.1679 -1.1689  1.5224
   15DOPE   C26 1851   1.821   1.390   6.269 -0.5082 -0.6489 -0.1000
   15DOPE   H6R 1852   1.886   1.446   6.199  2.0747 -2.0057  1.0365
   15DOPE   H6S 1853   1.780   1.473   6.331  0.3104 -0.7951  0.6665
   15DOPE   C27 1854   1.710   1.327   6.179  0.2836 -0.1404 -0.3331
   15DOPE   H7R 1855   1.639   1.279   6.249  1.2161  0.6880  1.2407
   15DOPE   H7S 1856   1.747   1.243   6.116  0.4429  0.7026 -1.3949
   15DOPE   C28 1857   1.630   1.436   6.109  0.7250  0.0157 -0.0265
   15DOPE   H8R 1858   1.622   1.523   6.178  2.2121  0.1558  0.0004
   15DOPE   H8S 1859   1.530   1.392   6.089  0.1684  1.2529 -0.0782
   15DOPE   C29 1860   1.697   1.474   5.980  0.2281 -0.6311  0.7762
   15DOPE   H9R 1861   1.773   1.552   5.989  0.3898 -0.8060  0.9406
   15DOPE  C210 1862   1.670   1.429   5.848  1.0370 -0.3915  0.1373
   15DOPE  H10R 1863   1.733   1.465   5.765  0.2850  0.8787  0.0954
   15DOPE  C211 1864   1.577   1.319   5.815 -0.0578  0.8285  0.2693
   15DOPE  H11R 1865   1.470   1.346   5.812 -0.3296 -0.1960  0.1328
   15DOPE  H11S 1866   1.577   1.237   5.890 -3.3264  0.8315  0.4154
   15DOPE  C212 1867   1.628   1.266   5.673  0.1960  0.0985  0.2261
   15DOPE  H12R 1868   1.564   1.175   5.670 -0.9542  0.9061 -0.4935
   15DOPE  H12S 1869   1.729   1.220   5.672  0.3413  0.4248 -0.3483
   15DOPE  C213 1870   1.593   1.342   5.548  0.1457  0.8225  1.3162
   15DOPE  H13R 1871   1.652   1.436   5.539  0.1611  0.6153 -1.8302
   15DOPE  H13S 1872   1.486   1.371   5.540 -0.1217 -0.3790  0.1835
   15DOPE  C214 1873   1.636   1.267   5.417 -0.1536 -0.2695 -0.5949
   15DOPE  H14R 1874   1.631   1.158   5.433  2.2523 -0.3689 -0.2934
   15DOPE  H14S 1875   1.744   1.283   5.397 -0.5727  2.6100 -1.0942
   15DOPE  C215 1876   1.567   1.295   5.283  0.1085  0.1123  0.0862
   15DOPE  H15R 1877   1.458   1.276   5.296  0.0896 -0.6336 -1.0400
   15DOPE  H15S 1878   1.606   1.227   5.204  0.8704 -1.6295  1.8839
   15DOPE  C216 1879   1.584   1.446   5.243  0.2030  0.1676  0.3311
   15DOPE  H16R 1880   1.686   1.455   5.202  0.4639 -0.8495  0.7276
   15DOPE  H16S 1881   1.588   1.501   5.339 -1.1542  0.3576  0.3089
   15DOPE  C217 1882   1.481   1.504   5.150  1.2232 -0.9175 -0.2320
   15DOPE  H17R 1883   1.439   1.599   5.189  1.1778 -1.4726  1.1463
   15DOPE  H17S 1884   1.394   1.436   5.138 -0.1568  0.4621  1.5456
   15DOPE  C218 1885   1.520   1.516   5.004 -0.7008 -0.4347  0.1612
   15DOPE  H18R 1886   1.610   1.580   4.992 -0.8282 -0.2251  0.3267
   15DOPE  H18S 1887   1.441   1.540   4.930 -0.1812 -2.4959 -1.1575
   15DOPE  H18T 1888   1.563   1.416   4.980 -1.6300 -0.8852  0.3305
   15DOPE   C33 1889   2.043   0.850   6.424 -0.5127 -0.2666  0.2773
   15DOPE   H3X 1890   1.943   0.896   6.406 -1.0367 -1.5830 -0.3092
   15DOPE   H3Y 1891   2.029   0.740   6.417  0.8405 -0.5414  1.5404
   15DOPE   C34 1892   2.127   0.895   6.308 -0.1760  0.1150 -0.7564
   15DOPE   H4X 1893   2.141   1.005   6.317 -0.5830  0.0722  0.7682
   15DOPE   H4Y 1894   2.224   0.841   6.307 -1.7413 -2.9044 -0.1133
   15DOPE   C35 1895   2.053   0.891   6.173 -0.0072  0.2696  0.4456
   15DOPE   H5X 1896   1.951   0.930   6.193  0.1034 -0.0874  1.8181
   15DOPE   H5Y 1897   2.045   0.786   6.137  0.3471  0.6643 -0.8390
   15DOPE   C36 1898   2.111   0.981   6.074  0.1995  0.0216  0.2187
   15DOPE   H6X 1899   2.209   0.942   6.041 -0.7091 -1.0209 -1.3865
   15DOPE   H6Y 1900   2.127   1.079   6.124 -0.1697  0.2201 -0.0413
   15DOPE   C37 1901   2.020   1.003   5.955 -0.1421 -0.5755  0.2909
   15DOPE   H7X 1902   1.991   0.905   5.912  2.3718 -0.9420 -0.7118
   15DOPE   H7Y 1903   1.929   1.064   5.973  1.4642  2.4607 -1.2284
   15DOPE   C38 1904   2.091   1.063   5.829 -0.3454 -0.3782 -0.5177
   15DOPE   H8X 1905   2.191   1.018   5.816  0.3455  0.2912  1.8912
   15DOPE   H8Y 1906   2.112   1.171   5.848  4.0713 -0.3759 -3.7909
   15DOPE   C39 1907   2.018   1.058   5.698 -0.3054  0.2480  0.3008
   15DOPE   H9X 1908   1.955   0.969   5.686  3.0053 -2.4081  0.8941
   15DOPE  C310 1909   2.018   1.151   5.603  0.4824 -0.5961 -0.4857
   15DOPE  H10X 1910   1.985   1.120   5.503  1.3768  2.2997 -1.7720
   15DOPE  C311 1911   2.082   1.279   5.603  0.4398  0.3834  0.5819
   15DOPE  H11X 1912   2.055   1.335   5.510  0.8193  0.4560  0.5141
   15DOPE  H11Y 1913   2.048   1.335   5.693  1.8936 -0.0431  1.4335
   15DOPE  C312 1914   2.239   1.273   5.583  0.9455  0.7408  0.0034
   15DOPE  H12X 1915   2.280   1.202   5.509 -0.3335 -2.7142  2.3711
   15DOPE  H12Y 1916   2.280   1.245   5.683 -0.4173  0.6276  0.5589
   15DOPE  C313 1917   2.305   1.405   5.563 -0.1645 -0.7175 -0.2297
   15DOPE  H13X 1918   2.289   1.433   5.457  0.2409  0.6708  0.0512
   15DOPE  H13Y 1919   2.259   1.490   5.619  0.4138  0.4024 -1.3946
   15DOPE  C314 1920   2.461   1.396   5.567  0.4794 -0.4826 -0.6354
   15DOPE  H14X 1921   2.482   1.304   5.509  0.2779 -1.7881  1.2642
   15DOPE  H14Y 1922   2.501   1.377   5.669  2.6320 -0.3454 -1.3963
   15DOPE  C315 1923   2.534   1.518   5.510 -0.5824  0.1150  0.1562
   15DOPE  H15X 1924   2.516   1.529   5.401  0.7322  0.0198 -0.0930
   15DOPE  H15Y 1925   2.642   1.492   5.518 -0.7325 -0.6111 -0.0654
   15DOPE  C316 1926   2.529   1.652   5.579 -0.0363  0.4266 -0.1970
   15DOPE  H16X 1927   2.431   1.703   5.571 -0.3043 -0.1478 -0.6577
   15DOPE  H16Y 1928   2.605   1.716   5.528  0.4189 -0.8632 -1.2054
   15DOPE  C317 1929   2.569   1.628   5.725  0.3686 -0.0596  0.1935
   15DOPE  H17X 1930   2.510   1.546   5.769 -0.0489  0.2652  0.2473
   15DOPE  H17Y 1931   2.673   1.591   5.731  0.7718  0.6457 -1.6465
   15DOPE  C318 1932   2.548   1.759   5.809  0.0033  0.4098  0.4061
   15DOPE  H18X 1933   2.440   1.787   5.803  0.0276  1.0320  2.1529
   15DOPE  H18Y 1934   2.578   1.738   5.914  0.3471 -1.4047 -0.0325
   15DOPE  H18Z 1935   2.599   1.850   5.770 -0.0158  0.2317 -0.0406
   16DOPE     N 1936   2.026   2.403   7.027  0.2761 -0.6822  0.2801
   16DOPE   HN1 1937   2.107   2.355   6.983 -0.0597  0.8432 -2.1693
   16DOPE   HN2 1938   1.999   2.347   7.110 -1.2340 -0.3921  0.0154
   16DOPE   HN3 1939   1.947   2.417   6.961 -1.3004  0.1671  2.2315
   16DOPE   C12 1940   2.082   2.539   7.065 -1.0870  0.4717  0.2897
   16DOPE  H12A 1941   2.105   2.594   6.971  2.2375 -0.5782  0.3587
   16DOPE  H12B 1942   2.177   2.508   7.113 -0.1533  1.6377 -0.7374
   16DOPE   C11 1943   1.975   2.615   7.142 -0.4623  0.2760  0.5398
   16DOPE  H11A 1944   2.026   2.707   7.178  0.7157 -0.3988  0.6697
   16DOPE  H11B 1945   1.941   2.556   7.230 -0.3080 -0.2204  0.2690
   16DOPE     P 1946   1.751   2.754   7.083  0.0064 -0.0457 -0.0063
   16DOPE   O13 1947   1.724   2.761   7.227 -0.3718 -0.0824 -0.4064
   16DOPE   O14 1948   1.636   2.718   6.991 -0.2575  0.0659  0.0058
   16DOPE   O11 1949   1.827   2.888   7.039 -0.3854  0.0173  0.0473
   16DOPE   O12 1950   1.859   2.638   7.057  0.2496 -0.3820  0.6790
   16DOPE    C1 1951   1.901   2.883   6.913 -0.0901  0.2165  0.1989
   16DOPE    HA 1952   1.924   2.781   6.875  0.1650  0.1399  0.5589
   16DOPE    HB 1953   2.000   2.927   6.937 -1.0998  3.4013 -0.8991
   16DOPE    C2 1954   1.834   2.976   6.798  0.8380 -0.4417 -0.2124
   16DOPE    HS 1955   1.761   2.915   6.741 -1.1702 -0.2303  2.0096
   16DOPE   O21 1956   1.938   3.033   6.721  0.1887 -0.4279 -0.7448
   16DOPE   C21 1957   1.977   2.954   6.623 -0.3998 -0.2165 -0.4619
   16DOPE   O22 1958   1.940   2.840   6.619 -0.5379  0.0626  0.0960
   16DOPE   C22 1959   2.070   3.026   6.533  0.2216 -0.1342 -0.0851
   16DOPE   H2R 1960   2.174   3.003   6.564 -0.3281 -1.1770  1.1069
   16DOPE   H2S 1961   2.058   3.136   6.545  0.2767  0.5394 -4.6269
   16DOPE    C3 1962   1.756   3.097   6.849  0.6332  0.5418 -0.0305
   16DOPE    HX 1963   1.821   3.155   6.918  1.8469 -0.8173  0.0216
   16DOPE    HY 1964   1.680   3.050   6.915  2.3579 -1.1733  0.8685
   16DOPE   O31 1965   1.683   3.162   6.744 -0.3464  0.3978  0.2404
   16DOPE   C31 1966   1.735   3.284   6.722  0.4488  0.2264  1.0467
   16DOPE   O32 1967   1.851   3.314   6.740 -0.2668 -0.0143  0.3248
   16DOPE   C32 1968   1.616   3.376   6.671  0.5046 -0.0681  0.4162
   16DOPE   H2X 1969   1.527   3.363   6.736  0.7637  0.0063  0.7845
   16DOPE   H2Y 1970   1.652   3.481   6.668  0.4186 -0.0290  0.7091
   16DOPE   C23 1971   2.042   2.977   6.382  0.3837 -0.7114  0.0219
   16DOPE   H3R 1972   1.947   3.019   6.342  1.5318  1.7192 -0.3666
   16DOPE   H3S 1973   2.033   2.868   6.365 -1.4831 -0.9339  2.0465
   16DOPE   C24 1974   2.142   3.030   6.271 -0.4409 -0.2083 -0.2731
   16DOPE   H4R 1975   2.102   3.025   6.168 -0.7861  0.7695 -0.2011
   16DOPE   H4S 1976   2.229   2.961   6.273 -0.5081 -0.3179 -1.0123
   16DOPE   C25 1977   2.191   3.180   6.304 -0.1791  0.1849 -0.0479
   16DOPE   H5R 1978   2.243   3.179   6.402  1.4208 -1.1828 -0.8589
   16DOPE   H5S 1979   2.106   3.252   6.303  0.7315  1.2985 -0.9735
   16DOPE   C26 1980   2.297   3.218   6.198  0.0899 -0.3708  0.4673
   16DOPE   H6R 1981   2.374   3.139   6.202  2.8010  2.0230 -0.7294
   16DOPE   H6S 1982   2.348   3.314   6.221  0.1706 -0.3377  0.1576
   16DOPE   C27 1983   2.238   3.217   6.053  0.1561  0.1823 -0.2423
   16DOPE   H7R 1984   2.162   3.298   6.048  0.8408  0.8283 -0.4243
   16DOPE   H7S 1985   2.192   3.120   6.025  1.1160 -0.1904 -0.5821
   16DOPE   C28 1986   2.347   3.250   5.947 -0.5301 -0.2471 -0.8949
   16DOPE   H8R 1987   2.353   3.361   5.942  1.8506 -0.2834 -0.1020
   16DOPE   H8S 1988   2.296   3.231   5.850 -0.5182 -1.5251 -0.6656
   16DOPE   C29 1989   2.474   3.165   5.953 -1.0817 -0.1709 -0.0100
   16DOPE   H9R 1990   2.459   3.057   5.964  1.1015 -0.5450 -0.1971
   16DOPE  C210 1991   2.600   3.212   5.970  0.1858 -1.0632 -0.1725
   16DOPE  H10R 1992   2.679   3.135   5.973  2.0513  0.4267 -3.9129
   16DOPE  C211 1993   2.645   3.357   5.964 -0.4609 -1.0641  0.2935
   16DOPE  H11R 1994   2.746   3.374   6.008 -1.7662  1.3590  2.7184
   16DOPE  H11S 1995   2.593   3.419   6.040  1.1523  0.3337  0.3300
   16DOPE  C212 1996   2.625   3.435   5.829 -0.3518  0.6991  0.1161
   16DOPE  H12R 1997   2.665   3.538   5.834 -1.4771  1.1582 -0.2499
   16DOPE  H12S 1998   2.516   3.437   5.810 -0.4850  0.4966  0.8326
   16DOPE  C213 1999   2.690   3.357   5.714 -0.8227 -0.0937  0.0226
   16DOPE  H13R 2000   2.688   3.246   5.719  0.5349 -0.1701 -0.7615
   16DOPE  H13S 2001   2.798   3.373   5.736 -1.5089  3.2178  1.7100
   16DOPE  C214 2002   2.644   3.381   5.570 -1.0815  0.3146 -0.2681
   16DOPE  H14R 2003   2.630   3.491   5.561 -3.7302 -0.1050 -2.5840
   16DOPE  H14S 2004   2.546   3.332   5.550  0.0391 -2.1153 -0.0833
   16DOPE  C215 2005   2.742   3.325   5.472  0.7377  0.0123 -0.1297
   16DOPE  H15R 2006   2.717   3.218   5.453 -0.4885  0.0566  1.0642
   16DOPE  H15S 2007   2.845   3.329   5.513  0.8341  2.1271 -0.4639
   16DOPE  C216 2008   2.721   3.405   5.343  0.2068 -0.4706  0.4096
   16DOPE  H16R 2009   2.708   3.512   5.370 -3.4472 -0.9282  0.9246
   16DOPE  H16S 2010   2.627   3.371   5.295 -0.4275 -0.6103  1.7076
   16DOPE  C217 2011   2.830   3.379   5.246 -0.1737 -0.9944 -0.3645
   16DOPE  H17R 2012   2.819   3.275   5.208 -1.0506 -0.5030 -1.5305
   16DOPE  H17S 2013   2.931   3.384   5.292 -0.5831  0.1152  0.4370
   16DOPE  C218 2014   2.834   3.472   5.125  0.2165  0.2311 -0.0619
   16DOPE  H18R 2015   2.742   3.475   5.063 -0.1040  0.5684  0.4258
   16DOPE  H18S 2016   2.913   3.447   5.050 -1.4114 -0.7187 -1.5556
   16DOPE  H18T 2017   2.840   3.576   5.164  0.6059 -0.1754  0.9965
   16DOPE   C33 2018   1.562   3.329   6.531 -0.1963  0.3063 -0.2731
   16DOPE   H3X 2019   1.465   3.378   6.509 -2.4289 -2.8020  1.9063
   16DOPE   H3Y 2020   1.534   3.222   6.530  0.6103  0.0680  0.6965
   16DOPE   C34 2021   1.673   3.341   6.431 -0.6423 -0.4266  0.0823
   16DOPE   H4X 2022   1.716   3.443   6.439 -0.6048 -0.3571 -0.8660
   16DOPE   H4Y 2023   1.749   3.263   6.452 -0.2918  0.5039  2.5812
   16DOPE   C35 2024   1.618   3.327   6.280  0.6425 -0.1035 -0.4242
   16DOPE   H5X 2025   1.545   3.408   6.257 -0.4989 -0.3596  1.9389
   16DOPE   H5Y 2026   1.559   3.233   6.274 -2.2121  1.3068  2.2579
   16DOPE   C36 2027   1.735   3.331   6.185  0.6898  0.6768  0.2316
   16DOPE   H6X 2028   1.696   3.312   6.083  1.2966  1.6010 -0.1900
   16DOPE   H6Y 2029   1.805   3.247   6.203  0.0742 -0.1978 -1.2671
   16DOPE   C37 2030   1.796   3.467   6.165 -0.5621 -0.5094 -0.3643
   16DOPE   H7X 2031   1.728   3.546   6.204 -0.6508 -1.1650  0.8520
   16DOPE   H7Y 2032   1.898   3.470   6.208  0.2743 -1.8817 -2.0990
   16DOPE   C38 2033   1.813   3.513   6.016  0.0636  0.6261  0.1433
   16DOPE   H8X 2034   1.816   3.624   6.011  0.6597  0.6978  1.4824
   16DOPE   H8Y 2035   1.718   3.480   5.971  0.5907 -1.0397  0.1893
   16DOPE   C39 2036   1.933   3.447   5.943 -0.1417 -0.3788 -0.3217
   16DOPE   H9X 2037   2.029   3.454   5.996 -0.6277 -1.7804  0.8232
   16DOPE  C310 2038   1.926   3.374   5.834 -0.4351  0.0448 -0.0615
   16DOPE  H10X 2039   2.020   3.329   5.801 -0.3515 -0.3675  0.7056
   16DOPE  C311 2040   1.806   3.335   5.757 -0.0370 -0.0177  0.5870
   16DOPE  H11X 2041   1.799   3.225   5.767 -1.9309  0.0293  0.1136
   16DOPE  H11Y 2042   1.715   3.369   5.812  0.7300 -3.5580  4.5841
   16DOPE  C312 2043   1.805   3.370   5.608  0.4591 -0.3732 -0.8041
   16DOPE  H12X 2044   1.801   3.480   5.597 -0.7263 -0.0448  2.1144
   16DOPE  H12Y 2045   1.714   3.321   5.566 -0.9973 -0.4350  2.2189
   16DOPE  C313 2046   1.926   3.317   5.528 -0.1197 -0.4730 -1.0229
   16DOPE  H13X 2047   2.023   3.367   5.546  0.6021 -1.9921 -0.6272
   16DOPE  H13Y 2048   1.945   3.211   5.555 -0.1358 -0.2920 -0.2862
   16DOPE  C314 2049   1.906   3.324   5.374  0.0736  0.3496  0.3217
   16DOPE  H14X 2050   1.827   3.249   5.351 -0.2083  0.0667  2.0735
   16DOPE  H14Y 2051   2.003   3.290   5.333 -1.5675 -4.2039 -0.3468
   16DOPE  C315 2052   1.862   3.460   5.323 -0.2795 -0.6566 -0.0442
   16DOPE  H15X 2053   1.924   3.548   5.351  0.7337 -1.2564 -0.3458
   16DOPE  H15Y 2054   1.757   3.481   5.349 -0.4491 -1.7900  0.2312
   16DOPE  C316 2055   1.845   3.456   5.173  0.2097  0.6133  0.5789
   16DOPE  H16X 2056   1.784   3.370   5.138  0.6246  1.3053 -1.9942
   16DOPE  H16Y 2057   1.941   3.447   5.118  0.0891 -1.5790  0.6327
   16DOPE  C317 2058   1.764   3.573   5.120  0.5603  0.2588  0.5196
   16DOPE  H17X 2059   1.737   3.538   5.018 -1.1585 -1.7109  1.5686
   16DOPE  H17Y 2060   1.664   3.574   5.169  0.4994  0.4404  0.3893
   16DOPE  C318 2061   1.809   3.715   5.147  0.0378 -0.0492 -0.1381
   16DOPE  H18X 2062   1.761   3.745   5.243 -0.8903  1.0408 -0.9127
   16DOPE  H18Y 2063   1.920   3.706   5.149 -0.0415 -1.3291  2.2345
   16DOPE  H18Z 2064   1.781   3.786   5.066  0.3606 -1.1444 -1.2498
   17DOPE     N 2065   3.474   5.668   7.189  0.4861  0.3400  0.2086
   17DOPE   HN1 2066   3.515   5.682   7.094  2.7555 -2.6680  0.6120
   17DOPE   HN2 2067   3.537   5.591   7.218  0.7306 -0.1713 -1.5418
   17DOPE   HN3 2068   3.377   5.629   7.180 -0.5370  2.2377  2.1480
   17DOPE   C12 2069   3.486   5.794   7.266 -0.4797 -0.5875  0.9478
   17DOPE  H12A 2070   3.583   5.839   7.236  0.0715 -1.9078  0.7171
   17DOPE  H12B 2071   3.489   5.775   7.375  0.9717  1.5875  1.3436
   17DOPE   C11 2072   3.388   5.902   7.222  0.2697  0.0418  0.0029
   17DOPE  H11A 2073   3.404   5.924   7.114  0.3178  0.3059  0.0626
   17DOPE  H11B 2074   3.415   6.002   7.264 -1.5431  0.6088 -0.0584
   17DOPE     P 2075   3.148   5.839   7.159  0.3028 -0.4818 -0.1334
   17DOPE   O13 2076   3.042   5.758   7.230 -0.4392 -0.1517  0.5119
   17DOPE   O14 2077   3.208   5.771   7.049 -0.3765 -0.5301  0.4783
   17DOPE   O11 2078   3.100   5.979   7.106  0.0375 -0.5303  0.5298
   17DOPE   O12 2079   3.254   5.876   7.266 -0.0206  0.2298 -0.0775
   17DOPE    C1 2080   2.964   6.008   7.080 -0.1657 -0.1492  0.0965
   17DOPE    HA 2081   2.942   6.108   7.123 -2.1619 -0.3484 -0.3611
   17DOPE    HB 2082   2.895   5.941   7.135  1.0341 -0.4825  1.2421
   17DOPE    C2 2083   2.926   5.985   6.934  0.1402 -0.1150 -0.1409
   17DOPE    HS 2084   2.826   6.031   6.916  0.6505  0.7585 -0.8440
   17DOPE   O21 2085   2.909   5.843   6.912  0.3836 -0.6423  0.1605
   17DOPE   C21 2086   2.855   5.810   6.796 -0.2684  0.0167 -0.0805
   17DOPE   O22 2087   2.769   5.878   6.740 -0.4245 -0.1974  0.1718
   17DOPE   C22 2088   2.913   5.680   6.740 -0.0430 -0.4342  0.3550
   17DOPE   H2R 2089   2.860   5.608   6.805  0.3691 -0.5562  0.5579
   17DOPE   H2S 2090   3.022   5.671   6.764 -0.1606 -0.1400  1.0279
   17DOPE    C3 2091   3.038   6.051   6.844  0.3174  0.4036 -0.2416
   17DOPE    HX 2092   3.132   5.995   6.859 -0.7883 -1.9542 -1.4498
   17DOPE    HY 2093   3.057   6.153   6.883 -0.6826  1.2329 -1.7976
   17DOPE   O31 2094   3.024   6.041   6.700 -0.3087  0.2155  0.3627
   17DOPE   C31 2095   2.947   6.131   6.645 -0.4942  0.1190 -0.4871
   17DOPE   O32 2096   2.882   6.211   6.705  0.0704  0.1726  0.1818
   17DOPE   C32 2097   2.956   6.110   6.494  0.0480  0.2445  0.9692
   17DOPE   H2X 2098   3.013   6.191   6.444 -1.0450  0.7569  0.5159
   17DOPE   H2Y 2099   2.996   6.009   6.474  0.7457  0.6033  0.5250
   17DOPE   C23 2100   2.889   5.677   6.586  0.1987  0.4083 -0.4258
   17DOPE   H3R 2101   2.949   5.755   6.535  0.7092 -0.3188 -0.9684
   17DOPE   H3S 2102   2.780   5.680   6.566 -0.0719 -2.3894  0.1432
   17DOPE   C24 2103   2.946   5.542   6.534 -0.1460  0.1782 -0.1261
   17DOPE   H4R 2104   2.890   5.457   6.578  1.4440  0.2352  2.1716
   17DOPE   H4S 2105   3.042   5.540   6.588 -0.9684  1.9849  1.5443
   17DOPE   C25 2106   2.962   5.526   6.383 -0.7198 -0.1539 -0.0760
   17DOPE   H5R 2107   3.032   5.602   6.343  1.4552 -1.5718  0.8294
   17DOPE   H5S 2108   2.864   5.535   6.332 -1.8079  1.0065  2.1174
   17DOPE   C26 2109   3.027   5.387   6.359  0.2322 -0.0360 -0.0710
   17DOPE   H6R 2110   3.123   5.390   6.414 -0.1914 -1.9823  0.8664
   17DOPE   H6S 2111   3.044   5.364   6.252  2.4437  2.0923 -0.2480
   17DOPE   C27 2112   2.948   5.264   6.405 -0.3455 -0.0912 -0.0346
   17DOPE   H7R 2113   2.848   5.284   6.360  0.6072  2.3368 -1.2580
   17DOPE   H7S 2114   2.925   5.257   6.513 -1.9153  0.4627 -0.3126
   17DOPE   C28 2115   3.007   5.130   6.360  0.1653 -0.3294 -0.0841
   17DOPE   H8R 2116   2.942   5.060   6.417 -0.2148 -0.7082 -0.9696
   17DOPE   H8S 2117   3.109   5.115   6.401 -0.1404 -0.4891  0.6296
   17DOPE   C29 2118   3.000   5.105   6.212 -0.2582  0.0451 -0.0342
   17DOPE   H9R 2119   2.901   5.133   6.174  0.4972  1.0837 -1.3162
   17DOPE  C210 2120   3.100   5.066   6.132  0.3208  0.2703 -0.5653
   17DOPE  H10R 2121   3.075   5.068   6.025  0.5300 -0.5443 -0.6296
   17DOPE  C211 2122   3.234   5.008   6.161 -0.3955  0.0510 -0.2925
   17DOPE  H11R 2123   3.273   4.947   6.076  2.7691  0.9302  0.4091
   17DOPE  H11S 2124   3.225   4.935   6.244 -0.0308 -0.7133 -0.9027
   17DOPE  C212 2125   3.333   5.113   6.204 -0.9484  0.5627  0.4837
   17DOPE  H12R 2126   3.427   5.063   6.237 -1.3872 -0.7023 -0.0996
   17DOPE  H12S 2127   3.301   5.157   6.301  1.3766  2.1563  0.6167
   17DOPE  C213 2128   3.364   5.225   6.104  0.5369 -0.8732 -0.5510
   17DOPE  H13R 2129   3.448   5.283   6.147 -1.0175 -0.7680  2.6167
   17DOPE  H13S 2130   3.271   5.286   6.099 -0.1342 -1.9144 -1.3491
   17DOPE  C214 2131   3.395   5.170   5.966  0.0367 -0.3097  0.2671
   17DOPE  H14R 2132   3.419   5.261   5.907  0.5261 -0.9507 -0.5442
   17DOPE  H14S 2133   3.303   5.123   5.923 -0.8457 -0.2159  1.9554
   17DOPE  C215 2134   3.508   5.070   5.959 -0.7085  0.6021  1.3124
   17DOPE  H15R 2135   3.467   4.969   5.940  0.0745  0.5913 -0.5334
   17DOPE  H15S 2136   3.572   5.070   6.050  1.4431  0.2072 -0.1350
   17DOPE  C216 2137   3.593   5.100   5.836 -0.8163 -0.1502 -0.5869
   17DOPE  H16R 2138   3.696   5.059   5.848 -0.7623  0.8758  4.7481
   17DOPE  H16S 2139   3.604   5.210   5.843 -0.1054 -0.3223  1.5241
   17DOPE  C217 2140   3.531   5.053   5.706  0.0511 -0.1699 -0.0011
   17DOPE  H17R 2141   3.454   5.129   5.679 -0.0162  0.0520  0.7872
   17DOPE  H17S 2142   3.485   4.953   5.719 -3.0180  0.9747 -1.0546
   17DOPE  C218 2143   3.633   5.052   5.601 -0.7579 -0.2419 -0.3626
   17DOPE  H18R 2144   3.685   5.146   5.571  1.7672 -1.9151 -1.5884
   17DOPE  H18S 2145   3.604   4.994   5.511 -1.0702 -1.0410  0.2385
   17DOPE  H18T 2146   3.721   4.997   5.642 -0.4982  1.8713  2.1734
   17DOPE   C33 2147   2.815   6.120   6.438 -0.5325 -0.8451  0.1560
   17DOPE   H3X 2148   2.763   6.213   6.472  1.4084 -0.2660  1.7255
   17DOPE   H3Y 2149   2.750   6.049   6.493 -1.5445  1.3663  2.0241
   17DOPE   C34 2150   2.801   6.100   6.285 -0.2364 -0.0872 -0.6007
   17DOPE   H4X 2151   2.830   5.996   6.258 -1.7361 -0.9378  0.8991
   17DOPE   H4Y 2152   2.692   6.110   6.262 -0.6402 -1.4967  0.5211
   17DOPE   C35 2153   2.894   6.187   6.200  0.0112  0.2441 -0.1014
   17DOPE   H5X 2154   2.995   6.155   6.234  0.7240  1.9713 -0.4889
   17DOPE   H5Y 2155   2.885   6.291   6.238 -0.6014  1.2368 -2.7887
   17DOPE   C36 2156   2.870   6.159   6.054  0.4030 -0.0820 -0.4793
   17DOPE   H6X 2157   2.870   6.050   6.031 -1.2572  0.3249 -2.8030
   17DOPE   H6Y 2158   2.963   6.189   6.000  1.6992 -1.0283  1.1481
   17DOPE   C37 2159   2.746   6.223   5.989  0.2487  0.5021  0.2485
   17DOPE   H7X 2160   2.650   6.176   6.021 -0.2037  0.9117 -0.4584
   17DOPE   H7Y 2161   2.745   6.332   6.009  1.9624  0.8497 -1.3380
   17DOPE   C38 2162   2.745   6.211   5.836 -0.2253  0.5008  0.2032
   17DOPE   H8X 2163   2.770   6.105   5.813  2.6073  1.2102 -0.4836
   17DOPE   H8Y 2164   2.836   6.266   5.801 -0.9670  0.8242 -1.3134
   17DOPE   C39 2165   2.611   6.265   5.792 -0.4965  0.2293  0.1315
   17DOPE   H9X 2166   2.594   6.374   5.784 -2.1307  0.5506  4.8155
   17DOPE  C310 2167   2.506   6.190   5.765  0.0462  0.6676  0.7474
   17DOPE  H10X 2168   2.409   6.235   5.741  0.6563  0.9386 -1.4167
   17DOPE  C311 2169   2.501   6.039   5.776 -0.0601 -0.8002  0.5658
   17DOPE  H11X 2170   2.490   5.989   5.677  0.7654 -0.5517  0.3364
   17DOPE  H11Y 2171   2.588   5.992   5.828 -0.2449 -2.0089 -0.1775
   17DOPE  C312 2172   2.386   5.988   5.862 -0.1446 -0.0401  0.4670
   17DOPE  H12X 2173   2.400   5.996   5.972 -2.0254 -1.6719  0.8900
   17DOPE  H12Y 2174   2.384   5.880   5.836 -1.7469 -0.6097  2.6787
   17DOPE  C313 2175   2.246   6.047   5.840 -0.0044  0.7323 -0.3743
   17DOPE  H13X 2176   2.240   6.158   5.837 -1.5233  0.6577 -1.5413
   17DOPE  H13Y 2177   2.197   6.000   5.752  0.1533  0.8722 -0.5370
   17DOPE  C314 2178   2.166   6.010   5.963 -0.1838  0.0610 -0.3087
   17DOPE  H14X 2179   2.215   6.044   6.057 -0.6080  0.1144 -0.1076
   17DOPE  H14Y 2180   2.172   5.899   5.966  1.3538  0.1352  0.6176
   17DOPE  C315 2181   2.013   6.052   5.966 -0.0223  0.2371 -0.4509
   17DOPE  H15X 2182   1.955   5.988   5.897 -1.5900 -0.4351  1.4059
   17DOPE  H15Y 2183   2.015   6.156   5.925  0.2814 -0.3866 -2.0975
   17DOPE  C316 2184   1.952   6.049   6.106  0.6228 -0.4045  0.3099
   17DOPE  H16X 2185   1.986   6.141   6.159 -1.4741 -0.0793  1.2078
   17DOPE  H16Y 2186   2.006   5.965   6.154  1.4249 -0.5652 -0.8309
   17DOPE  C317 2187   1.805   6.017   6.113  0.4090 -0.3419  0.0501
   17DOPE  H17X 2188   1.757   6.106   6.068 -0.7516  0.2869  2.3528
   17DOPE  H17Y 2189   1.779   5.927   6.054  2.8451 -0.9637 -0.1843
   17DOPE  C318 2190   1.760   5.990   6.254 -0.0684 -0.6612 -0.5983
   17DOPE  H18X 2191   1.649   5.988   6.259 -0.1733  2.3157  0.5435
   17DOPE  H18Y 2192   1.792   5.890   6.289 -0.1568  0.3267  2.6676
   17DOPE  H18Z 2193   1.808   6.069   6.316  0.1646 -1.8732  0.8159
   18DOPE     N 2194   0.896   2.562   6.993 -0.0766  1.0026 -0.6244
   18DOPE   HN1 2195   0.950   2.572   6.905  0.0006  4.4148 -0.3183
   18DOPE   HN2 2196   0.830   2.482   6.987  1.3067 -0.2466  0.2789
   18DOPE   HN3 2197   0.840   2.649   6.997 -0.8070  0.5087  0.2368
   18DOPE   C12 2198   0.977   2.539   7.119  0.0779 -0.6613  0.4151
   18DOPE  H12A 2199   1.003   2.641   7.155 -2.5594  0.5867 -0.9387
   18DOPE  H12B 2200   1.062   2.471   7.100  2.9590  2.4272  1.2416
   18DOPE   C11 2201   0.888   2.479   7.224 -0.0072  0.0579  0.1947
   18DOPE  H11A 2202   0.813   2.556   7.254  1.9985  1.9780  0.5048
   18DOPE  H11B 2203   0.944   2.451   7.316 -0.4770 -2.3921 -0.1810
   18DOPE     P 2204   0.757   2.264   7.282  0.4849  0.0569 -0.8439
   18DOPE   O13 2205   0.620   2.306   7.305  0.2619  0.2501  0.5915
   18DOPE   O14 2206   0.836   2.253   7.405 -0.6631  0.1152 -0.5797
   18DOPE   O11 2207   0.742   2.125   7.203 -0.2962  0.6641  0.1958
   18DOPE   O12 2208   0.831   2.358   7.176 -0.1375  0.1139 -0.7161
   18DOPE    C1 2209   0.846   2.069   7.121 -1.4940  0.0583 -0.6632
   18DOPE    HA 2210   0.822   1.961   7.106 -1.5340 -0.2824  1.4929
   18DOPE    HB 2211   0.940   2.082   7.178 -1.3675 -1.5825 -0.4584
   18DOPE    C2 2212   0.858   2.123   6.977  0.1937 -0.0538 -0.0011
   18DOPE    HS 2213   0.901   2.224   6.990 -0.8706  0.5059 -0.6848
   18DOPE   O21 2214   0.727   2.129   6.911  0.4120 -0.0392 -0.2758
   18DOPE   C21 2215   0.685   2.245   6.879  0.2549 -0.7979 -0.3525
   18DOPE   O22 2216   0.734   2.355   6.901  0.2344  0.2602 -0.1308
   18DOPE   C22 2217   0.562   2.231   6.785  0.6022 -0.8377 -0.1015
   18DOPE   H2R 2218   0.488   2.165   6.836 -0.5531 -0.2247 -0.9577
   18DOPE   H2S 2219   0.608   2.183   6.696 -0.5634 -0.6805 -0.8041
   18DOPE    C3 2220   0.963   2.048   6.887 -0.5085 -0.5652 -0.5090
   18DOPE    HX 2221   0.935   1.941   6.888 -0.0264 -0.7024 -1.3019
   18DOPE    HY 2222   1.063   2.044   6.935 -0.1836 -3.9310 -1.2332
   18DOPE   O31 2223   0.969   2.104   6.756 -0.0704 -0.7438  0.0112
   18DOPE   C31 2224   1.075   2.173   6.721 -0.7496 -0.3685 -0.7107
   18DOPE   O32 2225   1.170   2.202   6.800 -0.5047  0.6210  0.0596
   18DOPE   C32 2226   1.067   2.221   6.575 -0.0273  0.0589  0.7082
   18DOPE   H2X 2227   1.159   2.277   6.546 -1.1863  1.1266 -1.0764
   18DOPE   H2Y 2228   1.070   2.127   6.516 -2.3572  1.1870 -1.3796
   18DOPE   C23 2229   0.492   2.369   6.756 -0.1702  0.0255  0.5347
   18DOPE   H3R 2230   0.568   2.433   6.706  0.4511 -1.6911 -0.7977
   18DOPE   H3S 2231   0.461   2.409   6.856 -1.5519  0.4998 -0.0565
   18DOPE   C24 2232   0.360   2.360   6.674 -0.3029 -0.0112 -0.0662
   18DOPE   H4R 2233   0.321   2.458   6.638 -1.8465 -0.7973 -0.6401
   18DOPE   H4S 2234   0.278   2.330   6.743 -1.2952  0.5726 -0.9471
   18DOPE   C25 2235   0.360   2.274   6.548 -0.7230 -0.0481 -0.1640
   18DOPE   H5R 2236   0.267   2.293   6.491 -0.7551  2.4275  0.6001
   18DOPE   H5S 2237   0.364   2.163   6.556 -0.0148  0.0785  1.8565
   18DOPE   C26 2238   0.463   2.319   6.442  0.1318  0.6787  0.0294
   18DOPE   H6R 2239   0.432   2.261   6.353 -2.2143  0.9769  0.5816
   18DOPE   H6S 2240   0.561   2.292   6.486 -0.1848  0.0284  0.3473
   18DOPE   C27 2241   0.452   2.467   6.403  1.1055 -0.1429  0.2365
   18DOPE   H7R 2242   0.525   2.524   6.464  0.6971 -0.0186  0.6108
   18DOPE   H7S 2243   0.353   2.496   6.444  2.5229 -0.0603  4.0179
   18DOPE   C28 2244   0.457   2.505   6.254 -0.4511 -0.2021  0.2063
   18DOPE   H8R 2245   0.437   2.614   6.248  1.3268  0.2994  2.1512
   18DOPE   H8S 2246   0.367   2.453   6.215  0.1264 -1.5969  0.6729
   18DOPE   C29 2247   0.578   2.468   6.169 -0.0093 -0.5585  0.3867
   18DOPE   H9R 2248   0.674   2.508   6.206  0.4399 -0.2593 -1.0331
   18DOPE  C210 2249   0.580   2.408   6.040 -0.0323 -0.2324 -0.2124
   18DOPE  H10R 2250   0.678   2.400   5.990 -0.0248  1.2397 -0.4894
   18DOPE  C211 2251   0.457   2.358   5.970  0.5593 -0.0493  0.1853
   18DOPE  H11R 2252   0.377   2.329   6.042 -0.2576  1.9680  0.1278
   18DOPE  H11S 2253   0.483   2.262   5.920 -2.6345 -1.7333  1.4260
   18DOPE  C212 2254   0.397   2.450   5.864 -0.3319  0.3509  0.6496
   18DOPE  H12R 2255   0.333   2.527   5.911 -0.0795  0.5220  0.7183
   18DOPE  H12S 2256   0.335   2.384   5.800  0.2114  0.3307  0.1309
   18DOPE  C213 2257   0.501   2.525   5.777 -0.2758 -0.5229  1.1897
   18DOPE  H13R 2258   0.577   2.458   5.731  0.4789 -0.3139  2.1204
   18DOPE  H13S 2259   0.550   2.597   5.845  2.0676  0.2223 -1.0941
   18DOPE  C214 2260   0.429   2.606   5.660 -0.1896 -0.1695 -0.0576
   18DOPE  H14R 2261   0.379   2.688   5.715 -0.6730 -1.0889  0.9095
   18DOPE  H14S 2262   0.355   2.531   5.625 -0.6066 -1.4301  3.1152
   18DOPE  C215 2263   0.530   2.649   5.554 -0.0688 -0.5835  0.9235
   18DOPE  H15R 2264   0.469   2.679   5.466  0.7515  0.9822  0.8540
   18DOPE  H15S 2265   0.585   2.554   5.535  0.2636 -0.2402  0.1064
   18DOPE  C216 2266   0.622   2.767   5.592  0.3812  0.0381 -0.0907
   18DOPE  H16R 2267   0.693   2.796   5.512 -0.1869 -0.4613 -0.7840
   18DOPE  H16S 2268   0.670   2.756   5.692 -1.2946  2.4141  1.0722
   18DOPE  C217 2269   0.534   2.889   5.623 -0.0448  1.1607 -0.0454
   18DOPE  H17R 2270   0.462   2.865   5.704  1.9975 -2.8031  0.8474
   18DOPE  H17S 2271   0.471   2.918   5.536  2.0206  0.4314 -1.8834
   18DOPE  C218 2272   0.618   3.015   5.647 -0.2701 -0.1504 -0.8498
   18DOPE  H18R 2273   0.549   3.097   5.677  1.2501  1.1494 -0.7508
   18DOPE  H18S 2274   0.674   3.047   5.557  1.2708  1.5141  0.6201
   18DOPE  H18T 2275   0.684   2.994   5.734 -1.5576  0.2986  0.2808
   18DOPE   C33 2276   0.946   2.312   6.562 -0.6831 -0.6077  0.3124
   18DOPE   H3X 2277   0.961   2.408   6.615 -2.6681  0.4716 -0.9524
   18DOPE   H3Y 2278   0.854   2.265   6.601 -1.2756  0.4425  0.2090
   18DOPE   C34 2279   0.907   2.355   6.422  0.2719  0.9993 -0.1072
   18DOPE   H4X 2280   0.845   2.271   6.385  1.1216  0.2376  0.1640
   18DOPE   H4Y 2281   0.847   2.448   6.427  1.2446  1.7549 -1.5082
   18DOPE   C35 2282   1.029   2.387   6.331  0.7970 -0.6677 -0.4008
   18DOPE   H5X 2283   1.087   2.292   6.327  0.5326 -0.7952 -2.7542
   18DOPE   H5Y 2284   1.087   2.470   6.377 -2.0680  1.2648 -0.0602
   18DOPE   C36 2285   1.007   2.434   6.188  0.6057 -0.1932 -0.4361
   18DOPE   H6X 2286   0.960   2.535   6.186  0.5383 -0.2096  0.1449
   18DOPE   H6Y 2287   0.930   2.367   6.144  0.1270 -0.3784  0.6474
   18DOPE   C37 2288   1.119   2.416   6.079  0.6105 -0.6037 -0.4124
   18DOPE   H7X 2289   1.186   2.503   6.096  0.1301 -0.0589 -1.2619
   18DOPE   H7Y 2290   1.173   2.321   6.101 -0.7793 -0.8146  2.6852
   18DOPE   C38 2291   1.066   2.414   5.934 -0.5330 -0.0649  0.7134
   18DOPE   H8X 2292   0.980   2.344   5.930 -0.2695 -0.3435 -0.2013
   18DOPE   H8Y 2293   1.130   2.359   5.862 -0.0494  0.7428  0.5135
   18DOPE   C39 2294   1.022   2.555   5.891 -0.1480 -0.1001 -0.2138
   18DOPE   H9X 2295   0.968   2.607   5.971  0.3328  0.3991 -0.2066
   18DOPE  C310 2296   1.052   2.621   5.778  0.2177 -0.1427 -0.2054
   18DOPE  H10X 2297   1.024   2.727   5.770  2.6427  0.5205 -0.7541
   18DOPE  C311 2298   1.132   2.575   5.654  0.8776  0.5314  0.4241
   18DOPE  H11X 2299   1.238   2.578   5.687  0.7097 -0.7716  1.1732
   18DOPE  H11Y 2300   1.123   2.464   5.647  0.4862  0.3455  2.9832
   18DOPE  C312 2301   1.124   2.668   5.537 -0.2743  0.1082  0.3102
   18DOPE  H12X 2302   1.197   2.644   5.456 -0.8147 -0.8607  0.0942
   18DOPE  H12Y 2303   1.163   2.762   5.582  1.0375 -0.9605  1.5003
   18DOPE  C313 2304   0.988   2.696   5.471 -0.3297 -0.2940  0.3187
   18DOPE  H13X 2305   0.944   2.608   5.421 -0.2556  0.1135 -0.4895
   18DOPE  H13Y 2306   0.917   2.729   5.549 -0.2713 -2.9350  1.5966
   18DOPE  C314 2307   1.001   2.799   5.352 -0.1848  0.3040  0.4567
   18DOPE  H14X 2308   1.079   2.877   5.369 -0.5974  1.1461 -1.2585
   18DOPE  H14Y 2309   0.904   2.854   5.355 -0.3860 -0.1165  2.6007
   18DOPE  C315 2310   1.030   2.733   5.216 -0.1136 -0.4593  0.0468
   18DOPE  H15X 2311   0.951   2.661   5.188  1.5774 -2.2573 -0.3286
   18DOPE  H15Y 2312   1.119   2.666   5.220 -2.0284 -3.3156 -1.6550
   18DOPE  C316 2313   1.029   2.840   5.110  0.1048 -0.1680 -0.2698
   18DOPE  H16X 2314   1.103   2.918   5.140 -2.8372  3.1695 -0.9672
   18DOPE  H16Y 2315   0.934   2.897   5.103  0.3314  0.4261  1.0633
   18DOPE  C317 2316   1.083   2.789   4.980 -0.1112  0.4881  0.6629
   18DOPE  H17X 2317   1.084   2.873   4.907 -2.6655  0.7953  0.8927
   18DOPE  H17Y 2318   1.183   2.741   4.993  0.3515  0.6207 -1.9372
   18DOPE  C318 2319   0.985   2.691   4.920 -0.1343  0.7370  0.0196
   18DOPE  H18X 2320   1.041   2.601   4.887  0.4856  1.4711 -0.9845
   18DOPE  H18Y 2321   0.916   2.650   4.997  0.1201  0.6431  0.1956
   18DOPE  H18Z 2322   0.935   2.730   4.828 -0.6248  0.9711  0.3770
   19DOPE     N 2323   0.190   3.552   7.003  0.4185  0.3425  0.3926
   19DOPE   HN1 2324   0.221   3.485   6.930 -1.6900 -0.4627  0.1633
   19DOPE   HN2 2325   0.182   3.640   6.949 -2.7339 -1.1038 -1.8446
   19DOPE   HN3 2326   0.269   3.575   7.065  0.4664  1.1319  0.0420
   19DOPE   C12 2327   0.074   3.506   7.079  0.0869 -0.4445  0.0321
   19DOPE  H12A 2328   0.097   3.404   7.118  0.2317 -0.7059 -0.7284
   19DOPE  H12B 2329  -0.007   3.518   7.004 -0.4555  1.7221  0.9088
   19DOPE   C11 2330   0.052   3.609   7.195 -0.1590  0.6136  0.3743
   19DOPE  H11A 2331   0.150   3.609   7.248  0.6128  0.7090 -1.0032
   19DOPE  H11B 2332  -0.029   3.587   7.268 -2.1963  2.4580 -1.1837
   19DOPE     P 2333  -0.042   3.858   7.202 -0.2600  0.1635  0.0792
   19DOPE   O13 2334   0.059   3.965   7.223  0.0028 -0.2632  0.1048
   19DOPE   O14 2335  -0.118   3.819   7.323  0.3240  0.3879  0.0572
   19DOPE   O11 2336  -0.144   3.888   7.093  0.0846 -0.0736 -0.1659
   19DOPE   O12 2337   0.035   3.738   7.135 -0.2582  0.5375 -0.8024
   19DOPE    C1 2338  -0.232   3.791   7.042  0.2965 -0.1062  0.4823
   19DOPE    HA 2339  -0.333   3.836   7.046  0.5722  0.9939 -2.3879
   19DOPE    HB 2340  -0.224   3.697   7.099 -1.2799 -0.0708  0.7979
   19DOPE    C2 2341  -0.200   3.758   6.894 -0.9488  0.0384 -0.1347
   19DOPE    HS 2342  -0.095   3.723   6.898 -1.1290 -0.6110 -0.9041
   19DOPE   O21 2343  -0.218   3.880   6.812 -0.4914  0.0977 -0.0658
   19DOPE   C21 2344  -0.112   3.938   6.759 -0.4390 -0.4778 -0.0004
   19DOPE   O22 2345   0.003   3.901   6.782  0.4811  0.4193 -0.4541
   19DOPE   C22 2346  -0.170   4.055   6.679  0.0088  0.7131 -0.0677
   19DOPE   H2R 2347  -0.222   4.117   6.756 -1.3465  0.3122 -0.6292
   19DOPE   H2S 2348  -0.241   4.006   6.609 -1.0083  0.9578  0.7594
   19DOPE    C3 2349  -0.295   3.646   6.842 -0.2307 -0.0317 -0.1908
   19DOPE    HX 2350  -0.396   3.692   6.835  0.8192  2.2063 -1.9280
   19DOPE    HY 2351  -0.305   3.561   6.914 -3.9601 -0.0153 -0.4927
   19DOPE   O31 2352  -0.255   3.607   6.711  0.2485  0.8830 -0.0035
   19DOPE   C31 2353  -0.151   3.524   6.707 -1.3793  0.2786 -0.1728
   19DOPE   O32 2354  -0.106   3.461   6.801 -0.1642  0.8357  0.2241
   19DOPE   C32 2355  -0.091   3.528   6.563  0.0467 -0.1527 -0.0558
   19DOPE   H2X 2356  -0.012   3.606   6.569 -1.0821  1.1737 -1.6161
   19DOPE   H2Y 2357  -0.033   3.434   6.550  0.0073 -0.1444 -0.2970
   19DOPE   C23 2358  -0.066   4.148   6.607 -0.6711 -0.6170 -0.0803
   19DOPE   H3R 2359   0.009   4.181   6.682 -0.1487 -2.0641  0.0759
   19DOPE   H3S 2360  -0.122   4.237   6.569  2.1245  0.8882 -0.9509
   19DOPE   C24 2361   0.024   4.073   6.500  0.2513  0.5851  0.0572
   19DOPE   H4R 2362   0.056   3.975   6.540 -0.7292  0.6921  1.1792
   19DOPE   H4S 2363   0.118   4.132   6.493  0.2108  0.5655 -0.6317
   19DOPE   C25 2364  -0.038   4.045   6.365  0.3956  0.3374  0.0183
   19DOPE   H5R 2365  -0.116   3.969   6.386  0.6450 -0.5596 -2.0854
   19DOPE   H5S 2366   0.044   4.006   6.301 -0.0811  1.3332 -1.2623
   19DOPE   C26 2367  -0.099   4.161   6.287  0.8923  0.0041 -0.2270
   19DOPE   H6R 2368  -0.017   4.235   6.285  1.3698 -0.5202 -0.2671
   19DOPE   H6S 2369  -0.172   4.219   6.349  0.5040  2.2052 -2.5708
   19DOPE   C27 2370  -0.142   4.131   6.142  0.0154  0.6925 -0.3741
   19DOPE   H7R 2371  -0.225   4.057   6.142 -1.5685  2.3502  1.2887
   19DOPE   H7S 2372  -0.054   4.094   6.086  1.9720 -0.5595  3.1845
   19DOPE   C28 2373  -0.213   4.251   6.072  0.2617  0.1411  0.5270
   19DOPE   H8R 2374  -0.145   4.338   6.087 -1.0205  1.2768 -0.0181
   19DOPE   H8S 2375  -0.303   4.269   6.135  0.6675 -2.7383  2.0548
   19DOPE   C29 2376  -0.241   4.241   5.933  0.1714  0.5382  1.0522
   19DOPE   H9R 2377  -0.227   4.140   5.890 -1.5336 -0.0730  1.8283
   19DOPE  C210 2378  -0.283   4.344   5.854  0.0850 -0.1944  0.0518
   19DOPE  H10R 2379  -0.294   4.322   5.747  1.4949  0.1335 -0.1795
   19DOPE  C211 2380  -0.310   4.487   5.897  0.0523 -0.3958  0.4894
   19DOPE  H11R 2381  -0.251   4.519   5.985  1.0986 -0.8900 -0.0157
   19DOPE  H11S 2382  -0.416   4.507   5.923  0.1197  0.9786 -0.2288
   19DOPE  C212 2383  -0.244   4.587   5.792 -0.5467  0.5605 -0.4659
   19DOPE  H12R 2384  -0.142   4.546   5.776 -1.2200 -0.7775 -1.5802
   19DOPE  H12S 2385  -0.228   4.680   5.852  4.7556  0.7447 -1.6427
   19DOPE  C213 2386  -0.308   4.605   5.654 -0.0645  0.3405 -1.0035
   19DOPE  H13R 2387  -0.415   4.624   5.676 -0.4830 -1.3119 -1.4265
   19DOPE  H13S 2388  -0.303   4.511   5.595  1.8809 -0.9736  1.1026
   19DOPE  C214 2389  -0.274   4.725   5.570 -0.3512 -0.6016  0.4452
   19DOPE  H14R 2390  -0.165   4.714   5.558 -0.2523  1.0738 -0.5381
   19DOPE  H14S 2391  -0.296   4.820   5.623  1.1505 -0.8993  1.6451
   19DOPE  C215 2392  -0.341   4.730   5.428 -0.5881  0.7573 -0.0295
   19DOPE  H15R 2393  -0.333   4.630   5.381 -1.9301  0.9056 -0.6141
   19DOPE  H15S 2394  -0.291   4.805   5.363 -0.3920  0.9346  0.3261
   19DOPE  C216 2395  -0.484   4.766   5.438 -0.0806 -0.0510 -0.1747
   19DOPE  H16R 2396  -0.491   4.874   5.459 -0.4235  0.1484 -1.2311
   19DOPE  H16S 2397  -0.531   4.696   5.510  1.5240  0.7019  1.6804
   19DOPE  C217 2398  -0.561   4.758   5.300  0.0779 -0.0665 -0.3218
   19DOPE  H17R 2399  -0.534   4.671   5.236  0.0118  1.2029 -2.1595
   19DOPE  H17S 2400  -0.528   4.848   5.244  0.7702 -0.8862 -1.2772
   19DOPE  C218 2401  -0.716   4.769   5.315 -0.3925 -0.6955  0.3929
   19DOPE  H18R 2402  -0.758   4.683   5.371  0.5909 -1.0412  0.6205
   19DOPE  H18S 2403  -0.770   4.783   5.219 -1.6875 -1.1014  1.0332
   19DOPE  H18T 2404  -0.755   4.856   5.373 -0.2702 -1.4117  1.5604
   19DOPE   C33 2405  -0.180   3.554   6.437  0.1643  0.3777 -0.3435
   19DOPE   H3X 2406  -0.287   3.553   6.468  0.3637  3.4891  0.7778
   19DOPE   H3Y 2407  -0.162   3.470   6.367  0.9084  1.9340 -2.1121
   19DOPE   C34 2408  -0.147   3.683   6.371  0.6325 -0.4707  0.3278
   19DOPE   H4X 2409  -0.155   3.758   6.454 -2.3553 -0.6766  0.3231
   19DOPE   H4Y 2410  -0.038   3.690   6.350  1.0158  1.8372  2.5327
   19DOPE   C35 2411  -0.235   3.710   6.251  0.7027  0.1025  0.1099
   19DOPE   H5X 2412  -0.228   3.814   6.214  0.0682 -0.4987 -1.8121
   19DOPE   H5Y 2413  -0.342   3.688   6.273  0.4118  1.0804 -0.2987
   19DOPE   C36 2414  -0.191   3.625   6.131 -0.7430 -0.5114 -0.1648
   19DOPE   H6X 2415  -0.256   3.631   6.041  1.5317 -1.5086 -2.0030
   19DOPE   H6Y 2416  -0.191   3.516   6.154  2.7323 -0.2694  1.6751
   19DOPE   C37 2417  -0.042   3.671   6.083 -0.7688  0.2674 -0.0469
   19DOPE   H7X 2418  -0.022   3.757   6.150 -2.9289  0.0138  1.0164
   19DOPE   H7Y 2419   0.027   3.595   6.125  0.6297  2.1074  1.1517
   19DOPE   C38 2420  -0.028   3.691   5.933  0.1254  0.4664 -0.7570
   19DOPE   H8X 2421  -0.023   3.597   5.874  1.5841  0.0861 -0.0765
   19DOPE   H8Y 2422   0.078   3.724   5.933  0.0401  0.7654 -1.4674
   19DOPE   C39 2423  -0.115   3.798   5.875  1.2044  0.1329 -0.1158
   19DOPE   H9X 2424  -0.203   3.828   5.933  1.1863 -1.0467  0.5075
   19DOPE  C310 2425  -0.097   3.865   5.758  0.4999  0.8338 -0.1519
   19DOPE  H10X 2426  -0.179   3.923   5.714  0.5326  1.7279  0.9218
   19DOPE  C311 2427   0.020   3.853   5.667 -0.1758  0.1999  0.5062
   19DOPE  H11X 2428   0.052   3.747   5.668 -1.8546 -0.4029 -1.3227
   19DOPE  H11Y 2429  -0.017   3.881   5.565  0.4156  3.2530  1.0197
   19DOPE  C312 2430   0.111   3.967   5.701 -0.3313 -0.2685  0.1226
   19DOPE  H12X 2431   0.181   3.966   5.615  0.5233 -0.1763  0.7998
   19DOPE  H12Y 2432   0.167   3.959   5.797  0.9657 -1.5113 -0.6831
   19DOPE  C313 2433   0.049   4.101   5.687  0.6865 -0.3597 -0.7476
   19DOPE  H13X 2434  -0.023   4.096   5.602 -1.1613  0.6734  0.6672
   19DOPE  H13Y 2435  -0.007   4.141   5.774  1.1424  1.0191 -1.0613
   19DOPE  C314 2436   0.150   4.217   5.669  0.2727  0.4334 -0.5042
   19DOPE  H14X 2437   0.216   4.196   5.583 -1.1535  1.0524 -1.8018
   19DOPE  H14Y 2438   0.217   4.217   5.758  0.0079 -1.9079 -0.2447
   19DOPE  C315 2439   0.088   4.356   5.644  0.5940 -0.0153  0.3696
   19DOPE  H15X 2440   0.041   4.397   5.737 -0.3237  1.6378 -0.7761
   19DOPE  H15Y 2441   0.011   4.354   5.564 -0.0048 -0.9895  0.9537
   19DOPE  C316 2442   0.190   4.465   5.599 -0.0139 -0.1731  0.0568
   19DOPE  H16X 2443   0.227   4.426   5.502  0.6340  1.0667 -0.2076
   19DOPE  H16Y 2444   0.258   4.479   5.686  0.5637 -0.2325 -0.3828
   19DOPE  C317 2445   0.113   4.595   5.578  0.4012 -0.5203 -0.2101
   19DOPE  H17X 2446   0.020   4.581   5.520  0.4294  2.2264 -1.0723
   19DOPE  H17Y 2447   0.083   4.635   5.677  1.5080  1.1246 -0.4878
   19DOPE  C318 2448   0.198   4.708   5.504 -0.2624  0.1621 -1.0917
   19DOPE  H18X 2449   0.291   4.737   5.557 -1.0253  0.5663  0.0660
   19DOPE  H18Y 2450   0.229   4.659   5.409  0.9238  0.0010 -0.6473
   19DOPE  H18Z 2451   0.130   4.791   5.475 -0.4432 -0.0249 -1.2053
   20DOPE     N 2452   6.997   6.271   7.306 -0.1637  0.7221 -0.3219
   20DOPE   HN1 2453   7.075   6.289   7.238 -2.5299 -2.3054 -4.3382
   20DOPE   HN2 2454   7.005   6.353   7.369  0.3326  0.1591  0.3717
   20DOPE   HN3 2455   7.023   6.184   7.357 -0.1438  1.1442  0.3976
   20DOPE   C12 2456   6.880   6.262   7.204 -0.6582  0.1193 -0.0021
   20DOPE  H12A 2457   6.819   6.351   7.228 -1.8542 -0.9974  1.3213
   20DOPE  H12B 2458   6.812   6.176   7.225 -0.5295  0.4610  2.0578
   20DOPE   C11 2459   6.933   6.258   7.062 -0.1049  0.0260 -0.1438
   20DOPE  H11A 2460   6.991   6.350   7.039 -0.4891  0.3019 -0.0209
   20DOPE  H11B 2461   6.842   6.267   6.999 -0.0280 -1.4975 -0.5165
   20DOPE     P 2462   7.160   6.144   7.027  0.1351  0.0850 -0.0836
   20DOPE   O13 2463   7.222   6.022   6.963 -0.0841  0.0184  0.3549
   20DOPE   O14 2464   7.230   6.186   7.151 -0.2947  0.0460 -0.1298
   20DOPE   O11 2465   7.181   6.258   6.924  0.1112  0.3360 -0.2453
   20DOPE   O12 2466   7.004   6.139   7.039  0.0463  0.2333  0.5719
   20DOPE    C1 2467   7.119   6.252   6.792  0.0481 -0.3636 -0.0488
   20DOPE    HA 2468   7.108   6.356   6.756  0.1879  1.1545  3.7670
   20DOPE    HB 2469   7.017   6.210   6.796 -0.9255  1.8834  0.0477
   20DOPE    C2 2470   7.207   6.178   6.679 -0.6983 -0.3815 -0.4709
   20DOPE    HS 2471   7.237   6.077   6.712  0.2542 -1.0219 -3.0352
   20DOPE   O21 2472   7.312   6.272   6.658 -0.7611 -0.7488  0.2955
   20DOPE   C21 2473   7.430   6.219   6.627  0.0731 -0.1251 -0.1673
   20DOPE   O22 2474   7.466   6.105   6.647  0.0580  0.4648 -0.0772
   20DOPE   C22 2475   7.509   6.330   6.547 -0.6078  0.4736 -1.4584
   20DOPE   H2R 2476   7.590   6.363   6.615 -0.9068  0.5954 -1.1527
   20DOPE   H2S 2477   7.449   6.424   6.549 -1.4752  0.0758  3.3897
   20DOPE    C3 2478   7.117   6.157   6.554  0.1821 -0.1567  0.2259
   20DOPE    HX 2479   7.073   6.254   6.524 -0.0139 -0.7880 -1.6421
   20DOPE    HY 2480   7.031   6.089   6.575 -0.7697  0.1402 -2.3888
   20DOPE   O31 2481   7.187   6.098   6.434  0.0784 -0.8118 -0.3560
   20DOPE   C31 2482   7.209   5.970   6.437 -0.6956  0.0866  0.4832
   20DOPE   O32 2483   7.175   5.894   6.523 -0.0694 -0.1760 -0.1583
   20DOPE   C32 2484   7.293   5.933   6.318 -0.1136  0.1229  0.2333
   20DOPE   H2X 2485   7.254   5.994   6.233  1.6496  0.5494 -0.3190
   20DOPE   H2Y 2486   7.400   5.955   6.342  0.3188 -2.9555  1.4833
   20DOPE   C23 2487   7.552   6.291   6.411  0.2398 -0.6388  0.5953
   20DOPE   H3R 2488   7.605   6.196   6.389  0.1305 -0.3715 -0.9922
   20DOPE   H3S 2489   7.615   6.370   6.365  0.2640  0.6755  2.7718
   20DOPE   C24 2490   7.426   6.287   6.312  0.8884  0.6360  0.2184
   20DOPE   H4R 2491   7.372   6.384   6.310  1.0376  0.7478 -2.7404
   20DOPE   H4S 2492   7.349   6.212   6.342  0.2770  0.5348 -1.4970
   20DOPE   C25 2493   7.457   6.241   6.172  0.0458  0.0314  0.1087
   20DOPE   H5R 2494   7.497   6.137   6.178  0.3548  0.1492  0.1371
   20DOPE   H5S 2495   7.538   6.304   6.129  1.3332 -1.3007  0.4763
   20DOPE   C26 2496   7.330   6.248   6.080 -0.1687 -0.4280  0.4021
   20DOPE   H6R 2497   7.316   6.357   6.060 -0.3954 -0.4924  0.1997
   20DOPE   H6S 2498   7.232   6.229   6.128 -2.1836  2.5425 -2.1527
   20DOPE   C27 2499   7.336   6.175   5.943  0.5258  0.2517 -0.2212
   20DOPE   H7R 2500   7.243   6.191   5.884  1.8171  0.7824 -2.2205
   20DOPE   H7S 2501   7.328   6.067   5.968 -3.0171  0.1889 -1.0432
   20DOPE   C28 2502   7.461   6.203   5.862  0.4521  0.0829  0.6010
   20DOPE   H8R 2503   7.551   6.192   5.925  0.7930  0.8375  0.2581
   20DOPE   H8S 2504   7.465   6.306   5.821 -2.0973  0.3123  0.7594
   20DOPE   C29 2505   7.469   6.104   5.742  0.4633 -0.6404 -0.0155
   20DOPE   H9R 2506   7.369   6.065   5.717 -0.4499  0.5744  1.5228
   20DOPE  C210 2507   7.581   6.051   5.691  0.7374 -0.6904  0.0770
   20DOPE  H10R 2508   7.576   5.998   5.595 -0.5580  0.6002 -0.6107
   20DOPE  C211 2509   7.720   6.077   5.745 -0.4389 -0.5393  0.2842
   20DOPE  H11R 2510   7.709   6.095   5.854  1.6212  3.0062  0.0616
   20DOPE  H11S 2511   7.776   6.166   5.709  0.7217 -1.0934  0.6802
   20DOPE  C212 2512   7.792   5.941   5.730 -0.2043  0.9430 -0.8789
   20DOPE  H12R 2513   7.811   5.927   5.622 -0.4726  0.3705 -0.8565
   20DOPE  H12S 2514   7.739   5.855   5.775  1.3813  0.4165  0.0925
   20DOPE  C213 2515   7.931   5.938   5.792 -0.7198 -0.2906  0.6686
   20DOPE  H13R 2516   7.934   5.986   5.892  0.5111 -2.2320  1.6217
   20DOPE  H13S 2517   7.998   5.996   5.726  0.1236  0.9805  2.5622
   20DOPE  C214 2518   7.990   5.795   5.794  0.2674  0.0866 -0.2639
   20DOPE  H14R 2519   8.026   5.782   5.689  0.2040  0.4553 -0.3353
   20DOPE  H14S 2520   7.912   5.722   5.823 -0.4870  0.4313 -1.3334
   20DOPE  C215 2521   8.111   5.781   5.889  0.0131 -0.4174 -0.2382
   20DOPE  H15R 2522   8.068   5.797   5.990 -1.4776 -0.5563 -0.8257
   20DOPE  H15S 2523   8.180   5.863   5.860 -1.1428  0.5592 -0.3503
   20DOPE  C216 2524   8.181   5.651   5.886  0.7975  0.8076  0.0321
   20DOPE  H16R 2525   8.255   5.654   5.970  0.2927  1.2986  0.4677
   20DOPE  H16S 2526   8.237   5.635   5.792  0.2486  0.4162 -0.2312
   20DOPE  C217 2527   8.102   5.516   5.901 -0.2186 -0.3348 -0.0766
   20DOPE  H17R 2528   8.025   5.526   5.822  1.8707  1.1460 -2.0451
   20DOPE  H17S 2529   8.051   5.508   6.000  2.8676 -0.5805  1.6221
   20DOPE  C218 2530   8.195   5.394   5.873 -0.2024 -0.0920  0.0656
   20DOPE  H18R 2531   8.128   5.308   5.852 -2.8327  1.8957 -0.2119
   20DOPE  H18S 2532   8.257   5.362   5.960  0.6595 -0.1866 -0.5692
   20DOPE  H18T 2533   8.246   5.412   5.776 -0.8384 -0.0950 -0.2703
   20DOPE   C33 2534   7.269   5.790   6.263 -0.5520  0.0770 -0.4034
   20DOPE   H3X 2535   7.169   5.749   6.289  0.4482 -1.3963  1.3657
   20DOPE   H3Y 2536   7.342   5.724   6.314  1.0563  1.5021 -0.7595
   20DOPE   C34 2537   7.292   5.772   6.112 -0.0827  0.1261  0.2284
   20DOPE   H4X 2538   7.228   5.844   6.057 -1.4763 -0.2152  1.3146
   20DOPE   H4Y 2539   7.398   5.791   6.085 -0.5267 -0.9683 -2.7126
   20DOPE   C35 2540   7.263   5.631   6.060 -0.0719  0.1340 -0.6363
   20DOPE   H5X 2541   7.156   5.611   6.083  0.3784 -1.2312  0.3607
   20DOPE   H5Y 2542   7.318   5.560   6.125 -1.6815  1.4322  2.3233
   20DOPE   C36 2543   7.307   5.616   5.913 -0.3579 -0.0476 -0.0360
   20DOPE   H6X 2544   7.402   5.671   5.897 -0.2072 -0.2029  0.3035
   20DOPE   H6Y 2545   7.237   5.665   5.842  0.0118 -1.5936 -1.5394
   20DOPE   C37 2546   7.323   5.465   5.864 -0.3043 -0.3990 -0.6782
   20DOPE   H7X 2547   7.408   5.408   5.908 -2.5745 -1.9291  2.0038
   20DOPE   H7Y 2548   7.234   5.406   5.895 -1.0652  1.7265  1.5287
   20DOPE   C38 2549   7.352   5.460   5.704  0.1141 -0.5931 -0.4769
   20DOPE   H8X 2550   7.262   5.495   5.650 -1.5385 -0.0522  2.4420
   20DOPE   H8Y 2551   7.357   5.349   5.690  0.8222 -0.9069  1.9071
   20DOPE   C39 2552   7.492   5.511   5.676  0.4082 -0.5794 -0.3216
   20DOPE   H9X 2553   7.567   5.445   5.722  0.1666  0.1028  1.1027
   20DOPE  C310 2554   7.528   5.627   5.622 -0.0405 -0.0202  0.7704
   20DOPE  H10X 2555   7.633   5.657   5.638  0.1110 -0.8239  1.3414
   20DOPE  C311 2556   7.434   5.729   5.569  0.1232 -0.2514 -0.4264
   20DOPE  H11X 2557   7.329   5.695   5.570 -1.1786  3.2555 -1.2889
   20DOPE  H11Y 2558   7.454   5.814   5.638  0.6260 -1.3446  0.8141
   20DOPE  C312 2559   7.462   5.784   5.427 -0.2581 -0.0082  0.1317
   20DOPE  H12X 2560   7.570   5.809   5.416 -0.3914  1.2180  1.3362
   20DOPE  H12Y 2561   7.411   5.882   5.413 -0.1659 -0.1953 -1.6662
   20DOPE  C313 2562   7.422   5.688   5.321 -0.6239 -0.1082  0.3874
   20DOPE  H13X 2563   7.466   5.730   5.229  0.7565  1.8413  1.8552
   20DOPE  H13Y 2564   7.462   5.584   5.330 -4.8878 -1.8336  2.2754
   20DOPE  C314 2565   7.272   5.683   5.290  0.7470  0.3563 -0.1881
   20DOPE  H14X 2566   7.226   5.784   5.285 -0.5118 -0.2398 -1.0896
   20DOPE  H14Y 2567   7.212   5.640   5.374  0.3366  1.0517 -0.1127
   20DOPE  C315 2568   7.246   5.619   5.151  0.1100  0.1765  0.6033
   20DOPE  H15X 2569   7.274   5.512   5.161  1.8553  0.6326  0.8916
   20DOPE  H15Y 2570   7.303   5.677   5.076  0.7771  0.7464  1.5372
   20DOPE  C316 2571   7.097   5.630   5.114 -0.0943  0.1841  0.2169
   20DOPE  H16X 2572   7.066   5.737   5.113  2.6509  1.0610  1.0402
   20DOPE  H16Y 2573   7.037   5.574   5.189  0.2905  0.5001  0.7676
   20DOPE  C317 2574   7.066   5.575   4.967 -0.3380  0.0291 -0.1080
   20DOPE  H17X 2575   7.145   5.629   4.910  0.4009 -0.1072  0.7775
   20DOPE  H17Y 2576   7.096   5.468   4.963  1.0419  0.4258 -1.5612
   20DOPE  C318 2577   6.916   5.592   4.919 -0.6220 -0.4260 -0.1885
   20DOPE  H18X 2578   6.908   5.560   4.813  2.3314  2.3103 -1.3737
   20DOPE  H18Y 2579   6.841   5.546   4.987 -2.1728  1.3352 -0.6251
   20DOPE  H18Z 2580   6.893   5.700   4.918  0.4782 -0.1621  0.6294
   21DOPE     N 2581   3.474   5.460   6.760 -0.1970 -0.5815  0.7062
   21DOPE   HN1 2582   3.460   5.561   6.781  2.1137  0.3276 -1.6588
   21DOPE   HN2 2583   3.381   5.417   6.739 -0.7784  0.7446  0.4614
   21DOPE   HN3 2584   3.512   5.407   6.841 -0.4882 -0.9952  0.5759
   21DOPE   C12 2585   3.550   5.442   6.632  0.0055  0.3062  0.4001
   21DOPE  H12A 2586   3.614   5.532   6.615  1.4211 -0.2615  2.3029
   21DOPE  H12B 2587   3.467   5.446   6.559  0.6968  0.9080 -0.3799
   21DOPE   C11 2588   3.643   5.315   6.636  0.1260 -0.7643  0.1078
   21DOPE  H11A 2589   3.702   5.310   6.541 -0.0317  0.8118 -0.0916
   21DOPE  H11B 2590   3.582   5.223   6.647  0.7592 -0.9916  2.2008
   21DOPE     P 2591   3.789   5.201   6.818 -0.2683 -0.0202  0.0154
   21DOPE   O13 2592   3.687   5.116   6.882 -0.2405 -0.7282 -0.2740
   21DOPE   O14 2593   3.903   5.260   6.900  0.2587  0.9108  0.4737
   21DOPE   O11 2594   3.846   5.122   6.694  1.1166 -0.1517 -0.3697
   21DOPE   O12 2595   3.722   5.323   6.750 -0.1689 -0.2113  0.1263
   21DOPE    C1 2596   3.977   5.067   6.689  0.2562 -0.4122 -0.0525
   21DOPE    HA 2597   3.985   4.995   6.605  0.7148 -1.5023  0.8991
   21DOPE    HB 2598   3.995   4.997   6.773 -0.5514 -0.2567  0.2565
   21DOPE    C2 2599   4.088   5.173   6.658  0.6075  0.3562  0.3773
   21DOPE    HS 2600   4.107   5.234   6.749  1.5673  1.5202 -0.5650
   21DOPE   O21 2601   4.050   5.260   6.549 -0.0898 -0.0850 -0.3476
   21DOPE   C21 2602   4.096   5.386   6.535  0.3434  0.4438  0.8898
   21DOPE   O22 2603   4.175   5.440   6.609  1.0072  0.0842 -0.0153
   21DOPE   C22 2604   4.040   5.441   6.403  0.1034  0.3228  0.4683
   21DOPE   H2R 2605   4.054   5.371   6.318 -2.5743  1.8642 -1.4032
   21DOPE   H2S 2606   4.103   5.525   6.367 -0.3040  0.0024 -1.0398
   21DOPE    C3 2607   4.232   5.115   6.628  0.2469  0.1311 -0.3038
   21DOPE    HX 2608   4.255   5.052   6.717 -0.7802 -3.3689 -2.3274
   21DOPE    HY 2609   4.308   5.194   6.609 -0.1617  0.8548  0.9507
   21DOPE   O31 2610   4.226   5.022   6.525  0.0647  0.3708  0.2577
   21DOPE   C31 2611   4.264   5.067   6.409  0.6749 -0.1897 -0.5117
   21DOPE   O32 2612   4.286   5.180   6.384  0.8367 -0.4602  0.9868
   21DOPE   C32 2613   4.276   4.954   6.310  0.6680  0.1579 -0.2358
   21DOPE   H2X 2614   4.195   4.879   6.326 -1.8823  2.5760 -1.0249
   21DOPE   H2Y 2615   4.257   5.004   6.213  1.1771 -0.4948 -0.6832
   21DOPE   C23 2616   3.895   5.472   6.415 -0.1588  0.2804  0.2573
   21DOPE   H3R 2617   3.868   5.529   6.507  0.1282  0.7464  0.0576
   21DOPE   H3S 2618   3.835   5.380   6.433 -0.5636  0.6249  0.6917
   21DOPE   C24 2619   3.840   5.564   6.306  0.0887 -0.1878 -0.4416
   21DOPE   H4R 2620   3.916   5.644   6.293  1.4180 -1.2762  0.3863
   21DOPE   H4S 2621   3.751   5.620   6.341 -0.6084 -0.0762 -2.3122
   21DOPE   C25 2622   3.823   5.489   6.175 -0.3735 -0.4912 -0.0829
   21DOPE   H5R 2623   3.751   5.408   6.199 -1.3381  1.1372  2.9888
   21DOPE   H5S 2624   3.923   5.452   6.144 -1.1635 -1.1649 -1.9699
   21DOPE   C26 2625   3.769   5.573   6.058  0.0936  0.4848  0.6086
   21DOPE   H6R 2626   3.839   5.656   6.036 -0.2723  0.6125 -0.0999
   21DOPE   H6S 2627   3.680   5.630   6.093  0.1621  0.1104  1.4158
   21DOPE   C27 2628   3.720   5.481   5.941 -0.2744  0.4009  0.0522
   21DOPE   H7R 2629   3.635   5.524   5.884  1.1937  0.9823 -1.8142
   21DOPE   H7S 2630   3.670   5.398   5.995 -0.8118  2.1669  2.4479
   21DOPE   C28 2631   3.833   5.439   5.841  0.6446  0.2765 -0.5591
   21DOPE   H8R 2632   3.794   5.369   5.764  0.4264 -0.2758  0.0369
   21DOPE   H8S 2633   3.906   5.379   5.899 -0.0225  0.1664  0.1905
   21DOPE   C29 2634   3.887   5.558   5.769  0.3754  0.4407  0.4493
   21DOPE   H9R 2635   3.993   5.570   5.796  0.2311 -0.4771  1.5004
   21DOPE  C210 2636   3.828   5.637   5.678  0.0388  0.5861  0.0633
   21DOPE  H10R 2637   3.887   5.715   5.629 -0.9435  0.7976 -0.8122
   21DOPE  C211 2638   3.682   5.619   5.636  0.2534 -0.5462  0.4010
   21DOPE  H11R 2639   3.617   5.670   5.711  1.6096 -0.2053  1.3936
   21DOPE  H11S 2640   3.641   5.516   5.633 -0.7892 -0.1207 -0.4393
   21DOPE  C212 2641   3.644   5.675   5.496 -0.4479 -0.3981  0.5328
   21DOPE  H12R 2642   3.538   5.643   5.484 -0.1344 -1.7892  1.3679
   21DOPE  H12S 2643   3.700   5.610   5.426 -1.5144  0.7897 -1.5454
   21DOPE  C213 2644   3.674   5.819   5.452  0.8654  0.5837  0.2432
   21DOPE  H13R 2645   3.782   5.828   5.429  0.8212 -1.5176 -1.0436
   21DOPE  H13S 2646   3.640   5.893   5.528 -0.7265 -1.0191  1.1680
   21DOPE  C214 2647   3.600   5.845   5.325 -0.3386 -0.7418  0.1610
   21DOPE  H14R 2648   3.489   5.847   5.335 -0.4169  1.4370 -0.5253
   21DOPE  H14S 2649   3.623   5.760   5.258  1.5866 -0.4903  0.4373
   21DOPE  C215 2650   3.639   5.978   5.251  0.2483  0.0336 -0.1346
   21DOPE  H15R 2651   3.674   6.054   5.324 -0.9028 -0.3048  0.7923
   21DOPE  H15S 2652   3.551   6.027   5.205 -0.1259  1.8560  2.3403
   21DOPE  C216 2653   3.738   5.959   5.128  0.2642  0.2807  0.5931
   21DOPE  H16R 2654   3.832   5.914   5.165 -0.3646 -0.8898  0.8164
   21DOPE  H16S 2655   3.771   6.060   5.096  2.4342 -0.4809  0.2994
   21DOPE  C217 2656   3.672   5.884   5.006 -0.2960  0.2709  0.5841
   21DOPE  H17R 2657   3.575   5.933   4.983 -0.3009 -0.7742 -1.8567
   21DOPE  H17S 2658   3.656   5.776   5.026 -0.4586 -0.4544 -2.9086
   21DOPE  C218 2659   3.761   5.894   4.881 -0.0577  0.1056 -0.0730
   21DOPE  H18R 2660   3.754   5.999   4.847 -1.7327  1.1479  3.1239
   21DOPE  H18S 2661   3.709   5.834   4.803  0.8901 -1.1783  0.2543
   21DOPE  H18T 2662   3.865   5.855   4.892 -0.3422 -1.2462 -1.7100
   21DOPE   C33 2663   4.412   4.881   6.323  0.9526  0.2672 -0.2335
   21DOPE   H3X 2664   4.402   4.811   6.236  0.0416  0.4532 -0.2860
   21DOPE   H3Y 2665   4.425   4.825   6.418  2.4553 -0.3827 -0.7750
   21DOPE   C34 2666   4.538   4.961   6.299  1.0434 -0.0099  0.0404
   21DOPE   H4X 2667   4.537   5.041   6.376 -1.5184  0.1492 -0.0530
   21DOPE   H4Y 2668   4.627   4.895   6.310  0.2032 -1.1249  0.4387
   21DOPE   C35 2669   4.528   5.024   6.160  0.8022  0.0904  0.5744
   21DOPE   H5X 2670   4.476   5.122   6.151 -0.6427 -0.8456 -4.4903
   21DOPE   H5Y 2671   4.475   4.956   6.091  0.6948  0.1113  0.6363
   21DOPE   C36 2672   4.660   5.051   6.093 -0.2501 -0.2914  0.6191
   21DOPE   H6X 2673   4.716   4.956   6.106  2.9851  1.6154  1.6777
   21DOPE   H6Y 2674   4.723   5.128   6.141 -2.4748  2.2141 -0.2277
   21DOPE   C37 2675   4.670   5.093   5.943 -0.8985  0.0458  0.0979
   21DOPE   H7X 2676   4.775   5.125   5.929 -1.0584 -0.1906 -1.9354
   21DOPE   H7Y 2677   4.671   5.010   5.868  0.4182  0.1885 -0.0637
   21DOPE   C38 2678   4.575   5.211   5.906 -0.4800  0.6102  0.3194
   21DOPE   H8X 2679   4.611   5.299   5.964  1.3549 -0.6411  1.1788
   21DOPE   H8Y 2680   4.472   5.173   5.917  0.6406 -2.7432  0.3733
   21DOPE   C39 2681   4.600   5.251   5.760 -0.5233 -0.2501  0.2397
   21DOPE   H9X 2682   4.659   5.185   5.694  0.1007  1.6520 -1.1733
   21DOPE  C310 2683   4.568   5.376   5.712 -0.3645  0.5438 -0.1690
   21DOPE  H10X 2684   4.572   5.407   5.606 -0.8682  0.9654 -0.0675
   21DOPE  C311 2685   4.499   5.479   5.791  0.0751 -0.4719 -0.7425
   21DOPE  H11X 2686   4.482   5.447   5.896  0.3563  1.2155 -0.1456
   21DOPE  H11Y 2687   4.564   5.569   5.790 -0.5021 -0.0459 -0.6763
   21DOPE  C312 2688   4.360   5.506   5.724  0.0288 -0.5955  0.3071
   21DOPE  H12X 2689   4.292   5.543   5.804  0.2955  1.2244 -0.2710
   21DOPE  H12Y 2690   4.319   5.406   5.699 -2.1993  0.2306  0.4251
   21DOPE  C313 2691   4.358   5.607   5.607 -0.4690 -0.2019  0.5310
   21DOPE  H13X 2692   4.371   5.709   5.648 -1.6633  0.0553  0.3005
   21DOPE  H13Y 2693   4.442   5.585   5.537 -1.3854  0.0187 -0.6663
   21DOPE  C314 2694   4.229   5.602   5.531  0.7236  0.5026 -0.2245
   21DOPE  H14X 2695   4.143   5.637   5.592  0.3229 -0.9533  0.0859
   21DOPE  H14Y 2696   4.204   5.497   5.507  1.8515 -0.4219  2.3199
   21DOPE  C315 2697   4.233   5.706   5.412 -0.1848 -0.4474  0.1531
   21DOPE  H15X 2698   4.317   5.680   5.344 -0.7180  0.1247 -0.7431
   21DOPE  H15Y 2699   4.254   5.807   5.454  2.1859 -1.1716  0.8637
   21DOPE  C316 2700   4.114   5.697   5.311  0.6866  0.2315 -0.6052
   21DOPE  H16X 2701   4.150   5.745   5.217 -0.5748 -0.0940 -1.2667
   21DOPE  H16Y 2702   4.020   5.742   5.347  2.2811  3.2159  0.2082
   21DOPE  C317 2703   4.067   5.559   5.270 -0.6092 -0.3436  0.6493
   21DOPE  H17X 2704   4.157   5.495   5.283 -0.1933  0.4477  1.7797
   21DOPE  H17Y 2705   3.990   5.510   5.333 -0.5258  1.7328  2.4772
   21DOPE  C318 2706   4.034   5.561   5.115 -0.4080 -0.3651  0.3268
   21DOPE  H18X 2707   3.969   5.479   5.080 -0.1856 -1.0299  1.4249
   21DOPE  H18Y 2708   3.986   5.658   5.089 -0.7649 -0.5134  0.4303
   21DOPE  H18Z 2709   4.124   5.557   5.049  0.2744 -0.3427  1.2280
   22DOPE     N 2710   1.140   4.256   7.228 -0.1746  0.2221 -0.0378
   22DOPE   HN1 2711   1.090   4.330   7.282  0.2540  1.2438 -1.0115
   22DOPE   HN2 2712   1.120   4.159   7.259  1.5153 -0.7783 -1.8965
   22DOPE   HN3 2713   1.243   4.272   7.235  0.4495 -2.9316 -0.5826
   22DOPE   C12 2714   1.114   4.274   7.080  1.5643 -0.6108  0.4904
   22DOPE  H12A 2715   1.146   4.376   7.049  0.0685 -0.1427  0.4237
   22DOPE  H12B 2716   1.005   4.262   7.063  1.5772 -0.7839  0.5237
   22DOPE   C11 2717   1.193   4.181   6.985  0.3516 -0.4115  0.0047
   22DOPE  H11A 2718   1.300   4.211   6.977  0.3770 -0.9905 -2.6955
   22DOPE  H11B 2719   1.147   4.183   6.885 -0.6156 -2.3206  0.3723
   22DOPE     P 2720   1.098   3.935   6.994 -0.0800  0.3940  0.2148
   22DOPE   O13 2721   0.961   3.979   7.045 -0.5000 -0.3961 -0.2725
   22DOPE   O14 2722   1.136   3.802   7.046  0.1467 -0.7872 -0.3244
   22DOPE   O11 2723   1.096   3.931   6.837 -0.1977  0.6022  0.5018
   22DOPE   O12 2724   1.201   4.047   7.037 -0.0666  0.2299 -0.0855
   22DOPE    C1 2725   1.192   3.862   6.758  0.4874  0.3619 -0.3874
   22DOPE    HA 2726   1.159   3.798   6.673  0.1194 -0.7827  0.5914
   22DOPE    HB 2727   1.251   3.789   6.818 -0.6762 -1.6099 -1.5113
   22DOPE    C2 2728   1.299   3.966   6.709  0.6013  0.2666 -0.4752
   22DOPE    HS 2729   1.316   4.042   6.789  1.2485  0.2854 -0.6255
   22DOPE   O21 2730   1.229   4.041   6.605  0.0524 -0.3973 -0.6880
   22DOPE   C21 2731   1.291   4.134   6.535  0.2244  0.6899  0.0250
   22DOPE   O22 2732   1.403   4.175   6.563 -0.2991 -0.5160  0.4071
   22DOPE   C22 2733   1.184   4.173   6.432 -0.2593 -0.1963 -0.3260
   22DOPE   H2R 2734   1.129   4.262   6.466 -2.0164 -1.4436  0.2312
   22DOPE   H2S 2735   1.104   4.096   6.419  0.7357 -1.2552 -0.4107
   22DOPE    C3 2736   1.438   3.911   6.673 -0.1699 -0.2812  0.4947
   22DOPE    HX 2737   1.467   3.842   6.756 -1.3749 -0.3286  0.8951
   22DOPE    HY 2738   1.523   3.982   6.674 -0.9050  0.6619  2.9239
   22DOPE   O31 2739   1.429   3.836   6.545 -0.2799  0.0222 -0.0994
   22DOPE   C31 2740   1.524   3.758   6.518  0.4718 -0.0159  0.5793
   22DOPE   O32 2741   1.627   3.747   6.587  0.1402  0.3957 -0.5384
   22DOPE   C32 2742   1.482   3.676   6.397 -0.2714 -0.0386  0.1971
   22DOPE   H2X 2743   1.570   3.679   6.329  1.4307 -0.9456  2.2520
   22DOPE   H2Y 2744   1.459   3.573   6.431 -0.7610  0.2265  0.6875
   22DOPE   C23 2745   1.252   4.192   6.292 -0.9913 -0.0766 -0.6875
   22DOPE   H3R 2746   1.299   4.094   6.268 -1.1698 -0.5056  0.6010
   22DOPE   H3S 2747   1.335   4.264   6.307  0.8249 -2.3804  1.2890
   22DOPE   C24 2748   1.151   4.232   6.191  0.0054  0.3712  0.1131
   22DOPE   H4R 2749   1.098   4.320   6.231 -2.1935 -0.9507  0.2357
   22DOPE   H4S 2750   1.076   4.151   6.177  0.8411 -0.5958  0.9899
   22DOPE   C25 2751   1.216   4.260   6.060 -0.6520  0.6046  0.9270
   22DOPE   H5R 2752   1.278   4.169   6.046 -3.8769 -1.5953 -0.0890
   22DOPE   H5S 2753   1.288   4.345   6.056  2.0604 -1.5837  0.3332
   22DOPE   C26 2754   1.119   4.287   5.942  0.4688 -0.4168  0.0926
   22DOPE   H6R 2755   1.062   4.382   5.939  1.4132  0.2115  1.3307
   22DOPE   H6S 2756   1.042   4.206   5.942 -1.0102  0.9487  0.1817
   22DOPE   C27 2757   1.205   4.286   5.806  0.6759 -0.4783 -0.0739
   22DOPE   H7R 2758   1.269   4.195   5.810 -0.3924 -1.3804 -2.0174
   22DOPE   H7S 2759   1.277   4.370   5.811 -0.1273  0.1440  1.6445
   22DOPE   C28 2760   1.122   4.290   5.673 -0.1808  0.4419 -0.2352
   22DOPE   H8R 2761   1.054   4.378   5.669  1.0895  1.5300  1.0963
   22DOPE   H8S 2762   1.056   4.200   5.672  1.7457 -1.1251  1.7177
   22DOPE   C29 2763   1.214   4.278   5.555  0.6549 -0.3940 -0.4222
   22DOPE   H9R 2764   1.276   4.368   5.542 -2.3877  2.0576  0.5937
   22DOPE  C210 2765   1.229   4.175   5.470  0.1325 -0.2259  0.2492
   22DOPE  H10R 2766   1.304   4.193   5.392 -0.3347  2.1307  0.2734
   22DOPE  C211 2767   1.162   4.039   5.471  0.1191  0.1322 -0.0952
   22DOPE  H11R 2768   1.056   4.046   5.501 -0.5515  2.1769 -2.5757
   22DOPE  H11S 2769   1.206   3.981   5.555  0.1246  2.4935  1.6301
   22DOPE  C212 2770   1.178   3.956   5.347  0.4225  0.1937  0.3135
   22DOPE  H12R 2771   1.278   3.910   5.334  0.6579  0.2654  1.7073
   22DOPE  H12S 2772   1.135   4.011   5.260 -4.2756 -1.1533  1.4838
   22DOPE  C213 2773   1.080   3.838   5.359  0.1050  0.4592 -0.1330
   22DOPE  H13R 2774   0.987   3.886   5.397 -1.4063 -1.6335 -1.0463
   22DOPE  H13S 2775   1.115   3.764   5.433 -0.2159 -0.4839 -0.9078
   22DOPE  C214 2776   1.053   3.757   5.226  0.2242  0.7570 -0.1700
   22DOPE  H14R 2777   1.143   3.719   5.174  0.0392  1.6844 -1.2009
   22DOPE  H14S 2778   1.000   3.834   5.166 -1.8098 -1.3015 -1.1870
   22DOPE  C215 2779   0.947   3.645   5.224  0.2935 -0.1664 -0.8992
   22DOPE  H15R 2780   0.976   3.563   5.293  0.6384  1.8708  1.4921
   22DOPE  H15S 2781   0.943   3.604   5.121  2.2190 -1.8428 -0.3607
   22DOPE  C216 2782   0.812   3.700   5.266  0.7414  0.4210  0.0802
   22DOPE  H16R 2783   0.776   3.778   5.195 -1.7321  1.4230  2.2891
   22DOPE  H16S 2784   0.826   3.764   5.356  1.9077 -1.2609  1.1602
   22DOPE  C217 2785   0.708   3.588   5.274 -0.1891 -0.2889  0.4681
   22DOPE  H17R 2786   0.708   3.529   5.179 -4.0939 -1.0380  0.7491
   22DOPE  H17S 2787   0.611   3.642   5.284  1.0197  2.0598  0.1031
   22DOPE  C218 2788   0.728   3.490   5.394 -0.6478  0.1468 -0.6004
   22DOPE  H18R 2789   0.725   3.546   5.490 -1.2137 -1.2663  0.2368
   22DOPE  H18S 2790   0.828   3.444   5.380 -0.5228 -0.3840  1.7529
   22DOPE  H18T 2791   0.656   3.408   5.409 -1.8969  1.2467 -0.3839
   22DOPE   C33 2792   1.353   3.726   6.318 -0.7390  0.2303  0.0455
   22DOPE   H3X 2793   1.360   3.835   6.299  1.7901  0.1931  0.4040
   22DOPE   H3Y 2794   1.265   3.714   6.384  1.1825  2.1290  3.1908
   22DOPE   C34 2795   1.321   3.650   6.190  1.0252 -0.3358 -0.0871
   22DOPE   H4X 2796   1.299   3.542   6.204  1.9425 -0.6827 -1.1582
   22DOPE   H4Y 2797   1.231   3.702   6.151  1.5459  1.7511  1.3134
   22DOPE   C35 2798   1.420   3.648   6.081 -0.2576 -0.4325  0.3111
   22DOPE   H5X 2799   1.524   3.618   6.108  0.6097  2.0610 -0.0002
   22DOPE   H5Y 2800   1.433   3.752   6.043 -0.3003 -0.5056  0.0971
   22DOPE   C36 2801   1.371   3.572   5.957  0.3330  0.0235  0.7013
   22DOPE   H6X 2802   1.264   3.595   5.938 -0.3250 -1.4440  2.3819
   22DOPE   H6Y 2803   1.386   3.464   5.978  0.1065  0.0105  0.8003
   22DOPE   C37 2804   1.448   3.604   5.831 -0.3324  0.0706  0.4124
   22DOPE   H7X 2805   1.454   3.713   5.815 -1.0340  0.0480 -0.0486
   22DOPE   H7Y 2806   1.553   3.572   5.851  0.5184  3.0810  1.2946
   22DOPE   C38 2807   1.393   3.536   5.709 -0.2433 -0.1627  0.2611
   22DOPE   H8X 2808   1.297   3.591   5.697 -0.3134  1.1880  4.8905
   22DOPE   H8Y 2809   1.366   3.432   5.736  1.0405 -0.4068  0.6583
   22DOPE   C39 2810   1.477   3.537   5.585 -0.0548 -1.9286  0.5417
   22DOPE   H9X 2811   1.585   3.542   5.605 -0.0852  2.6579  0.5999
   22DOPE  C310 2812   1.427   3.532   5.457  0.1138 -0.1867 -0.2627
   22DOPE  H10X 2813   1.494   3.537   5.370  2.2121 -0.1915  1.2820
   22DOPE  C311 2814   1.281   3.515   5.424 -0.0869  0.4905  0.4573
   22DOPE  H11X 2815   1.212   3.522   5.510 -1.8033 -0.5254 -0.7652
   22DOPE  H11Y 2816   1.258   3.601   5.358 -1.5365 -1.1356 -1.2785
   22DOPE  C312 2817   1.250   3.379   5.355  0.2523 -0.0400  0.4473
   22DOPE  H12X 2818   1.139   3.391   5.350  0.2095 -0.7121 -0.7723
   22DOPE  H12Y 2819   1.261   3.286   5.414  0.4017 -1.7949 -2.1465
   22DOPE  C313 2820   1.293   3.358   5.212  0.2190  0.5333 -0.2520
   22DOPE  H13X 2821   1.284   3.447   5.146  1.3962 -0.8754 -2.4599
   22DOPE  H13Y 2822   1.404   3.345   5.212  0.3612  1.5418  1.0809
   22DOPE  C314 2823   1.241   3.227   5.147  0.0760 -0.7731 -0.2520
   22DOPE  H14X 2824   1.132   3.210   5.163 -0.1485 -0.4461 -1.3725
   22DOPE  H14Y 2825   1.284   3.139   5.201 -0.5886 -1.1700 -0.3546
   22DOPE  C315 2826   1.253   3.223   4.999 -0.5341  0.6959 -0.1511
   22DOPE  H15X 2827   1.164   3.275   4.957 -0.1015  0.3917 -1.4864
   22DOPE  H15Y 2828   1.240   3.115   4.978  1.6200  0.1200  1.0897
   22DOPE  C316 2829   1.379   3.267   4.934 -0.4022 -0.3875  0.3690
   22DOPE  H16X 2830   1.467   3.252   5.000  0.0393  1.9570  0.4186
   22DOPE  H16Y 2831   1.362   3.375   4.912 -0.9244 -0.2395  1.4311
   22DOPE  C317 2832   1.406   3.190   4.802  0.1253 -0.3280 -0.8441
   22DOPE  H17X 2833   1.515   3.191   4.778  0.2450 -2.5261 -0.5499
   22DOPE  H17Y 2834   1.391   3.082   4.819  1.0280 -0.2105  0.9606
   22DOPE  C318 2835   1.334   3.238   4.677 -0.3162 -0.6820  0.7010
   22DOPE  H18X 2836   1.364   3.167   4.596  1.4090 -1.1187  1.6773
   22DOPE  H18Y 2837   1.227   3.234   4.704 -0.2242 -2.3636  0.9429
   22DOPE  H18Z 2838   1.378   3.336   4.649 -1.5082 -0.6482 -1.2820
   23DOPE     N 2839   5.958   6.110   7.069 -0.5237 -0.0084 -0.3417
   23DOPE   HN1 2840   5.909   6.182   7.126 -0.7253 -1.1563  0.9781
   23DOPE   HN2 2841   6.000   6.042   7.135  1.4980  0.1280 -1.3909
   23DOPE   HN3 2842   6.040   6.158   7.025 -0.3538  0.7173  0.7411
   23DOPE   C12 2843   5.861   6.056   6.959  0.3650 -0.3791  0.8880
   23DOPE  H12A 2844   5.908   5.984   6.888 -0.2701  0.9266 -0.9237
   23DOPE  H12B 2845   5.823   6.141   6.898 -0.7245 -1.4466  0.0216
   23DOPE   C11 2846   5.743   5.987   7.019  0.1681 -0.5008  0.0044
   23DOPE  H11A 2847   5.778   5.892   7.066  0.1773 -0.6644 -0.3311
   23DOPE  H11B 2848   5.671   5.964   6.938 -2.2933  1.8408  1.3743
   23DOPE     P 2849   5.637   6.218   7.122  0.1903 -0.0463 -0.3793
   23DOPE   O13 2850   5.766   6.288   7.162  0.3175  0.5806  0.1491
   23DOPE   O14 2851   5.525   6.246   7.210  0.2339 -0.4279 -0.3619
   23DOPE   O11 2852   5.600   6.254   6.967  0.0111  0.2350 -0.2331
   23DOPE   O12 2853   5.677   6.066   7.124  0.0852  0.4544 -0.6655
   23DOPE    C1 2854   5.486   6.202   6.893 -0.1942 -0.2359  0.4036
   23DOPE    HA 2855   5.437   6.127   6.957  0.0057 -1.7100 -1.1156
   23DOPE    HB 2856   5.519   6.135   6.811 -0.4494  0.7810 -0.5593
   23DOPE    C2 2857   5.384   6.316   6.853 -0.2175  0.6866 -0.1421
   23DOPE    HS 2858   5.294   6.269   6.809 -0.7839  0.5835  1.0686
   23DOPE   O21 2859   5.436   6.396   6.750 -0.0133  0.3684  0.2570
   23DOPE   C21 2860   5.466   6.339   6.636  0.0841 -0.2381  0.4050
   23DOPE   O22 2861   5.438   6.229   6.597  0.4330 -0.0517  0.0106
   23DOPE   C22 2862   5.536   6.448   6.541  0.3437  0.4401 -0.1719
   23DOPE   H2R 2863   5.492   6.424   6.442 -1.7831 -1.1077  1.0726
   23DOPE   H2S 2864   5.644   6.422   6.551  0.0002 -0.5131  1.3548
   23DOPE    C3 2865   5.337   6.412   6.971 -0.1992  0.0587  0.2087
   23DOPE    HX 2866   5.421   6.476   7.003 -0.9135  0.4356  1.4039
   23DOPE    HY 2867   5.314   6.353   7.063 -1.6884  0.5689  0.1927
   23DOPE   O31 2868   5.214   6.476   6.932  0.6442  0.4602  0.2823
   23DOPE   C31 2869   5.222   6.599   6.876 -0.1100  0.7663  0.7779
   23DOPE   O32 2870   5.328   6.648   6.843 -0.3460 -0.0210 -0.1875
   23DOPE   C32 2871   5.087   6.663   6.861  0.5015 -1.1436 -0.0220
   23DOPE   H2X 2872   5.031   6.595   6.793  0.1744  0.5259 -1.4742
   23DOPE   H2Y 2873   5.040   6.661   6.961 -0.7372 -0.8408 -0.5898
   23DOPE   C23 2874   5.514   6.602   6.580  0.2963 -0.2462  1.4200
   23DOPE   H3R 2875   5.546   6.631   6.682  0.7906  2.4568  0.5622
   23DOPE   H3S 2876   5.405   6.622   6.576  0.6782  1.9170 -1.1301
   23DOPE   C24 2877   5.572   6.705   6.477  0.5099  0.7009  1.0083
   23DOPE   H4R 2878   5.550   6.679   6.371 -1.1675  0.7477  1.3251
   23DOPE   H4S 2879   5.682   6.708   6.493  1.0412 -0.7781 -1.7480
   23DOPE   C25 2880   5.518   6.845   6.493  0.9238 -0.4630 -0.8266
   23DOPE   H5R 2881   5.474   6.864   6.594  2.5979 -2.0497  0.2698
   23DOPE   H5S 2882   5.437   6.866   6.419 -2.3604 -2.4635  1.8940
   23DOPE   C26 2883   5.635   6.948   6.469  0.2453 -0.0937 -0.7535
   23DOPE   H6R 2884   5.714   6.925   6.543 -1.0259  1.9446  1.3832
   23DOPE   H6S 2885   5.605   7.052   6.495 -0.6644 -0.7887  1.2644
   23DOPE   C27 2886   5.694   6.944   6.332  0.5828  0.0262 -0.0315
   23DOPE   H7R 2887   5.685   6.848   6.278  2.1423  0.3363 -0.9270
   23DOPE   H7S 2888   5.801   6.972   6.345  0.3069  1.0428  0.1343
   23DOPE   C28 2889   5.628   7.052   6.239  0.4764  0.1686  0.3076
   23DOPE   H8R 2890   5.640   7.158   6.272 -1.6322  1.2152 -1.8841
   23DOPE   H8S 2891   5.517   7.041   6.243  0.1695  2.8016  1.2407
   23DOPE   C29 2892   5.676   7.031   6.098 -0.2603  0.1446 -0.1275
   23DOPE   H9R 2893   5.785   7.018   6.087  0.2247  2.2965  1.4755
   23DOPE  C210 2894   5.598   7.023   5.996  0.1740 -0.0736  0.3016
   23DOPE  H10R 2895   5.643   7.007   5.897 -1.5675  0.4764 -0.6255
   23DOPE  C211 2896   5.442   7.046   5.990 -0.0341  0.7604 -0.1243
   23DOPE  H11R 2897   5.414   7.119   5.911  0.3280  0.6213 -0.3824
   23DOPE  H11S 2898   5.398   7.085   6.085 -0.8111 -1.8096  0.6611
   23DOPE  C212 2899   5.385   6.911   5.947  0.5169 -0.3188  0.2065
   23DOPE  H12R 2900   5.437   6.818   5.980 -2.0271 -2.3172 -1.0994
   23DOPE  H12S 2901   5.380   6.901   5.836  0.5219 -0.8319  0.2505
   23DOPE  C213 2902   5.246   6.889   5.996 -0.2890  0.6551 -0.2687
   23DOPE  H13R 2903   5.191   6.805   5.948 -0.0770 -0.5069  1.4214
   23DOPE  H13S 2904   5.185   6.981   5.985  0.4528  1.1239 -0.5500
   23DOPE  C214 2905   5.230   6.852   6.143 -0.1913  0.4074 -0.7620
   23DOPE  H14R 2906   5.127   6.869   6.181  0.6591  1.7784  1.1075
   23DOPE  H14S 2907   5.296   6.909   6.212  0.3862 -1.0571 -0.0687
   23DOPE  C215 2908   5.242   6.701   6.165 -0.8277  0.0492  0.3215
   23DOPE  H15R 2909   5.351   6.679   6.153 -0.5188  2.0467 -0.8687
   23DOPE  H15S 2910   5.203   6.645   6.078  2.4286  0.6722 -1.7318
   23DOPE  C216 2911   5.179   6.663   6.301 -0.2766  0.4306  0.6188
   23DOPE  H16R 2912   5.072   6.688   6.295 -0.5585 -0.5284  1.2760
   23DOPE  H16S 2913   5.232   6.711   6.387  0.0375 -2.1948  1.9988
   23DOPE  C217 2914   5.187   6.514   6.336 -0.2912 -0.4838 -0.1471
   23DOPE  H17R 2915   5.295   6.493   6.354 -0.0491  0.3030 -0.6379
   23DOPE  H17S 2916   5.137   6.462   6.252 -0.8451 -0.0643 -0.0805
   23DOPE  C218 2917   5.114   6.486   6.468 -0.0040 -0.2548 -0.2382
   23DOPE  H18R 2918   5.008   6.518   6.456 -0.5594 -2.0467 -0.3223
   23DOPE  H18S 2919   5.166   6.545   6.546 -1.6070  1.1665 -0.1698
   23DOPE  H18T 2920   5.121   6.378   6.491  0.5764 -0.0292  0.7040
   23DOPE   C33 2921   5.081   6.808   6.806  0.0229 -0.3068 -0.0104
   23DOPE   H3X 2922   5.144   6.881   6.860 -1.2238  0.2010  0.8235
   23DOPE   H3Y 2923   4.979   6.844   6.831  1.2201  3.0860  0.5272
   23DOPE   C34 2924   5.098   6.827   6.655 -0.0895  0.3968 -0.7563
   23DOPE   H4X 2925   5.188   6.771   6.624 -1.0513 -1.5641 -0.1893
   23DOPE   H4Y 2926   5.012   6.776   6.607 -0.8219  0.0067  0.8862
   23DOPE   C35 2927   5.107   6.973   6.621 -0.1727 -0.1219  0.3297
   23DOPE   H5X 2928   5.196   7.018   6.671 -1.5549  0.8988  1.9640
   23DOPE   H5Y 2929   5.010   7.009   6.662 -0.2858 -1.9053  1.7509
   23DOPE   C36 2930   5.117   7.003   6.476  0.0444 -0.9115 -0.5815
   23DOPE   H6X 2931   5.011   6.988   6.444 -0.1548  2.8129 -2.1205
   23DOPE   H6Y 2932   5.189   6.934   6.427 -1.0645 -2.1587 -0.5308
   23DOPE   C37 2933   5.129   7.156   6.437  0.5206 -0.1557 -0.2573
   23DOPE   H7X 2934   5.166   7.219   6.520  2.4505  0.1245 -1.2664
   23DOPE   H7Y 2935   5.204   7.167   6.355  0.4479  0.9880 -0.1752
   23DOPE   C38 2936   4.996   7.216   6.388 -0.5871  0.0365 -0.9197
   23DOPE   H8X 2937   4.922   7.207   6.470 -0.6933  1.4023 -0.8490
   23DOPE   H8Y 2938   4.956   7.154   6.305 -1.4310 -2.0268  0.9044
   23DOPE   C39 2939   5.019   7.360   6.357 -0.1473  0.1165  0.1825
   23DOPE   H9X 2940   5.054   7.425   6.438 -2.0206  0.2653  0.9156
   23DOPE  C310 2941   5.005   7.428   6.235  0.1008  0.5131 -0.3872
   23DOPE  H10X 2942   5.033   7.534   6.239  1.0257  0.2474  1.3363
   23DOPE  C311 2943   4.972   7.371   6.099  0.2582  0.1953 -0.0769
   23DOPE  H11X 2944   4.944   7.266   6.119  2.0301 -0.4758 -0.9503
   23DOPE  H11Y 2945   4.893   7.437   6.056  1.1335  1.1285 -0.2932
   23DOPE  C312 2946   5.087   7.359   5.999  0.3124  0.3539  0.4823
   23DOPE  H12X 2947   5.175   7.323   6.057  0.1949  0.6886  0.8732
   23DOPE  H12Y 2948   5.109   7.462   5.965 -1.2548  1.9781  3.8892
   23DOPE  C313 2949   5.037   7.276   5.878 -0.3330  0.0636 -0.0747
   23DOPE  H13X 2950   5.036   7.174   5.923  0.0685  1.1438  2.5486
   23DOPE  H13Y 2951   4.937   7.300   5.836  0.2764  2.1448 -0.4209
   23DOPE  C314 2952   5.140   7.282   5.767 -0.0203  0.3371  0.0917
   23DOPE  H14X 2953   5.232   7.224   5.793 -1.2912 -3.1149 -2.3988
   23DOPE  H14Y 2954   5.157   7.390   5.746 -1.0471  0.7780  1.4070
   23DOPE  C315 2955   5.092   7.222   5.634 -0.5385 -0.4032  0.6391
   23DOPE  H15X 2956   5.001   7.278   5.603  0.6344  0.4816 -1.3790
   23DOPE  H15Y 2957   5.076   7.113   5.647  1.4050 -0.8959 -0.7511
   23DOPE  C316 2958   5.203   7.234   5.527 -0.1776  0.4786 -0.8261
   23DOPE  H16X 2959   5.288   7.169   5.556 -3.0351 -3.5539 -0.6114
   23DOPE  H16Y 2960   5.227   7.341   5.508 -0.6583  0.2872 -2.7972
   23DOPE  C317 2961   5.153   7.175   5.392 -0.5307 -1.1393  0.4781
   23DOPE  H17X 2962   5.241   7.171   5.323 -1.2007 -1.0547 -0.4001
   23DOPE  H17Y 2963   5.124   7.068   5.392 -0.2625 -1.2448  2.3400
   23DOPE  C318 2964   5.038   7.259   5.333  0.1393 -0.1543 -0.8708
   23DOPE  H18X 2965   5.086   7.356   5.307  0.3588  0.2144  0.8166
   23DOPE  H18Y 2966   4.997   7.209   5.243 -0.1228 -1.5651  0.0036
   23DOPE  H18Z 2967   4.955   7.277   5.404 -1.9184 -1.5206 -2.7933
   24DOPE     N 2968   0.431   5.386   6.822 -0.0613 -0.4529  0.1811
   24DOPE   HN1 2969   0.344   5.444   6.826 -0.1451 -0.5489 -0.2702
   24DOPE   HN2 2970   0.512   5.445   6.793 -0.7179 -0.3066 -1.5086
   24DOPE   HN3 2971   0.413   5.317   6.746 -0.7366  1.8691 -1.9250
   24DOPE   C12 2972   0.447   5.317   6.959 -0.2614  0.3591 -0.5064
   24DOPE  H12A 2973   0.480   5.393   7.034 -0.3555  0.2907 -0.3939
   24DOPE  H12B 2974   0.524   5.238   6.946  1.9895  1.9612  1.9262
   24DOPE   C11 2975   0.312   5.253   7.003  0.0878  0.2887  0.0119
   24DOPE  H11A 2976   0.231   5.327   6.988  0.1713 -0.1531 -3.2325
   24DOPE  H11B 2977   0.321   5.229   7.111  0.7361 -0.9464 -0.2971
   24DOPE     P 2978   0.149   5.056   6.956  0.0323  0.6680  0.4191
   24DOPE   O13 2979   0.095   5.110   7.085 -0.2550 -0.0940  0.0705
   24DOPE   O14 2980   0.179   4.913   6.955  0.0061 -0.8015  0.2228
   24DOPE   O11 2981   0.046   5.081   6.842 -0.0810  0.1380 -0.4096
   24DOPE   O12 2982   0.277   5.143   6.916  0.4820  0.0426 -0.2230
   24DOPE    C1 2983   0.093   5.148   6.720 -0.7146 -0.8373 -0.0965
   24DOPE    HA 2984   0.155   5.239   6.739 -1.4079  0.2374 -2.5007
   24DOPE    HB 2985   0.008   5.181   6.656 -0.1129 -0.4509 -0.7074
   24DOPE    C2 2986   0.160   5.047   6.626 -0.2480 -0.2493  0.5340
   24DOPE    HS 2987   0.245   5.006   6.685  1.0056 -0.8755 -1.5980
   24DOPE   O21 2988   0.205   5.112   6.506 -0.0018  0.4650  0.4756
   24DOPE   C21 2989   0.286   5.211   6.516 -0.0969 -0.3460 -0.3327
   24DOPE   O22 2990   0.351   5.240   6.614  0.4245 -0.1616 -0.5158
   24DOPE   C22 2991   0.296   5.282   6.374  1.1959 -0.3330 -0.1599
   24DOPE   H2R 2992   0.193   5.321   6.356  0.2356 -2.2228  1.0091
   24DOPE   H2S 2993   0.310   5.202   6.298 -0.5311 -0.2533 -0.5976
   24DOPE    C3 2994   0.072   4.919   6.598 -0.1736 -0.5617  1.1295
   24DOPE    HX 2995  -0.012   4.952   6.534  1.8623 -1.0865 -2.0585
   24DOPE    HY 2996   0.038   4.867   6.690 -0.4366 -0.4294  1.1073
   24DOPE   O31 2997   0.146   4.828   6.514  0.0414 -0.0759  0.4881
   24DOPE   C31 2998   0.242   4.757   6.575 -0.2893 -0.1031  0.0191
   24DOPE   O32 2999   0.273   4.759   6.691 -0.4050 -0.1931 -0.0813
   24DOPE   C32 3000   0.286   4.650   6.485  0.3143  0.3118 -0.3212
   24DOPE   H2X 3001   0.208   4.594   6.429  1.6543 -0.3528 -1.5989
   24DOPE   H2Y 3002   0.366   4.694   6.421  0.4297 -0.2948 -0.6027
   24DOPE   C23 3003   0.414   5.386   6.367 -0.0446  0.0083 -0.4699
   24DOPE   H3R 3004   0.401   5.454   6.454 -0.9482 -0.8230  0.0728
   24DOPE   H3S 3005   0.406   5.456   6.281 -2.7940 -0.3756 -0.6179
   24DOPE   C24 3006   0.553   5.323   6.358  0.8341 -0.0276  0.0636
   24DOPE   H4R 3007   0.559   5.268   6.262  2.8846 -1.7111  1.0788
   24DOPE   H4S 3008   0.565   5.252   6.443 -0.8692 -0.1083  0.2852
   24DOPE   C25 3009   0.664   5.419   6.370  0.7124  0.0154  0.2535
   24DOPE   H5R 3010   0.751   5.350   6.374 -0.2619 -1.2475  0.2512
   24DOPE   H5S 3011   0.655   5.485   6.459 -0.4201 -1.3500  1.1947
   24DOPE   C26 3012   0.672   5.507   6.242 -0.1241 -0.1044 -0.4300
   24DOPE   H6R 3013   0.582   5.572   6.241  0.5474  0.8687 -0.0117
   24DOPE   H6S 3014   0.669   5.439   6.154  0.5487 -2.2941  1.1383
   24DOPE   C27 3015   0.786   5.597   6.232  0.4598 -0.6870 -0.8024
   24DOPE   H7R 3016   0.839   5.618   6.327  0.7403 -2.8244 -0.4295
   24DOPE   H7S 3017   0.745   5.695   6.198 -1.5695 -1.6261 -1.2387
   24DOPE   C28 3018   0.897   5.542   6.139 -0.4068 -0.0341 -0.1648
   24DOPE   H8R 3019   0.930   5.444   6.178 -0.9355  0.4823  1.6734
   24DOPE   H8S 3020   0.976   5.618   6.158  1.5099 -1.7020 -1.0430
   24DOPE   C29 3021   0.860   5.528   5.993 -0.1003  0.4120  0.9183
   24DOPE   H9R 3022   0.774   5.470   5.957 -0.0372  1.6167 -1.3622
   24DOPE  C210 3023   0.909   5.597   5.888  0.2819  0.1011 -0.5126
   24DOPE  H10R 3024   0.872   5.571   5.788 -0.4198  1.6167 -0.6702
   24DOPE  C211 3025   1.016   5.704   5.888 -0.2548  0.4862  0.2708
   24DOPE  H11R 3026   1.083   5.670   5.807 -1.4069 -0.9431 -0.1299
   24DOPE  H11S 3027   1.073   5.707   5.983 -0.8315  0.9346  0.6139
   24DOPE  C212 3028   0.956   5.845   5.854 -0.0998  0.1715 -0.3676
   24DOPE  H12R 3029   0.897   5.883   5.940  0.3331  0.0349 -0.0094
   24DOPE  H12S 3030   0.886   5.859   5.769  0.3748  1.5468 -0.5557
   24DOPE  C213 3031   1.067   5.945   5.822 -0.1062 -0.4954 -0.2375
   24DOPE  H13R 3032   1.119   5.904   5.734 -0.9776  1.0708 -1.5422
   24DOPE  H13S 3033   1.148   5.952   5.898 -0.9004 -2.0656  0.7994
   24DOPE  C214 3034   1.029   6.090   5.776 -0.1876 -0.9945 -0.4360
   24DOPE  H14R 3035   1.001   6.155   5.862 -0.0720 -0.0756 -1.0705
   24DOPE  H14S 3036   0.948   6.080   5.700  0.7726  1.4563 -1.9012
   24DOPE  C215 3037   1.145   6.148   5.690  0.5995 -0.3540  0.1676
   24DOPE  H15R 3038   1.168   6.079   5.606 -3.7963  1.5517 -2.9407
   24DOPE  H15S 3039   1.243   6.162   5.742  0.0992  0.8191  0.8281
   24DOPE  C216 3040   1.109   6.288   5.633  0.2819  0.2041  0.3507
   24DOPE  H16R 3041   1.098   6.360   5.716  0.6709 -0.2196  0.7767
   24DOPE  H16S 3042   1.008   6.283   5.587  1.3852 -1.1875 -2.1228
   24DOPE  C217 3043   1.213   6.348   5.529  0.3245  0.8257 -0.0452
   24DOPE  H17R 3044   1.171   6.415   5.451  1.6289  1.4426 -0.2405
   24DOPE  H17S 3045   1.251   6.256   5.479 -3.6191 -0.7687 -0.4758
   24DOPE  C218 3046   1.329   6.425   5.594 -0.5568  0.8788  0.1967
   24DOPE  H18R 3047   1.362   6.505   5.524  1.6686 -0.8845 -0.8912
   24DOPE  H18S 3048   1.417   6.358   5.606  1.0361  2.7596 -0.4158
   24DOPE  H18T 3049   1.290   6.476   5.685  1.0595  0.0756  1.3833
   24DOPE   C33 3050   0.382   4.540   6.553 -0.4206  0.4432  0.1191
   24DOPE   H3X 3051   0.318   4.495   6.631 -1.4438  0.0476 -0.9281
   24DOPE   H3Y 3052   0.478   4.583   6.591 -0.3531  0.0533  0.3867
   24DOPE   C34 3053   0.426   4.421   6.467 -0.5428  0.4453  0.6056
   24DOPE   H4X 3054   0.500   4.456   6.392 -0.7899 -0.1497  0.0789
   24DOPE   H4Y 3055   0.478   4.352   6.537  0.0779  0.8400  0.5489
   24DOPE   C35 3056   0.321   4.339   6.393 -0.1040 -0.2263 -0.3706
   24DOPE   H5X 3057   0.254   4.413   6.345 -0.5331  0.2485  0.9051
   24DOPE   H5Y 3058   0.257   4.271   6.453 -0.1241  1.0159  1.0678
   24DOPE   C36 3059   0.373   4.250   6.278 -0.0118 -0.5665 -0.4546
   24DOPE   H6X 3060   0.455   4.183   6.312 -1.7133 -2.7381 -0.4489
   24DOPE   H6Y 3061   0.412   4.322   6.203  0.2361 -2.1232 -1.8828
   24DOPE   C37 3062   0.266   4.170   6.207 -0.3793 -0.1537 -0.3851
   24DOPE   H7X 3063   0.236   4.081   6.265  1.9965 -0.3457  0.6199
   24DOPE   H7Y 3064   0.173   4.227   6.182 -0.1555  0.2193 -0.3757
   24DOPE   C38 3065   0.321   4.114   6.068  0.7068 -0.0741  0.0454
   24DOPE   H8X 3066   0.337   4.201   6.001  1.3696 -0.6150 -0.5175
   24DOPE   H8Y 3067   0.236   4.053   6.032  0.6638 -0.6529  1.0802
   24DOPE   C39 3068   0.442   4.021   6.082  0.3987 -0.9588 -0.2674
   24DOPE   H9X 3069   0.457   3.990   6.186  1.0304  2.1409  0.6727
   24DOPE  C310 3070   0.520   3.971   5.991 -0.4336 -0.2783  0.0656
   24DOPE  H10X 3071   0.611   3.916   6.020 -0.4382  0.0963  0.8159
   24DOPE  C311 3072   0.514   3.996   5.845 -0.4182 -0.2942  0.1093
   24DOPE  H11X 3073   0.439   4.074   5.818 -3.6414 -2.5944  1.7149
   24DOPE  H11Y 3074   0.617   4.024   5.813 -0.2822  0.1065  0.8870
   24DOPE  C312 3075   0.472   3.866   5.768  0.1794  0.1577 -0.2464
   24DOPE  H12X 3076   0.369   3.846   5.805  0.2670  0.2354  0.0383
   24DOPE  H12Y 3077   0.539   3.779   5.787  0.9533  0.6037 -0.8697
   24DOPE  C313 3078   0.475   3.887   5.619 -0.3342 -0.5583  0.3489
   24DOPE  H13X 3079   0.438   3.991   5.604 -0.1972 -0.1633  2.3939
   24DOPE  H13Y 3080   0.580   3.884   5.585 -0.8492  0.3372 -1.4573
   24DOPE  C314 3081   0.396   3.792   5.527  0.3130  0.1623 -0.4143
   24DOPE  H14X 3082   0.291   3.783   5.562  0.3897 -0.5771 -0.3453
   24DOPE  H14Y 3083   0.438   3.689   5.533  2.5241  0.9840 -0.8156
   24DOPE  C315 3084   0.387   3.842   5.378 -0.1372 -0.9382  0.3067
   24DOPE  H15X 3085   0.492   3.851   5.346 -0.0321 -1.0957  0.6065
   24DOPE  H15Y 3086   0.334   3.940   5.385  1.1665 -0.1708 -0.2809
   24DOPE  C316 3087   0.304   3.755   5.286  0.0445 -0.1366 -0.5551
   24DOPE  H16X 3088   0.203   3.740   5.329 -0.0669  2.8775  0.4729
   24DOPE  H16Y 3089   0.353   3.655   5.285 -0.1292 -0.2442  0.4773
   24DOPE  C317 3090   0.294   3.807   5.136 -0.7534 -0.2786  0.1807
   24DOPE  H17X 3091   0.233   3.724   5.094 -1.7085  0.2142  0.5608
   24DOPE  H17Y 3092   0.244   3.906   5.138  0.5499  0.4828 -1.7879
   24DOPE  C318 3093   0.423   3.826   5.063  0.2713  0.1538 -0.1117
   24DOPE  H18X 3094   0.467   3.724   5.062 -1.6467 -0.7118 -0.2140
   24DOPE  H18Y 3095   0.406   3.857   4.958 -0.2559 -1.3447 -0.4905
   24DOPE  H18Z 3096   0.490   3.902   5.110 -0.0823  0.9772 -0.9172
   25DOPE     N 3097   1.093   5.222   7.140 -0.0514 -0.4464  0.3625
   25DOPE   HN1 3098   1.117   5.265   7.232 -0.8022 -0.5949  0.6379
   25DOPE   HN2 3099   1.169   5.164   7.100 -1.6269 -2.3231 -0.0771
   25DOPE   HN3 3100   1.071   5.292   7.066 -0.9608 -0.8303  0.2604
   25DOPE   C12 3101   0.979   5.121   7.154 -0.0886  0.6414 -0.7983
   25DOPE  H12A 3102   0.972   5.078   7.052 -1.0436  0.2409 -0.5757
   25DOPE  H12B 3103   0.889   5.179   7.185  0.2628  0.6062  0.3608
   25DOPE   C11 3104   1.014   5.021   7.260  0.0523 -0.4449 -0.0010
   25DOPE  H11A 3105   0.919   4.969   7.283 -0.2820  1.2258  2.9250
   25DOPE  H11B 3106   1.038   5.079   7.351  2.1026  0.3476 -0.9823
   25DOPE     P 3107   1.116   4.797   7.182 -0.1311 -0.0835 -0.0210
   25DOPE   O13 3108   1.071   4.732   7.310  0.8672 -0.3042  0.3897
   25DOPE   O14 3109   1.233   4.750   7.109  0.8278  0.0269 -0.3866
   25DOPE   O11 3110   0.999   4.790   7.082  0.1139 -0.6397  0.0085
   25DOPE   O12 3111   1.135   4.950   7.221  0.0010 -0.0781 -0.5227
   25DOPE    C1 3112   1.000   4.716   6.959 -0.1216  0.0335 -1.3191
   25DOPE    HA 3113   0.907   4.655   6.955 -0.5855  0.5714  0.3485
   25DOPE    HB 3114   1.091   4.654   6.940 -0.3930 -0.1615 -2.0390
   25DOPE    C2 3115   0.996   4.808   6.839 -0.5479 -0.2555  0.4501
   25DOPE    HS 3116   1.076   4.884   6.851  0.4762 -1.1774 -0.2210
   25DOPE   O21 3117   0.862   4.853   6.817  0.0229 -0.5164  0.2124
   25DOPE   C21 3118   0.845   4.987   6.798  0.3622  0.4664  0.3331
   25DOPE   O22 3119   0.941   5.063   6.793  0.1882 -0.3610  0.4430
   25DOPE   C22 3120   0.699   5.018   6.794 -0.5034  0.6532  0.1968
   25DOPE   H2R 3121   0.702   5.110   6.855  1.3334 -0.7145  2.3069
   25DOPE   H2S 3122   0.650   4.933   6.847  0.6952  0.6165  1.2862
   25DOPE    C3 3123   1.045   4.733   6.712  0.1215 -0.1826  0.4381
   25DOPE    HX 3124   0.989   4.638   6.707 -0.2465 -0.0362  1.6068
   25DOPE    HY 3125   1.149   4.698   6.726 -0.0077 -0.0057  2.0507
   25DOPE   O31 3126   1.013   4.817   6.592 -0.2250 -0.2964  0.0957
   25DOPE   C31 3127   1.110   4.910   6.568  0.5413  0.0502 -0.1529
   25DOPE   O32 3128   1.215   4.917   6.634 -0.0161 -0.5226 -0.4777
   25DOPE   C32 3129   1.071   4.983   6.438  0.4400 -0.3261  0.3798
   25DOPE   H2X 3130   1.147   4.949   6.364  1.1575  0.4875  0.7295
   25DOPE   H2Y 3131   0.974   4.954   6.392  0.6078  2.7378 -2.2311
   25DOPE   C23 3132   0.651   5.030   6.648 -0.0972 -0.8178 -0.0197
   25DOPE   H3R 3133   0.712   5.101   6.589 -0.6402  1.8654  2.4081
   25DOPE   H3S 3134   0.550   5.077   6.637  0.4835  0.8620  1.3252
   25DOPE   C24 3135   0.635   4.891   6.584 -0.0044  0.2224  0.1492
   25DOPE   H4R 3136   0.566   4.833   6.648  0.1145 -0.0922 -0.0060
   25DOPE   H4S 3137   0.733   4.839   6.578 -1.9351 -3.6077 -2.1544
   25DOPE   C25 3138   0.570   4.880   6.446  0.2235 -0.6563  0.1431
   25DOPE   H5R 3139   0.464   4.911   6.435  0.2390 -0.9207 -0.8219
   25DOPE   H5S 3140   0.581   4.771   6.430  2.2235 -0.7517  1.7034
   25DOPE   C26 3141   0.651   4.951   6.341  1.1272  0.4094 -0.3281
   25DOPE   H6R 3142   0.750   4.909   6.315  0.9779 -0.1920  0.0632
   25DOPE   H6S 3143   0.672   5.053   6.380 -0.8899  1.1660 -1.0888
   25DOPE   C27 3144   0.583   4.977   6.204 -0.0713 -0.3381  0.7829
   25DOPE   H7R 3145   0.484   5.023   6.221  0.0735 -0.4007  1.8610
   25DOPE   H7S 3146   0.546   4.882   6.159  0.4388 -0.0319 -0.3157
   25DOPE   C28 3147   0.663   5.058   6.104 -0.4287 -0.1384 -0.2408
   25DOPE   H8R 3148   0.714   5.149   6.142  0.8889  0.3082 -2.8542
   25DOPE   H8S 3149   0.592   5.094   6.026  1.1061 -1.7961 -2.4910
   25DOPE   C29 3150   0.773   4.968   6.047 -0.7485  0.2707  0.1925
   25DOPE   H9R 3151   0.869   4.971   6.101 -1.5531 -1.2466  1.8202
   25DOPE  C210 3152   0.761   4.891   5.941 -0.4662 -0.2097  0.9018
   25DOPE  H10R 3153   0.849   4.833   5.909  1.6377  2.8580  0.7615
   25DOPE  C211 3154   0.640   4.878   5.845 -0.1981  0.0754 -0.1646
   25DOPE  H11R 3155   0.578   4.970   5.848  1.3074  1.1736 -1.0770
   25DOPE  H11S 3156   0.578   4.788   5.864 -0.7270  0.2130 -1.1599
   25DOPE  C212 3157   0.693   4.870   5.702 -0.2806  0.2065  0.0853
   25DOPE  H12R 3158   0.748   4.776   5.678 -1.5275  0.0101 -2.2555
   25DOPE  H12S 3159   0.772   4.949   5.696 -1.3375  1.7500  3.8707
   25DOPE  C213 3160   0.582   4.895   5.590  0.0960 -0.1920  0.0883
   25DOPE  H13R 3161   0.534   4.992   5.615  0.0311  0.0012 -0.7688
   25DOPE  H13S 3162   0.497   4.823   5.590  1.9443 -2.5406 -1.5976
   25DOPE  C214 3163   0.636   4.901   5.446  0.6033 -0.0033  0.1152
   25DOPE  H14R 3164   0.679   4.802   5.420 -0.0763 -0.2457 -0.0984
   25DOPE  H14S 3165   0.711   4.982   5.438 -2.0240  2.7329  1.1304
   25DOPE  C215 3166   0.528   4.935   5.345  1.1429 -1.0361 -0.3814
   25DOPE  H15R 3167   0.464   5.021   5.373  3.0568  0.7731 -1.3039
   25DOPE  H15S 3168   0.459   4.849   5.333 -0.7685  0.3042  0.5551
   25DOPE  C216 3169   0.592   4.978   5.215  0.4358  0.4035 -0.1259
   25DOPE  H16R 3170   0.643   4.890   5.169 -2.0290 -2.1511  1.6265
   25DOPE  H16S 3171   0.672   5.053   5.228 -0.2255  1.0389  0.3377
   25DOPE  C217 3172   0.490   5.027   5.112  0.5439 -0.6226 -0.7837
   25DOPE  H17R 3173   0.401   4.963   5.095  0.1128  0.6624 -4.0984
   25DOPE  H17S 3174   0.532   5.030   5.009  0.5303 -0.2933 -0.7810
   25DOPE  C218 3175   0.425   5.161   5.123  0.1236  0.0136  0.6688
   25DOPE  H18R 3176   0.495   5.246   5.131  1.4010 -0.8596 -0.6953
   25DOPE  H18S 3177   0.359   5.163   5.212 -2.9084  0.5516 -1.4055
   25DOPE  H18T 3178   0.352   5.171   5.039  0.2406 -2.0804  0.2753
   25DOPE   C33 3179   1.093   5.140   6.426 -0.3257 -0.1823 -0.3521
   25DOPE   H3X 3180   1.194   5.173   6.456 -1.1197 -0.7277  3.3239
   25DOPE   H3Y 3181   1.036   5.193   6.505  1.8229 -1.7652  2.4340
   25DOPE   C34 3182   1.049   5.191   6.289 -0.6459  0.0271 -0.0246
   25DOPE   H4X 3183   0.939   5.191   6.271 -0.8211 -0.1900  0.9655
   25DOPE   H4Y 3184   1.074   5.297   6.272 -0.0508 -0.2449 -0.9589
   25DOPE   C35 3185   1.122   5.115   6.171  0.2484 -0.7839 -0.1708
   25DOPE   H5X 3186   1.092   5.009   6.160 -1.0478 -0.5270  0.6429
   25DOPE   H5Y 3187   1.232   5.112   6.183  0.1479 -1.0938  0.7496
   25DOPE   C36 3188   1.077   5.190   6.041  0.2093 -0.2068 -0.8313
   25DOPE   H6X 3189   1.095   5.299   6.052 -1.2240 -0.0793  0.6183
   25DOPE   H6Y 3190   0.966   5.194   6.031  0.1667  0.7457 -0.1174
   25DOPE   C37 3191   1.124   5.137   5.899 -0.4429  0.2292  0.0769
   25DOPE   H7X 3192   1.235   5.143   5.889 -0.5059  2.0751  0.0481
   25DOPE   H7Y 3193   1.099   5.029   5.894  1.0951 -0.1492 -0.0913
   25DOPE   C38 3194   1.053   5.219   5.784  0.3166  0.3823  0.5715
   25DOPE   H8X 3195   1.049   5.319   5.832 -1.9482  0.5370  0.1467
   25DOPE   H8Y 3196   0.944   5.197   5.783 -0.1560  2.4062 -1.9285
   25DOPE   C39 3197   1.124   5.230   5.651  0.4016  0.0439 -0.0838
   25DOPE   H9X 3198   1.083   5.162   5.575 -0.2335  0.3982 -0.0596
   25DOPE  C310 3199   1.228   5.309   5.623  0.1741  0.3879  0.2495
   25DOPE  H10X 3200   1.268   5.316   5.521 -1.6273 -2.1556 -0.7295
   25DOPE  C311 3201   1.288   5.409   5.721  0.2065  0.4310 -0.3929
   25DOPE  H11X 3202   1.210   5.486   5.741 -0.5042 -0.3611 -0.0150
   25DOPE  H11Y 3203   1.321   5.371   5.820 -1.1211 -0.4801 -0.2655
   25DOPE  C312 3204   1.399   5.484   5.642  0.5309 -0.9664 -0.3947
   25DOPE  H12X 3205   1.469   5.415   5.591  0.6156 -0.2497 -1.2824
   25DOPE  H12Y 3206   1.455   5.549   5.714 -0.5179 -0.7371  0.2374
   25DOPE  C313 3207   1.342   5.585   5.540  0.3241  1.0677 -0.4719
   25DOPE  H13X 3208   1.284   5.534   5.460  1.1708 -0.6520 -0.0467
   25DOPE  H13Y 3209   1.273   5.652   5.596  0.3250  0.4045  0.3367
   25DOPE  C314 3210   1.451   5.672   5.473 -0.5543 -0.2623 -0.1371
   25DOPE  H14X 3211   1.520   5.710   5.551  0.0041 -1.1070 -0.2068
   25DOPE  H14Y 3212   1.404   5.754   5.414 -0.7394 -1.4626 -1.7083
   25DOPE  C315 3213   1.535   5.589   5.370  0.3736 -0.3660  0.1237
   25DOPE  H15X 3214   1.456   5.545   5.305  0.7120 -1.6692  0.5647
   25DOPE  H15Y 3215   1.582   5.499   5.416 -0.4597 -1.1538 -0.5221
   25DOPE  C316 3216   1.614   5.674   5.270  0.6372  0.3662  0.0976
   25DOPE  H16X 3217   1.565   5.774   5.258 -0.4273 -0.3437 -1.9832
   25DOPE  H16Y 3218   1.594   5.621   5.175  1.3850 -0.1374  0.2133
   25DOPE  C317 3219   1.766   5.690   5.296 -0.0146  1.1567  1.0085
   25DOPE  H17X 3220   1.770   5.757   5.384 -1.5306  1.8498  0.5908
   25DOPE  H17Y 3221   1.810   5.590   5.319 -1.9605 -0.3690 -1.3176
   25DOPE  C318 3222   1.848   5.746   5.176  0.5125 -0.2920  0.1174
   25DOPE  H18X 3223   1.860   5.667   5.099  1.9025  0.7899 -0.8169
   25DOPE  H18Y 3224   1.787   5.828   5.135 -1.6112 -2.2681 -0.8920
   25DOPE  H18Z 3225   1.951   5.777   5.205  1.0861 -1.5227 -0.4958
   26DOPE     N 3226   0.788   5.930   6.976 -0.1133  0.3007  0.3697
   26DOPE   HN1 3227   0.882   5.961   7.010  0.2746  1.5663 -1.6079
   26DOPE   HN2 3228   0.717   5.987   7.025  0.1602  0.5466  0.4853
   26DOPE   HN3 3229   0.793   5.832   7.010  3.1082 -0.3921 -1.6310
   26DOPE   C12 3230   0.774   5.932   6.821  0.0718 -0.2717  0.0143
   26DOPE  H12A 3231   0.797   6.034   6.783  0.6491 -0.2585  0.3771
   26DOPE  H12B 3232   0.671   5.898   6.797  0.5896 -0.3089 -2.3566
   26DOPE   C11 3233   0.866   5.819   6.762  0.0386 -0.1642 -0.1964
   26DOPE  H11A 3234   0.967   5.857   6.787  0.0244  0.9188 -1.6464
   26DOPE  H11B 3235   0.855   5.807   6.652 -0.8750  2.5861 -0.4785
   26DOPE     P 3236   0.791   5.560   6.771  0.5136 -0.0145  0.0938
   26DOPE   O13 3237   0.642   5.550   6.779 -0.0291 -0.0973  0.2115
   26DOPE   O14 3238   0.859   5.452   6.848 -0.4053  0.3860  0.6626
   26DOPE   O11 3239   0.836   5.555   6.617 -0.4191 -0.0393  0.1592
   26DOPE   O12 3240   0.841   5.697   6.832  0.2397 -0.1516  0.2844
   26DOPE    C1 3241   0.963   5.484   6.575  0.1858 -0.1402  0.3670
   26DOPE    HA 3242   0.949   5.450   6.470 -0.7457  1.4413 -0.0543
   26DOPE    HB 3243   0.978   5.391   6.634  2.9704 -0.8021 -1.1898
   26DOPE    C2 3244   1.088   5.569   6.589  0.2758 -0.1920 -0.3948
   26DOPE    HS 3245   1.097   5.617   6.689 -2.3381 -1.0739  0.3345
   26DOPE   O21 3246   1.080   5.678   6.482  0.4205  0.5864 -0.1661
   26DOPE   C21 3247   1.161   5.781   6.504 -0.1565  0.7713 -0.3919
   26DOPE   O22 3248   1.231   5.790   6.602  0.3809  0.2697 -0.8918
   26DOPE   C22 3249   1.137   5.883   6.393 -0.8125  0.4286 -0.0094
   26DOPE   H2R 3250   1.169   5.982   6.431  0.5594 -0.5092  1.3790
   26DOPE   H2S 3251   1.030   5.895   6.366 -0.6132  0.8328 -0.6569
   26DOPE    C3 3252   1.222   5.494   6.570 -0.3730  0.8753  0.5956
   26DOPE    HX 3253   1.228   5.413   6.645  0.6258 -0.3190 -0.7200
   26DOPE    HY 3254   1.297   5.575   6.583 -1.0246  1.9688 -1.8587
   26DOPE   O31 3255   1.234   5.424   6.440 -0.0736  0.5374 -0.5465
   26DOPE   C31 3256   1.347   5.449   6.382  0.2813 -0.3316 -0.2776
   26DOPE   O32 3257   1.431   5.528   6.420  0.4224  0.2252 -0.2457
   26DOPE   C32 3258   1.372   5.359   6.259  0.5137  0.0939 -0.2881
   26DOPE   H2X 3259   1.482   5.346   6.265  0.6357  1.1086 -0.1167
   26DOPE   H2Y 3260   1.318   5.263   6.272 -1.1072  0.9604 -0.3036
   26DOPE   C23 3261   1.218   5.841   6.269  0.3084 -0.5773  0.2885
   26DOPE   H3R 3262   1.156   5.767   6.214 -1.5479  2.6305 -2.3179
   26DOPE   H3S 3263   1.315   5.805   6.309  0.5778  0.4964  0.6084
   26DOPE   C24 3264   1.244   5.949   6.164 -0.0024  0.2966  0.0720
   26DOPE   H4R 3265   1.293   6.036   6.213 -1.1884  1.9423 -1.5058
   26DOPE   H4S 3266   1.148   5.985   6.122 -0.0683  1.1438  0.9015
   26DOPE   C25 3267   1.346   5.899   6.063 -0.1326 -0.5849 -0.3928
   26DOPE   H5R 3268   1.308   5.813   6.004 -1.8261 -0.4142  0.3858
   26DOPE   H5S 3269   1.431   5.849   6.114  0.0209 -2.1115 -2.0427
   26DOPE   C26 3270   1.418   6.011   5.988 -0.5129 -0.5817  0.0428
   26DOPE   H6R 3271   1.470   6.077   6.060  0.9690  0.7409 -2.1277
   26DOPE   H6S 3272   1.343   6.069   5.931 -1.0072 -0.5615  0.7024
   26DOPE   C27 3273   1.525   5.960   5.889  0.5522  0.0887 -0.1379
   26DOPE   H7R 3274   1.477   5.873   5.839 -1.6442  0.1766  1.6570
   26DOPE   H7S 3275   1.614   5.917   5.939  1.0910 -0.4792 -1.5180
   26DOPE   C28 3276   1.557   6.076   5.792  0.5173 -0.5401 -0.0334
   26DOPE   H8R 3277   1.605   6.148   5.861 -1.7796 -0.2726  1.3955
   26DOPE   H8S 3278   1.471   6.128   5.744 -0.3881 -3.8933 -2.4240
   26DOPE   C29 3279   1.661   6.020   5.706 -0.4342  0.2152 -0.0242
   26DOPE   H9R 3280   1.758   6.004   5.755  0.3431 -1.5548 -1.9828
   26DOPE  C210 3281   1.652   6.002   5.578 -0.4015 -0.2821  0.4518
   26DOPE  H10R 3282   1.737   5.961   5.522 -0.5396  0.1985 -0.1292
   26DOPE  C211 3283   1.530   6.033   5.490 -0.1322 -0.5855  0.6950
   26DOPE  H11R 3284   1.453   6.079   5.555  0.0768  1.0128 -0.1176
   26DOPE  H11S 3285   1.483   5.946   5.439 -4.1948  1.6597  0.2709
   26DOPE  C212 3286   1.567   6.149   5.387 -0.0460 -0.2236  0.2663
   26DOPE  H12R 3287   1.608   6.237   5.440  1.0577 -0.5537 -0.0038
   26DOPE  H12S 3288   1.478   6.190   5.335  1.1880  0.3382 -1.5110
   26DOPE  C213 3289   1.676   6.110   5.285 -0.5879 -0.5076 -0.8329
   26DOPE  H13R 3290   1.630   6.020   5.240 -1.7075  0.7002 -2.2076
   26DOPE  H13S 3291   1.779   6.095   5.324 -1.2926 -0.8502  0.9802
   26DOPE  C214 3292   1.685   6.212   5.166 -0.1237  0.3568 -0.0373
   26DOPE  H14R 3293   1.713   6.313   5.203  0.4912  0.3651 -0.5110
   26DOPE  H14S 3294   1.582   6.224   5.128 -0.2045 -0.7319 -0.2013
   26DOPE  C215 3295   1.769   6.171   5.045 -0.5640 -0.3270  0.3376
   26DOPE  H15R 3296   1.772   6.249   4.965  2.2054 -0.1634  0.5179
   26DOPE  H15S 3297   1.737   6.077   4.996 -0.1363  0.0841 -0.7639
   26DOPE  C216 3298   1.919   6.157   5.079  0.5439  0.0153 -0.7223
   26DOPE  H16R 3299   1.927   6.102   5.175 -1.4913 -0.5566 -0.8235
   26DOPE  H16S 3300   1.950   6.261   5.102  0.4359 -0.5872  2.5346
   26DOPE  C217 3301   2.006   6.101   4.971 -0.6128 -0.3408  0.0324
   26DOPE  H17R 3302   2.110   6.117   5.008 -0.5810  0.1342 -0.2421
   26DOPE  H17S 3303   1.996   6.178   4.891  0.5219  0.1925  0.3764
   26DOPE  C218 3304   1.986   5.963   4.914  0.2387  0.1772 -0.1866
   26DOPE  H18R 3305   2.063   5.943   4.837 -0.9337  0.3884 -1.4588
   26DOPE  H18S 3306   1.887   5.959   4.863 -0.7068  1.8655  1.3762
   26DOPE  H18T 3307   1.991   5.883   4.992 -1.0659  0.4481  0.2038
   26DOPE   C33 3308   1.328   5.422   6.124 -0.1866 -0.4706  0.0372
   26DOPE   H3X 3309   1.225   5.461   6.143 -0.4580 -0.4360 -1.3994
   26DOPE   H3Y 3310   1.323   5.342   6.047  0.7520  0.4338 -1.0057
   26DOPE   C34 3311   1.425   5.526   6.071  0.0872  0.0593 -0.1206
   26DOPE   H4X 3312   1.376   5.575   5.984 -1.8343 -1.3314  0.1041
   26DOPE   H4Y 3313   1.429   5.604   6.151 -3.4457  0.0015  0.3122
   26DOPE   C35 3314   1.559   5.482   5.998  0.4600 -0.1710 -0.1092
   26DOPE   H5X 3315   1.533   5.417   5.911  2.8235 -2.3236  0.6794
   26DOPE   H5Y 3316   1.606   5.415   6.073  2.2645  0.1880 -0.8638
   26DOPE   C36 3317   1.658   5.597   5.971  0.0217  0.3553 -0.8465
   26DOPE   H6X 3318   1.653   5.657   6.065 -1.7209 -0.4482 -0.3724
   26DOPE   H6Y 3319   1.633   5.650   5.877 -0.4369  1.1882 -0.2722
   26DOPE   C37 3320   1.807   5.557   5.971 -0.0475  0.3061 -0.0135
   26DOPE   H7X 3321   1.839   5.489   6.052 -0.6050  0.6181  0.4676
   26DOPE   H7Y 3322   1.815   5.492   5.881  1.2186  1.2323 -0.6111
   26DOPE   C38 3323   1.905   5.673   5.959 -0.5517 -0.6018  0.8989
   26DOPE   H8X 3324   1.926   5.739   6.046  2.7331  2.0600 -1.6307
   26DOPE   H8Y 3325   1.861   5.739   5.880  0.5206 -1.8622 -0.8072
   26DOPE   C39 3326   2.038   5.625   5.903  0.0446 -0.2176 -1.0347
   26DOPE   H9X 3327   2.111   5.610   5.983 -0.2811  0.2905 -0.6410
   26DOPE  C310 3328   2.056   5.616   5.774 -0.7644 -0.5553 -0.2242
   26DOPE  H10X 3329   2.153   5.575   5.740  1.5335  2.8192  1.7170
   26DOPE  C311 3330   1.976   5.636   5.649 -0.8775  0.2257  0.5868
   26DOPE  H11X 3331   1.973   5.556   5.572 -0.1091  1.7674 -1.1067
   26DOPE  H11Y 3332   1.873   5.669   5.676 -1.0834  0.3918 -0.3602
   26DOPE  C312 3333   2.040   5.758   5.576  0.2649  0.0872 -0.2601
   26DOPE  H12X 3334   2.052   5.845   5.644  3.0139  0.4833 -1.1258
   26DOPE  H12Y 3335   1.962   5.782   5.500 -1.2289 -1.9054  0.5484
   26DOPE  C313 3336   2.175   5.726   5.503  0.2573  0.9311  0.5794
   26DOPE  H13X 3337   2.251   5.683   5.572  0.6437  2.0125  0.8607
   26DOPE  H13Y 3338   2.154   5.648   5.427 -1.4095  2.8887 -1.0700
   26DOPE  C314 3339   2.206   5.847   5.420 -0.3307  0.1179 -0.2262
   26DOPE  H14X 3340   2.218   5.927   5.496 -0.2895  0.0370 -0.1474
   26DOPE  H14Y 3341   2.117   5.871   5.358 -0.7154  0.9741  0.6196
   26DOPE  C315 3342   2.327   5.841   5.328  0.0414  0.2459 -0.0378
   26DOPE  H15X 3343   2.310   5.768   5.247 -2.2446  0.3485  0.2730
   26DOPE  H15Y 3344   2.426   5.820   5.374  0.2355  0.5833 -0.2951
   26DOPE  C316 3345   2.338   5.976   5.263  0.4444 -0.9431 -0.1448
   26DOPE  H16X 3346   2.364   6.047   5.345 -0.0819 -1.9991  0.9744
   26DOPE  H16Y 3347   2.241   6.002   5.216  0.4466 -0.2029  0.2495
   26DOPE  C317 3348   2.432   5.975   5.144 -0.0829 -0.1898  0.0319
   26DOPE  H17X 3349   2.531   5.933   5.172  0.3690 -2.3726 -4.1749
   26DOPE  H17Y 3350   2.383   5.914   5.066 -2.8364  1.2040  0.5521
   26DOPE  C318 3351   2.464   6.122   5.099 -0.3211 -0.2713 -0.8790
   26DOPE  H18X 3352   2.368   6.177   5.087 -1.8324 -1.9413  2.3998
   26DOPE  H18Y 3353   2.533   6.164   5.176  0.2644 -2.1287 -0.3558
   26DOPE  H18Z 3354   2.518   6.120   5.001  0.1844 -0.4441 -0.6015
   27DOPE     N 3355   5.874   6.484   7.322 -0.7196 -0.1976 -0.3372
   27DOPE   HN1 3356   5.923   6.461   7.411 -1.3990  2.2563  0.7402
   27DOPE   HN2 3357   5.782   6.525   7.346  0.1930  2.0076 -0.3352
   27DOPE   HN3 3358   5.865   6.402   7.258  0.3344  0.4766 -1.3944
   27DOPE   C12 3359   5.961   6.587   7.254 -0.7125  0.0763 -0.4385
   27DOPE  H12A 3360   5.980   6.677   7.317  2.7257 -2.3082  2.3595
   27DOPE  H12B 3361   5.910   6.608   7.158 -4.0850 -2.7922  0.5019
   27DOPE   C11 3362   6.103   6.527   7.214  0.3750 -0.9340 -0.3732
   27DOPE  H11A 3363   6.143   6.474   7.303  2.0369 -0.5518 -0.8627
   27DOPE  H11B 3364   6.171   6.612   7.193  0.6823 -0.9057  0.6903
   27DOPE     P 3365   6.090   6.470   6.961 -0.2056  0.2573  0.0546
   27DOPE   O13 3366   6.042   6.609   6.948 -0.5173 -0.1537  0.0126
   27DOPE   O14 3367   6.018   6.364   6.878  0.4198 -0.1410  0.3925
   27DOPE   O11 3368   6.250   6.471   6.933  0.0399  0.2459 -0.4428
   27DOPE   O12 3369   6.078   6.435   7.107 -0.4890 -0.1030 -0.3867
   27DOPE    C1 3370   6.308   6.435   6.809 -0.5086 -0.2430 -0.6513
   27DOPE    HA 3371   6.258   6.341   6.777  0.7916 -1.4329  0.6371
   27DOPE    HB 3372   6.414   6.407   6.826 -0.7532 -0.0326  1.4652
   27DOPE    C2 3373   6.303   6.542   6.703 -0.0172  0.5331 -0.5107
   27DOPE    HS 3374   6.345   6.637   6.742 -1.6794  1.7904 -1.6418
   27DOPE   O21 3375   6.175   6.566   6.655  0.3520  1.3631  0.1901
   27DOPE   C21 3376   6.124   6.688   6.635 -0.3723 -0.2202  0.6404
   27DOPE   O22 3377   6.177   6.790   6.669  0.1204 -0.1983  0.0587
   27DOPE   C22 3378   6.007   6.674   6.537 -0.3571 -0.3884 -0.2694
   27DOPE   H2R 3379   5.942   6.763   6.554 -0.6741 -0.5493 -0.6245
   27DOPE   H2S 3380   5.938   6.595   6.573  0.3535  0.3200  2.9589
   27DOPE    C3 3381   6.404   6.510   6.585  0.1638 -0.1276 -0.3257
   27DOPE    HX 3382   6.366   6.417   6.537 -0.7582 -0.5899  1.2436
   27DOPE    HY 3383   6.502   6.495   6.637  0.2865 -2.0675 -1.0267
   27DOPE   O31 3384   6.403   6.617   6.492 -0.1192  0.1585  0.3051
   27DOPE   C31 3385   6.502   6.614   6.407 -0.2634 -0.4787  0.2491
   27DOPE   O32 3386   6.595   6.537   6.414  0.2013 -0.1241 -0.4375
   27DOPE   C32 3387   6.481   6.719   6.295 -0.0524  0.2025 -0.4162
   27DOPE   H2X 3388   6.373   6.728   6.270  0.2335 -1.5763 -2.5946
   27DOPE   H2Y 3389   6.508   6.818   6.337  1.9547  0.1089 -1.3649
   27DOPE   C23 3390   6.053   6.657   6.387  0.1319 -0.7053 -0.7188
   27DOPE   H3R 3391   5.963   6.612   6.340  0.6107 -3.1084  0.4908
   27DOPE   H3S 3392   6.134   6.582   6.372  1.3822  0.6480 -0.9248
   27DOPE   C24 3393   6.082   6.792   6.318 -0.3776  0.1829  0.2556
   27DOPE   H4R 3394   6.181   6.834   6.348  0.4683 -0.6994 -1.1327
   27DOPE   H4S 3395   5.998   6.861   6.336 -2.2225 -2.0232  0.6172
   27DOPE   C25 3396   6.107   6.754   6.173  0.0864  0.0392  0.4679
   27DOPE   H5R 3397   6.021   6.699   6.129 -0.2073  1.9742 -1.5463
   27DOPE   H5S 3398   6.206   6.704   6.161  0.7349  1.5759 -0.9042
   27DOPE   C26 3399   6.125   6.879   6.093  0.2587 -0.1600 -0.2832
   27DOPE   H6R 3400   6.211   6.929   6.142  0.1706 -0.6886  0.4390
   27DOPE   H6S 3401   6.040   6.948   6.113  0.3642 -0.8363  3.0841
   27DOPE   C27 3402   6.160   6.865   5.939  0.2483 -0.1476 -0.7968
   27DOPE   H7R 3403   6.213   6.768   5.936 -1.3466 -1.0577 -0.5814
   27DOPE   H7S 3404   6.219   6.955   5.911  1.6228 -0.6507  0.3458
   27DOPE   C28 3405   6.030   6.845   5.852 -0.2199 -0.8094 -0.7068
   27DOPE   H8R 3406   5.953   6.907   5.901  0.8132  0.3995 -0.5749
   27DOPE   H8S 3407   6.005   6.737   5.858  1.5257 -1.1556  1.5930
   27DOPE   C29 3408   6.061   6.888   5.713 -0.1468 -0.1644  0.0545
   27DOPE   H9R 3409   6.122   6.813   5.661 -0.4080  0.3485 -1.0018
   27DOPE  C210 3410   6.022   7.001   5.646 -0.3402 -0.0896  0.5965
   27DOPE  H10R 3411   6.039   7.009   5.538 -0.0580 -0.5731  0.5987
   27DOPE  C211 3412   5.951   7.118   5.705 -0.0774  0.1640  0.6170
   27DOPE  H11R 3413   6.000   7.214   5.678  2.5942 -1.1709  0.4210
   27DOPE  H11S 3414   5.961   7.112   5.816  0.9168  2.2274  0.7020
   27DOPE  C212 3415   5.800   7.123   5.672  0.6586  0.5338  0.0497
   27DOPE  H12R 3416   5.744   7.185   5.745 -0.3666 -1.1517  0.7684
   27DOPE  H12S 3417   5.749   7.024   5.670  0.5421  0.5887 -1.5029
   27DOPE  C213 3418   5.766   7.183   5.537  0.7911 -0.5549  0.9389
   27DOPE  H13R 3419   5.658   7.159   5.533  0.5131  0.6761  0.5247
   27DOPE  H13S 3420   5.823   7.133   5.457  0.2214  2.0781 -1.2595
   27DOPE  C214 3421   5.786   7.337   5.520 -0.3296  0.1424 -0.3210
   27DOPE  H14R 3422   5.830   7.372   5.616 -3.0478  0.0659  1.0424
   27DOPE  H14S 3423   5.688   7.385   5.501 -3.0630 -4.9342 -0.6265
   27DOPE  C215 3424   5.888   7.376   5.413 -0.5788  0.1197 -0.1109
   27DOPE  H15R 3425   5.894   7.301   5.331  2.0038  0.4871 -0.3441
   27DOPE  H15S 3426   5.988   7.374   5.460 -0.5343  2.9025  0.0613
   27DOPE  C216 3427   5.864   7.520   5.363 -0.2636  0.8955  0.3843
   27DOPE  H16R 3428   5.886   7.599   5.438  0.1423 -0.1784  1.4320
   27DOPE  H16S 3429   5.759   7.516   5.328 -0.3129  0.2267  0.5925
   27DOPE  C217 3430   5.949   7.542   5.237  0.2280  0.0644 -0.1357
   27DOPE  H17R 3431   5.918   7.477   5.153  0.4392 -2.1859  1.4307
   27DOPE  H17S 3432   6.052   7.512   5.265  0.0337  0.3844  0.9585
   27DOPE  C218 3433   5.941   7.694   5.204  0.1360 -0.5922  0.5259
   27DOPE  H18R 3434   6.019   7.708   5.126  1.1214  0.3460  1.6345
   27DOPE  H18S 3435   5.959   7.766   5.287  1.3014 -0.6528  0.3434
   27DOPE  H18T 3436   5.842   7.708   5.155  0.6658  1.0864 -0.1383
   27DOPE   C33 3437   6.560   6.691   6.165 -1.1300  0.1001  0.1418
   27DOPE   H3X 3438   6.529   6.595   6.117  1.0787 -0.5709 -0.0660
   27DOPE   H3Y 3439   6.670   6.680   6.170 -0.9981  1.0260 -0.4745
   27DOPE   C34 3440   6.535   6.792   6.053 -0.5872  0.3573  0.8779
   27DOPE   H4X 3441   6.426   6.811   6.044 -0.6579 -0.2525  0.3708
   27DOPE   H4Y 3442   6.587   6.889   6.069  0.6420 -0.0324 -0.4456
   27DOPE   C35 3443   6.594   6.742   5.919 -0.0682 -0.9417  0.5511
   27DOPE   H5X 3444   6.550   6.641   5.904 -1.1290 -0.5627  1.0372
   27DOPE   H5Y 3445   6.702   6.718   5.936 -0.2229 -0.1272  3.1549
   27DOPE   C36 3446   6.573   6.833   5.800  0.5799  0.1757  0.5456
   27DOPE   H6X 3447   6.579   6.936   5.842 -1.7321  0.2519  0.8591
   27DOPE   H6Y 3448   6.467   6.819   5.767  0.3006  1.0589  1.0032
   27DOPE   C37 3449   6.669   6.807   5.691 -0.0082 -0.3084 -0.4109
   27DOPE   H7X 3450   6.750   6.883   5.689 -0.9816  0.7740 -0.0502
   27DOPE   H7Y 3451   6.710   6.704   5.699  2.2332  0.4419 -1.3992
   27DOPE   C38 3452   6.604   6.818   5.549  0.1182  0.0959 -0.4241
   27DOPE   H8X 3453   6.692   6.848   5.487  1.1296 -0.1182  0.8728
   27DOPE   H8Y 3454   6.537   6.906   5.550 -1.1128 -0.8273  0.0705
   27DOPE   C39 3455   6.528   6.699   5.493 -0.5758  0.6371 -0.3831
   27DOPE   H9X 3456   6.419   6.700   5.511 -0.1752  1.0644  2.3020
   27DOPE  C310 3457   6.584   6.607   5.411  0.8645 -0.3783 -0.4736
   27DOPE  H10X 3458   6.520   6.533   5.360  1.0002 -2.2037  1.8496
   27DOPE  C311 3459   6.727   6.597   5.374 -0.1881  0.5618 -0.4673
   27DOPE  H11X 3460   6.791   6.683   5.402  0.1790  0.0612  0.2557
   27DOPE  H11Y 3461   6.781   6.512   5.422  4.5035  2.3657 -1.8972
   27DOPE  C312 3462   6.755   6.571   5.221  0.5755 -0.2575 -0.0135
   27DOPE  H12X 3463   6.699   6.641   5.154 -0.6446 -1.4458 -0.2665
   27DOPE  H12Y 3464   6.722   6.468   5.197  0.3371  0.2644 -2.2142
   27DOPE  C313 3465   6.901   6.575   5.175 -0.0125  0.3683  0.1322
   27DOPE  H13X 3466   6.949   6.675   5.185  0.8385 -0.0332  0.1496
   27DOPE  H13Y 3467   6.962   6.507   5.239 -1.5931  0.2190  1.5386
   27DOPE  C314 3468   6.924   6.533   5.027 -0.1291 -0.3943 -0.2639
   27DOPE  H14X 3469   6.885   6.611   4.959 -1.8461 -0.6385  0.3873
   27DOPE  H14Y 3470   6.855   6.447   5.009 -1.9849  0.5034  2.1191
   27DOPE  C315 3471   7.072   6.493   4.987  0.4803  0.2219  0.2141
   27DOPE  H15X 3472   7.118   6.411   5.047 -0.1593 -1.2150 -1.2027
   27DOPE  H15Y 3473   7.118   6.590   5.017 -1.8086  1.2671  0.5535
   27DOPE  C316 3474   7.080   6.446   4.842 -0.1598  0.1896 -0.1365
   27DOPE  H16X 3475   7.019   6.518   4.783 -1.3459  0.8978  1.8311
   27DOPE  H16Y 3476   7.042   6.344   4.824  1.1236 -0.5409  1.0356
   27DOPE  C317 3477   7.224   6.446   4.789 -0.6438  0.1127 -0.1720
   27DOPE  H17X 3478   7.270   6.544   4.813 -0.9408  0.0284  0.8000
   27DOPE  H17Y 3479   7.278   6.379   4.860 -3.7526 -1.7060  0.6807
   27DOPE  C318 3480   7.240   6.409   4.639 -0.3439 -0.5151 -0.2676
   27DOPE  H18X 3481   7.202   6.493   4.578  1.1357  0.1416 -0.3249
   27DOPE  H18Y 3482   7.346   6.397   4.607 -0.0852  2.3761 -0.7362
   27DOPE  H18Z 3483   7.167   6.330   4.610 -3.5650  2.1216  0.0985
   28DOPE     N 3484   7.384   5.615   6.784 -0.7730  0.1495 -0.6927
   28DOPE   HN1 3485   7.285   5.604   6.753 -1.2761 -1.8532  1.4035
   28DOPE   HN2 3486   7.387   5.709   6.827 -0.2931  0.6175 -1.7090
   28DOPE   HN3 3487   7.435   5.608   6.693 -0.0633 -1.5010 -0.2015
   28DOPE   C12 3488   7.427   5.518   6.887  0.3502 -0.7122 -0.1231
   28DOPE  H12A 3489   7.372   5.423   6.875 -1.0102  0.2633 -2.2834
   28DOPE  H12B 3490   7.407   5.557   6.989 -0.3074 -0.5263 -0.3176
   28DOPE   C11 3491   7.584   5.493   6.887  0.1239  0.0551  0.0699
   28DOPE  H11A 3492   7.609   5.432   6.797 -1.5137  0.8196 -0.9691
   28DOPE  H11B 3493   7.614   5.434   6.975  2.6630 -0.5087 -1.0858
   28DOPE     P 3494   7.811   5.616   6.921  0.2074 -0.4727  0.3151
   28DOPE   O13 3495   7.877   5.539   6.811 -0.4535  0.1421  0.3256
   28DOPE   O14 3496   7.821   5.568   7.060 -0.0917  0.1286 -0.4522
   28DOPE   O11 3497   7.841   5.781   6.912 -0.5889  0.4325  0.2869
   28DOPE   O12 3498   7.659   5.613   6.886 -0.6512  0.1507  0.7256
   28DOPE    C1 3499   7.763   5.865   6.820  0.5970 -0.3737  0.4365
   28DOPE    HA 3500   7.779   5.973   6.841  0.4282 -0.0339 -1.0997
   28DOPE    HB 3501   7.656   5.838   6.829  0.8982 -1.3477  1.4042
   28DOPE    C2 3502   7.807   5.840   6.677 -0.1019  0.2557  0.4595
   28DOPE    HS 3503   7.761   5.743   6.649 -0.1514  0.7739 -1.4402
   28DOPE   O21 3504   7.948   5.848   6.679  0.1398  0.2430 -0.0213
   28DOPE   C21 3505   8.006   5.759   6.591 -0.1200 -0.3995 -0.5104
   28DOPE   O22 3506   7.942   5.701   6.503  0.2696  0.3566 -0.2659
   28DOPE   C22 3507   8.153   5.750   6.601 -0.7409  0.2260 -0.0719
   28DOPE   H2R 3508   8.195   5.657   6.558  2.6658  0.9142  1.4486
   28DOPE   H2S 3509   8.182   5.773   6.705 -0.4525  0.1588 -0.1357
   28DOPE    C3 3510   7.744   5.947   6.577  0.2739  0.3960 -0.0807
   28DOPE    HX 3511   7.778   6.047   6.610  0.5534  0.9078 -1.8081
   28DOPE    HY 3512   7.634   5.943   6.593  0.3960 -0.0600  0.6715
   28DOPE   O31 3513   7.775   5.940   6.442  1.0194  0.2135  0.0408
   28DOPE   C31 3514   7.710   5.850   6.381  0.7809 -0.1435  0.0405
   28DOPE   O32 3515   7.623   5.776   6.421  0.2076 -0.1200  0.2160
   28DOPE   C32 3516   7.766   5.853   6.235  0.5062  0.0648 -0.1190
   28DOPE   H2X 3517   7.761   5.962   6.212  0.3096  0.0478 -0.1581
   28DOPE   H2Y 3518   7.875   5.828   6.231  0.7781  1.2259 -0.4216
   28DOPE   C23 3519   8.215   5.873   6.525  0.1323  0.1541 -0.6573
   28DOPE   H3R 3520   8.323   5.882   6.551  0.7096 -4.2870 -0.7509
   28DOPE   H3S 3521   8.166   5.964   6.565 -0.4454 -1.0005  1.3847
   28DOPE   C24 3522   8.199   5.861   6.365 -0.3123  0.2360 -0.5969
   28DOPE   H4R 3523   8.089   5.847   6.351 -0.2599  0.7504 -1.6032
   28DOPE   H4S 3524   8.246   5.766   6.333  0.3862  0.5414 -0.4872
   28DOPE   C25 3525   8.259   5.976   6.289  0.1437 -0.0701 -0.1296
   28DOPE   H5R 3526   8.204   6.070   6.311 -0.1684 -0.0631 -0.8975
   28DOPE   H5S 3527   8.233   5.946   6.185 -3.5686 -2.5747  1.3120
   28DOPE   C26 3528   8.408   5.983   6.308  0.0236 -0.2571 -0.1301
   28DOPE   H6R 3529   8.456   5.888   6.339  1.0211 -0.3538 -1.8762
   28DOPE   H6S 3530   8.428   6.058   6.388  2.1970 -1.2142  0.2991
   28DOPE   C27 3531   8.476   6.028   6.172  0.4505 -0.0223 -0.9093
   28DOPE   H7R 3532   8.404   6.064   6.096 -3.2794 -0.0763  2.2515
   28DOPE   H7S 3533   8.524   5.939   6.127  1.8792  0.4383 -0.3376
   28DOPE   C28 3534   8.587   6.131   6.202  0.0715 -0.2764 -0.2886
   28DOPE   H8R 3535   8.649   6.135   6.110  0.6400  0.0395  0.1039
   28DOPE   H8S 3536   8.654   6.096   6.283  1.3189  0.3367 -1.0274
   28DOPE   C29 3537   8.544   6.273   6.242 -0.2536  0.0858 -0.4395
   28DOPE   H9R 3538   8.472   6.285   6.324  0.2608 -1.2254  0.2428
   28DOPE  C210 3539   8.577   6.383   6.182  0.2106  0.4230 -0.6460
   28DOPE  H10R 3540   8.530   6.475   6.221 -1.3759 -0.5880 -0.0548
   28DOPE  C211 3541   8.676   6.400   6.068  0.5821  0.2413 -0.5243
   28DOPE  H11R 3542   8.651   6.477   5.992  1.1742  2.2930  1.2737
   28DOPE  H11S 3543   8.686   6.304   6.013 -1.9124  0.5425 -1.6287
   28DOPE  C212 3544   8.813   6.459   6.111  0.3388 -0.3898 -0.1569
   28DOPE  H12R 3545   8.809   6.560   6.157  0.8128 -0.2829 -0.3399
   28DOPE  H12S 3546   8.885   6.477   6.028  0.0606  0.0504 -0.3051
   28DOPE  C213 3547   8.891   6.379   6.217  0.2381  0.0168 -0.2756
   28DOPE  H13R 3548   8.882   6.271   6.194  2.5723 -0.9207  2.5088
   28DOPE  H13S 3549   8.835   6.384   6.313 -0.6521 -4.1379 -0.4195
   28DOPE  C214 3550   9.039   6.432   6.245 -0.2585 -0.3739  0.5384
   28DOPE  H14R 3551   9.047   6.543   6.243 -0.8030 -0.3013  1.6011
   28DOPE  H14S 3552   9.108   6.387   6.170 -0.1778 -0.0894  0.4400
   28DOPE  C215 3553   9.106   6.399   6.373  0.7825  0.3591  0.1132
   28DOPE  H15R 3554   9.055   6.460   6.451 -0.3164  0.9542 -1.0302
   28DOPE  H15S 3555   9.213   6.428   6.368  0.2227  2.5143 -0.3481
   28DOPE  C216 3556   9.084   6.248   6.401 -0.6529  0.3065 -0.6568
   28DOPE  H16R 3557   9.115   6.188   6.313  1.9296  0.9778 -0.2639
   28DOPE  H16S 3558   8.975   6.236   6.420 -0.0302 -4.3877  1.3916
   28DOPE  C217 3559   9.154   6.200   6.527  0.2157 -0.5743  0.5237
   28DOPE  H17R 3560   9.129   6.259   6.619 -1.3440 -2.0128  1.0805
   28DOPE  H17S 3561   9.263   6.218   6.516 -0.0622  2.1766  1.4594
   28DOPE  C218 3562   9.125   6.052   6.557 -0.3526 -0.1782 -0.5823
   28DOPE  H18R 3563   9.022   6.062   6.597 -0.0410  1.6399 -0.1320
   28DOPE  H18S 3564   9.185   6.005   6.637  0.3859  0.7708 -0.5562
   28DOPE  H18T 3565   9.130   5.999   6.459  3.4135  0.5142 -0.9320
   28DOPE   C33 3566   7.675   5.759   6.148 -0.1273 -0.4151 -0.0900
   28DOPE   H3X 3567   7.684   5.810   6.050  1.7019 -0.6279 -0.0697
   28DOPE   H3Y 3568   7.568   5.760   6.176  0.0457 -0.4168  0.5943
   28DOPE   C34 3569   7.721   5.610   6.133 -0.4274  0.4393 -0.3475
   28DOPE   H4X 3570   7.828   5.607   6.106 -0.6149 -1.2731 -1.0300
   28DOPE   H4Y 3571   7.702   5.564   6.233 -0.0648  1.5447  0.2508
   28DOPE   C35 3572   7.655   5.532   6.019 -0.0190 -0.6296 -0.3178
   28DOPE   H5X 3573   7.684   5.579   5.923 -0.0545  0.6832  0.2870
   28DOPE   H5Y 3574   7.545   5.542   6.036 -0.1294 -1.4435 -0.5528
   28DOPE   C36 3575   7.681   5.386   6.029 -0.6585  0.2105  0.4240
   28DOPE   H6X 3576   7.792   5.375   6.030 -0.5176  1.4396  0.6837
   28DOPE   H6Y 3577   7.642   5.332   5.940  1.4351 -1.5860  0.5038
   28DOPE   C37 3578   7.628   5.314   6.153 -0.0116 -0.2918  0.3278
   28DOPE   H7X 3579   7.658   5.360   6.250 -2.0256  2.1521 -0.0933
   28DOPE   H7Y 3580   7.517   5.316   6.140  0.0161 -1.6221 -0.1936
   28DOPE   C38 3581   7.678   5.172   6.146  0.3652  0.2232  0.3999
   28DOPE   H8X 3582   7.782   5.177   6.185 -0.0717  1.0982  1.5273
   28DOPE   H8Y 3583   7.674   5.120   6.048 -1.9028  0.3708  0.3573
   28DOPE   C39 3584   7.610   5.091   6.249  0.3670 -0.1878 -0.3500
   28DOPE   H9X 3585   7.657   5.097   6.348 -1.9216  1.2387  0.7230
   28DOPE  C310 3586   7.499   5.017   6.231 -0.0223 -0.3381  0.6103
   28DOPE  H10X 3587   7.457   4.958   6.314 -0.3473  0.6848  1.1933
   28DOPE  C311 3588   7.416   5.001   6.107  0.2974  0.3123  1.0184
   28DOPE  H11X 3589   7.410   5.100   6.057 -1.3059 -0.1429  0.2147
   28DOPE  H11Y 3590   7.472   4.941   6.031 -1.0945 -0.3797  0.4874
   28DOPE  C312 3591   7.275   4.946   6.132  0.0276  0.4995 -0.4061
   28DOPE  H12X 3592   7.203   5.019   6.177 -1.6644 -0.4212 -1.5115
   28DOPE  H12Y 3593   7.280   4.861   6.204 -0.6917 -0.0044 -0.9393
   28DOPE  C313 3594   7.212   4.890   6.003 -0.2985 -0.6838 -0.1475
   28DOPE  H13X 3595   7.221   4.977   5.934 -0.3474 -0.8928 -0.4207
   28DOPE  H13Y 3596   7.272   4.804   5.965  1.4090 -0.7299  2.4407
   28DOPE  C314 3597   7.064   4.854   6.010  0.4079 -0.4767 -0.4977
   28DOPE  H14X 3598   6.993   4.939   6.015 -0.1188 -0.7201 -2.8267
   28DOPE  H14Y 3599   7.049   4.782   6.093 -0.6642  0.7247  0.3855
   28DOPE  C315 3600   7.020   4.779   5.884  0.4181 -0.4159 -0.0370
   28DOPE  H15X 3601   6.916   4.744   5.901 -0.0435  0.6486 -0.5768
   28DOPE  H15Y 3602   7.086   4.690   5.876  0.8406 -0.2663  1.5031
   28DOPE  C316 3603   7.023   4.871   5.760 -0.1889  0.0049  0.2454
   28DOPE  H16X 3604   7.044   4.813   5.667  1.7779 -0.5580  1.0046
   28DOPE  H16Y 3605   7.108   4.942   5.768  0.8368 -0.9873 -1.3022
   28DOPE  C317 3606   6.893   4.946   5.742 -0.1564 -0.3405  0.8180
   28DOPE  H17X 3607   6.805   4.883   5.715 -0.3552  0.9374 -1.7784
   28DOPE  H17Y 3608   6.874   5.001   5.836  1.4893  1.4002  0.1889
   28DOPE  C318 3609   6.894   5.053   5.628 -0.1780 -1.1445  0.0151
   28DOPE  H18X 3610   6.907   5.012   5.526 -3.1270 -0.4393 -0.7387
   28DOPE  H18Y 3611   6.810   5.125   5.624  1.7117  1.1494 -2.1143
   28DOPE  H18Z 3612   6.982   5.121   5.633  0.1141 -1.3412 -1.7306
   29DOPE     N 3613   0.778   0.389   7.043 -0.2151 -0.1330  0.1469
   29DOPE   HN1 3614   0.739   0.344   6.958  0.0993  1.9248 -1.1576
   29DOPE   HN2 3615   0.768   0.492   7.030  1.3537  0.0434  0.0911
   29DOPE   HN3 3616   0.876   0.353   7.043 -0.8753 -2.0083  0.5040
   29DOPE   C12 3617   0.717   0.316   7.157 -0.4450  0.1055 -0.5414
   29DOPE  H12A 3618   0.614   0.351   7.178  0.2223  2.1740 -0.4620
   29DOPE  H12B 3619   0.793   0.336   7.235  0.8855 -2.2108 -1.1435
   29DOPE   C11 3620   0.703   0.166   7.114 -0.4520 -0.3023  0.7971
   29DOPE  H11A 3621   0.674   0.101   7.199 -3.1234 -1.5073 -0.8696
   29DOPE  H11B 3622   0.804   0.141   7.077 -1.0884 -0.8557 -0.6646
   29DOPE     P 3623   0.622   0.004   6.923  0.1513 -0.3724 -0.0580
   29DOPE   O13 3624   0.573  -0.110   7.009  0.5084  0.1929  0.3167
   29DOPE   O14 3625   0.759  -0.015   6.868  0.1101 -0.9663  0.2664
   29DOPE   O11 3626   0.518   0.017   6.808  0.0656  0.2345 -0.3041
   29DOPE   O12 3627   0.609   0.146   7.002 -0.8669  0.3528  0.1201
   29DOPE    C1 3628   0.407   0.100   6.805 -0.1353  0.2935  0.9948
   29DOPE    HA 3629   0.411   0.199   6.854  2.6140  0.2440  1.0138
   29DOPE    HB 3630   0.322   0.042   6.847  0.8145 -2.0953 -0.1488
   29DOPE    C2 3631   0.375   0.125   6.658  0.5825 -0.2853  0.1636
   29DOPE    HS 3632   0.274   0.171   6.661 -1.7477 -4.7409  3.3683
   29DOPE   O21 3633   0.354   0.000   6.588 -0.4363 -0.8036  0.7535
   29DOPE   C21 3634   0.233  -0.045   6.587 -0.7015  0.7633 -0.7480
   29DOPE   O22 3635   0.146  -0.016   6.669 -0.0075 -0.0631  0.2553
   29DOPE   C22 3636   0.217  -0.120   6.460 -1.0388 -0.8282  0.3852
   29DOPE   H2R 3637   0.146  -0.200   6.488  1.0977 -2.7928  0.4864
   29DOPE   H2S 3638   0.315  -0.161   6.428 -0.4187 -1.8948  3.3208
   29DOPE    C3 3639   0.470   0.221   6.586 -0.6337  0.2290  0.3177
   29DOPE    HX 3640   0.576   0.195   6.608 -0.8397 -0.8502  0.1069
   29DOPE    HY 3641   0.451   0.319   6.634  1.1122  1.6034 -1.6336
   29DOPE   O31 3642   0.445   0.229   6.438 -0.1530  0.1990  0.5502
   29DOPE   C31 3643   0.335   0.301   6.405  0.1581  0.1625 -0.2903
   29DOPE   O32 3644   0.246   0.340   6.474 -0.2078 -0.0790 -0.2344
   29DOPE   C32 3645   0.334   0.299   6.249 -0.0680  0.5097 -0.2517
   29DOPE   H2X 3646   0.435   0.332   6.216  1.3363  0.4609  3.5086
   29DOPE   H2Y 3647   0.315   0.195   6.215 -0.1274  0.6756 -0.7303
   29DOPE   C23 3648   0.157  -0.022   6.358  0.2447  0.1378  0.1948
   29DOPE   H3R 3649   0.194   0.083   6.359  0.1558  0.1759 -0.1919
   29DOPE   H3S 3650   0.047  -0.019   6.373  0.1456  0.9699 -0.6356
   29DOPE   C24 3651   0.176  -0.054   6.206 -0.0458  0.6147 -0.2071
   29DOPE   H4R 3652   0.148  -0.159   6.183 -4.1165  0.9199  2.2655
   29DOPE   H4S 3653   0.278  -0.045   6.165 -0.0629  0.0763 -0.3788
   29DOPE   C25 3654   0.080   0.027   6.111  0.4453  0.7005  0.2496
   29DOPE   H5R 3655   0.101   0.135   6.120 -3.0278  1.8904 -2.9052
   29DOPE   H5S 3656  -0.022  -0.001   6.146 -0.1516  1.5793 -0.7176
   29DOPE   C26 3657   0.111  -0.009   5.967  0.4552  0.2729  0.0952
   29DOPE   H6R 3658   0.113  -0.117   5.943  1.2369  0.7345 -2.1032
   29DOPE   H6S 3659   0.202   0.045   5.935  0.2405  2.3024  2.5324
   29DOPE   C27 3660  -0.004   0.039   5.870 -0.1793 -0.1579  0.0884
   29DOPE   H7R 3661   0.008   0.148   5.849  0.3653 -0.0002  1.1393
   29DOPE   H7S 3662  -0.094   0.030   5.933  1.1404 -0.0320  2.0724
   29DOPE   C28 3663  -0.014  -0.020   5.726 -0.4716  0.3330 -0.2068
   29DOPE   H8R 3664   0.081   0.015   5.682 -0.3539  0.8816  0.4562
   29DOPE   H8S 3665  -0.099   0.023   5.668 -0.3916 -1.6977 -1.9418
   29DOPE   C29 3666  -0.041  -0.167   5.738  0.1214 -0.0023 -0.6725
   29DOPE   H9R 3667   0.052  -0.213   5.773  1.0342  1.9715 -0.3330
   29DOPE  C210 3668  -0.141  -0.243   5.700 -0.1207 -0.1259  0.2641
   29DOPE  H10R 3669  -0.137  -0.350   5.725 -0.1774 -0.5425 -1.3789
   29DOPE  C211 3670  -0.268  -0.184   5.656  0.5459 -0.0751 -0.0526
   29DOPE  H11R 3671  -0.290  -0.088   5.708 -0.5112 -0.6198  0.5369
   29DOPE  H11S 3672  -0.353  -0.255   5.669  1.1244 -0.7559  0.0239
   29DOPE  C212 3673  -0.274  -0.148   5.504  0.7381 -0.7099 -0.2662
   29DOPE  H12R 3674  -0.192  -0.080   5.471  0.7995 -0.7111 -0.1194
   29DOPE  H12S 3675  -0.370  -0.096   5.484  1.1322 -0.2620 -1.0513
   29DOPE  C213 3676  -0.273  -0.278   5.419 -0.0531  0.1393 -0.3155
   29DOPE  H13R 3677  -0.331  -0.359   5.469  2.0910 -0.3126  1.6103
   29DOPE  H13S 3678  -0.167  -0.312   5.424  0.0890  0.4214 -1.2203
   29DOPE  C214 3679  -0.325  -0.269   5.273 -0.5234 -0.5106  0.2643
   29DOPE  H14R 3680  -0.255  -0.197   5.226 -0.4015 -0.4466  0.5419
   29DOPE  H14S 3681  -0.427  -0.224   5.275 -1.3062 -2.1688 -0.4499
   29DOPE  C215 3682  -0.332  -0.399   5.191 -1.2799  0.9136 -0.0221
   29DOPE  H15R 3683  -0.409  -0.466   5.234 -0.4125 -0.6842 -0.8995
   29DOPE  H15S 3684  -0.237  -0.456   5.201 -2.0317 -0.6417 -1.3589
   29DOPE  C216 3685  -0.350  -0.387   5.041 -0.2768 -0.3610  0.1217
   29DOPE  H16R 3686  -0.442  -0.328   5.019  0.3445  0.0012 -1.6983
   29DOPE  H16S 3687  -0.343  -0.481   4.983 -0.4195  0.0619 -0.5858
   29DOPE  C217 3688  -0.237  -0.295   4.981  0.8619 -0.3264  0.5625
   29DOPE  H17R 3689  -0.150  -0.325   5.043  0.4122 -0.9165  0.9182
   29DOPE  H17S 3690  -0.260  -0.191   5.013  3.2792  0.2946  0.4754
   29DOPE  C218 3691  -0.219  -0.298   4.826 -0.3862 -0.2879  0.1595
   29DOPE  H18R 3692  -0.304  -0.262   4.763 -0.8420 -0.3272  0.7367
   29DOPE  H18S 3693  -0.207  -0.407   4.808  1.3450  0.3170 -3.0721
   29DOPE  H18T 3694  -0.131  -0.243   4.788  0.1179  0.2005  1.9579
   29DOPE   C33 3695   0.227   0.393   6.184 -0.0571 -0.1690 -0.1766
   29DOPE   H3X 3696   0.249   0.499   6.208 -0.5419 -0.4731  1.8371
   29DOPE   H3Y 3697   0.125   0.367   6.219  0.0012 -2.8340 -1.7151
   29DOPE   C34 3698   0.226   0.383   6.031  0.2011  0.5982 -0.2591
   29DOPE   H4X 3699   0.325   0.413   5.991  0.9904 -1.5562 -0.0713
   29DOPE   H4Y 3700   0.187   0.283   6.002 -0.6066  0.6504  0.5956
   29DOPE   C35 3701   0.124   0.481   5.976  0.6793  0.4493  0.2012
   29DOPE   H5X 3702   0.140   0.588   6.001  0.7531  0.3276  0.6786
   29DOPE   H5Y 3703   0.025   0.451   6.016 -0.1178 -1.7306 -2.9645
   29DOPE   C36 3704   0.100   0.471   5.826 -0.6283 -0.0071  0.6089
   29DOPE   H6X 3705   0.012   0.527   5.789 -0.6408  0.2837  1.0811
   29DOPE   H6Y 3706   0.089   0.363   5.801  0.1944 -0.9032  3.7288
   29DOPE   C37 3707   0.229   0.521   5.746  0.2296  0.2735 -0.4716
   29DOPE   H7X 3708   0.315   0.499   5.813 -0.8747 -0.5204  0.7307
   29DOPE   H7Y 3709   0.240   0.461   5.653  0.2198 -0.3904 -0.0483
   29DOPE   C38 3710   0.242   0.673   5.718  0.3979 -0.6443 -0.0815
   29DOPE   H8X 3711   0.349   0.700   5.710  0.4620  0.5024  3.2034
   29DOPE   H8Y 3712   0.206   0.737   5.801  2.2001 -0.3393  0.4952
   29DOPE   C39 3713   0.167   0.723   5.594  0.2388  0.5260  0.2512
   29DOPE   H9X 3714   0.059   0.746   5.602 -0.2576 -0.8731 -1.8201
   29DOPE  C310 3715   0.218   0.727   5.472 -0.2177  0.3725 -0.0969
   29DOPE  H10X 3716   0.155   0.749   5.384  1.4566  0.5367 -1.2938
   29DOPE  C311 3717   0.352   0.672   5.430 -0.5380 -0.7472  0.0783
   29DOPE  H11X 3718   0.435   0.700   5.498 -0.4639  1.0348 -0.6940
   29DOPE  H11Y 3719   0.342   0.562   5.422 -2.0962 -0.6062 -0.3349
   29DOPE  C312 3720   0.394   0.722   5.290  0.0137  0.2210  0.4133
   29DOPE  H12X 3721   0.410   0.832   5.291 -0.4429  0.3143 -0.8333
   29DOPE  H12Y 3722   0.316   0.713   5.212 -1.1488  1.0628  1.4157
   29DOPE  C313 3723   0.527   0.659   5.253 -0.4350  0.1361  0.0097
   29DOPE  H13X 3724   0.603   0.709   5.317  0.4077 -1.6658  0.5037
   29DOPE  H13Y 3725   0.522   0.551   5.282 -1.2487  0.2601  0.3669
   29DOPE  C314 3726   0.547   0.675   5.105 -0.2176 -0.2166  0.1284
   29DOPE  H14X 3727   0.581   0.778   5.079 -1.6789  0.3976  0.5348
   29DOPE  H14Y 3728   0.455   0.639   5.056  1.2371 -2.4591 -1.1551
   29DOPE  C315 3729   0.644   0.569   5.055  0.6484  0.0322  0.3412
   29DOPE  H15X 3730   0.625   0.537   4.950  1.3062  0.2138  0.1640
   29DOPE  H15Y 3731   0.625   0.474   5.110  3.8668 -1.3185 -0.6548
   29DOPE  C316 3732   0.789   0.617   5.062 -0.1123 -0.0675  0.4909
   29DOPE  H16X 3733   0.856   0.531   5.077  0.2416  0.2245  0.5975
   29DOPE  H16Y 3734   0.793   0.678   5.155 -0.2476 -0.8929  1.0379
   29DOPE  C317 3735   0.823   0.708   4.942 -0.9490  0.3251  0.1182
   29DOPE  H17X 3736   0.821   0.652   4.846 -1.2097  1.3488 -0.4933
   29DOPE  H17Y 3737   0.752   0.792   4.930  0.8729  1.9696  0.3835
   29DOPE  C318 3738   0.976   0.745   4.939  0.0939 -0.3455  0.6999
   29DOPE  H18X 3739   1.036   0.651   4.930  1.6209  0.3689  2.6408
   29DOPE  H18Y 3740   1.013   0.803   4.851  1.1257  2.8485  3.0579
   29DOPE  H18Z 3741   1.011   0.792   5.033 -0.0666 -1.2034  1.2035
   30DOPE     N 3742   1.909   7.465   7.023 -0.2083  0.0287  0.1745
   30DOPE   HN1 3743   1.842   7.523   7.077 -0.9043  3.1796 -3.6474
   30DOPE   HN2 3744   1.898   7.364   7.046 -0.5289 -0.3200 -1.4030
   30DOPE   HN3 3745   2.006   7.494   7.048  0.2952 -0.3631 -1.2328
   30DOPE   C12 3746   1.876   7.487   6.877 -0.6843  0.1628 -0.1359
   30DOPE  H12A 3747   1.959   7.446   6.815 -1.2552  0.8687 -1.4026
   30DOPE  H12B 3748   1.878   7.598   6.867 -0.4735  0.5737  3.3968
   30DOPE   C11 3749   1.750   7.414   6.838  0.3648  0.2171 -0.1908
   30DOPE  H11A 3750   1.740   7.425   6.728  0.1588 -2.8580 -0.5663
   30DOPE  H11B 3751   1.660   7.456   6.887 -0.9088 -1.2168 -1.2125
   30DOPE     P 3752   1.671   7.171   6.809 -0.2241 -0.1145  0.3785
   30DOPE   O13 3753   1.529   7.219   6.820 -0.3011 -0.2934 -0.8464
   30DOPE   O14 3754   1.701   7.038   6.861 -0.3290 -0.1899  0.5494
   30DOPE   O11 3755   1.707   7.172   6.652  0.5772  0.0373  1.0026
   30DOPE   O12 3756   1.760   7.277   6.880 -0.4682 -0.1525 -0.1871
   30DOPE    C1 3757   1.618   7.244   6.559 -0.1165 -0.5691 -0.2480
   30DOPE    HA 3758   1.676   7.295   6.479 -1.9347  0.5218 -0.9373
   30DOPE    HB 3759   1.573   7.334   6.606 -0.2092 -0.0905 -1.2296
   30DOPE    C2 3760   1.503   7.161   6.500  0.3456  0.0230 -0.6758
   30DOPE    HS 3761   1.455   7.115   6.589  2.1566  1.2540  0.9903
   30DOPE   O21 3762   1.554   7.060   6.416 -0.7783  0.2059  0.1208
   30DOPE   C21 3763   1.467   6.978   6.368 -0.2201  1.1448 -0.9755
   30DOPE   O22 3764   1.349   6.971   6.408 -0.6732  0.4419  0.0111
   30DOPE   C22 3765   1.537   6.883   6.270 -0.1852 -0.5560  0.0836
   30DOPE   H2R 3766   1.582   6.795   6.320  0.1830 -0.9519 -0.9113
   30DOPE   H2S 3767   1.625   6.933   6.222 -0.8227 -1.2595 -1.9123
   30DOPE    C3 3768   1.399   7.252   6.431 -0.3720 -0.0777 -0.0882
   30DOPE    HX 3769   1.373   7.334   6.501  1.0065 -0.1733  0.5557
   30DOPE    HY 3770   1.298   7.208   6.414 -0.6445 -0.1968  1.6781
   30DOPE   O31 3771   1.449   7.307   6.307 -0.0855 -0.4727  0.1226
   30DOPE   C31 3772   1.507   7.429   6.313  0.7378 -0.4634 -0.5347
   30DOPE   O32 3773   1.506   7.502   6.411  0.1628 -0.1326  0.3627
   30DOPE   C32 3774   1.582   7.463   6.182  0.3118  0.5129  0.4136
   30DOPE   H2X 3775   1.577   7.574   6.173 -0.7703  0.3821 -1.0193
   30DOPE   H2Y 3776   1.688   7.433   6.197  1.0223  2.4081 -0.4001
   30DOPE   C23 3777   1.435   6.816   6.166  0.6558 -0.0893  0.3923
   30DOPE   H3R 3778   1.349   6.780   6.226 -0.7478  1.8207 -0.3592
   30DOPE   H3S 3779   1.484   6.734   6.108 -2.2034 -0.8119 -1.2210
   30DOPE   C24 3780   1.388   6.923   6.068 -0.0731  1.2327 -0.3456
   30DOPE   H4R 3781   1.481   6.976   6.035  1.3140 -0.9962 -0.2131
   30DOPE   H4S 3782   1.331   7.004   6.117  1.7845  1.2441  1.9784
   30DOPE   C25 3783   1.336   6.859   5.938 -0.6010  0.3566 -0.0458
   30DOPE   H5R 3784   1.403   6.775   5.912 -1.7616 -1.0530  1.3483
   30DOPE   H5S 3785   1.357   6.941   5.865  1.4978  1.5869  1.8367
   30DOPE   C26 3786   1.188   6.820   5.940 -0.2610 -0.2439  0.8096
   30DOPE   H6R 3787   1.138   6.915   5.968 -0.2302  0.5013 -1.4616
   30DOPE   H6S 3788   1.157   6.738   6.009  0.0497 -0.4357  0.7187
   30DOPE   C27 3789   1.128   6.776   5.801 -0.1091  0.3136  0.6625
   30DOPE   H7R 3790   1.165   6.672   5.790 -0.1518  0.3409  0.2222
   30DOPE   H7S 3791   1.179   6.833   5.719  0.6932 -1.5235 -0.1755
   30DOPE   C28 3792   0.981   6.766   5.800 -0.5156  0.2422  0.4661
   30DOPE   H8R 3793   0.941   6.848   5.864 -0.7917 -0.3951  1.1083
   30DOPE   H8S 3794   0.934   6.679   5.850  0.5044 -1.7488 -1.8638
   30DOPE   C29 3795   0.925   6.775   5.656  0.4261  0.0550  0.4689
   30DOPE   H9R 3796   0.933   6.877   5.617  1.8648  0.0766  0.7658
   30DOPE  C210 3797   0.873   6.671   5.586 -1.6529 -0.3281  0.2092
   30DOPE  H10R 3798   0.833   6.689   5.485 -3.1178 -2.6917  0.2898
   30DOPE  C211 3799   0.862   6.529   5.636 -0.1818 -0.2475  0.2231
   30DOPE  H11R 3800   0.913   6.513   5.733 -0.7649  0.0849  0.5916
   30DOPE  H11S 3801   0.918   6.465   5.565 -0.4954 -0.4106  0.1202
   30DOPE  C212 3802   0.719   6.467   5.656 -0.0842 -0.1665  0.5124
   30DOPE  H12R 3803   0.677   6.465   5.553  0.9888 -0.9803  0.0686
   30DOPE  H12S 3804   0.666   6.542   5.718  1.3954  2.0990 -0.8375
   30DOPE  C213 3805   0.708   6.327   5.724 -0.2840  0.7616  0.1529
   30DOPE  H13R 3806   0.787   6.320   5.802  0.8725 -0.2779 -1.0741
   30DOPE  H13S 3807   0.726   6.245   5.652 -1.2066 -0.4315  1.2352
   30DOPE  C214 3808   0.574   6.286   5.798  0.2938 -0.9299  0.4275
   30DOPE  H14R 3809   0.589   6.189   5.849 -1.4919 -0.2352  2.4006
   30DOPE  H14S 3810   0.509   6.280   5.708  1.4448  0.8383 -0.5897
   30DOPE  C215 3811   0.520   6.389   5.902  0.1041 -0.2543 -0.1421
   30DOPE  H15R 3812   0.481   6.479   5.851  1.2220  0.7674  0.7510
   30DOPE  H15S 3813   0.604   6.410   5.972  0.2413 -0.2341 -0.3115
   30DOPE  C216 3814   0.403   6.324   5.980  0.7490 -0.2004 -0.5983
   30DOPE  H16R 3815   0.440   6.235   6.036 -0.4811  0.8322  2.0344
   30DOPE  H16S 3816   0.317   6.282   5.925 -1.8218 -0.1296  2.9831
   30DOPE  C217 3817   0.347   6.427   6.088  0.4086 -0.0997  0.7790
   30DOPE  H17R 3818   0.295   6.508   6.032  0.4730  0.1681  1.1001
   30DOPE  H17S 3819   0.423   6.472   6.154 -1.0541  2.7265  0.6965
   30DOPE  C218 3820   0.242   6.354   6.182 -0.2240  0.9173  0.1583
   30DOPE  H18R 3821   0.284   6.262   6.229 -3.5411 -1.0681 -0.4137
   30DOPE  H18S 3822   0.152   6.317   6.128 -1.7782  1.0621  2.4746
   30DOPE  H18T 3823   0.209   6.426   6.260  1.0253  1.5938  0.0707
   30DOPE   C33 3824   1.518   7.405   6.054  0.4495  0.2276  0.1094
   30DOPE   H3X 3825   1.408   7.426   6.056 -0.3209 -3.3020  0.6365
   30DOPE   H3Y 3826   1.534   7.295   6.057 -0.5512  0.0801  0.5414
   30DOPE   C34 3827   1.566   7.469   5.918  0.0073  0.2485  0.1884
   30DOPE   H4X 3828   1.505   7.429   5.834 -0.2305 -0.0255  0.4941
   30DOPE   H4Y 3829   1.539   7.577   5.926  0.3395  0.2784  0.9412
   30DOPE   C35 3830   1.721   7.446   5.901 -0.8334 -0.6419  0.0267
   30DOPE   H5X 3831   1.754   7.340   5.908  0.9682 -0.1504 -0.4099
   30DOPE   H5Y 3832   1.778   7.488   5.987 -3.1253 -0.3651  1.5079
   30DOPE   C36 3833   1.778   7.504   5.773 -0.4017 -0.2249  0.5371
   30DOPE   H6X 3834   1.748   7.610   5.767 -2.2236 -0.7525 -0.2994
   30DOPE   H6Y 3835   1.744   7.450   5.682 -0.7171  0.4304  0.2623
   30DOPE   C37 3836   1.928   7.491   5.771 -0.7074  0.0001  0.2740
   30DOPE   H7X 3837   1.961   7.524   5.871 -1.7096  0.9182  0.3089
   30DOPE   H7Y 3838   1.960   7.385   5.767 -3.3520 -0.8505 -0.4793
   30DOPE   C38 3839   1.998   7.573   5.652  0.2810  0.2737 -0.0333
   30DOPE   H8X 3840   1.988   7.677   5.689 -0.8128  0.6584 -1.3446
   30DOPE   H8Y 3841   1.939   7.565   5.559 -0.9475  0.8429  0.6756
   30DOPE   C39 3842   2.148   7.542   5.636 -0.1498  0.0310 -0.5156
   30DOPE   H9X 3843   2.202   7.517   5.729 -0.5703  1.8468  0.2493
   30DOPE  C310 3844   2.225   7.552   5.521  0.4774  0.1932  0.1739
   30DOPE  H10X 3845   2.328   7.515   5.531 -0.0393 -1.4223 -0.1685
   30DOPE  C311 3846   2.181   7.585   5.380 -0.3991  0.3142 -0.8233
   30DOPE  H11X 3847   2.078   7.628   5.381  0.2045  2.1768  3.1784
   30DOPE  H11Y 3848   2.247   7.667   5.345  0.3672 -0.5940 -1.5483
   30DOPE  C312 3849   2.195   7.473   5.281 -0.0120 -0.4616 -0.1773
   30DOPE  H12X 3850   2.299   7.434   5.282  0.1512 -0.4480 -3.7084
   30DOPE  H12Y 3851   2.173   7.508   5.178 -0.6205  1.6626  0.6083
   30DOPE  C313 3852   2.104   7.351   5.308 -0.0916 -0.0594 -0.3612
   30DOPE  H13X 3853   2.134   7.304   5.404  0.6890 -0.1444 -0.6441
   30DOPE  H13Y 3854   1.999   7.382   5.330 -0.3560 -0.5447 -0.9283
   30DOPE  C314 3855   2.098   7.257   5.194 -0.4852  1.0947 -0.6061
   30DOPE  H14X 3856   2.203   7.243   5.161  0.6728  5.9822  0.1305
   30DOPE  H14Y 3857   2.048   7.307   5.108 -1.1521  1.2098 -0.1577
   30DOPE  C315 3858   2.023   7.124   5.233  0.0494  0.0446 -0.2660
   30DOPE  H15X 3859   1.913   7.142   5.238  0.1053  0.2517  0.2632
   30DOPE  H15Y 3860   2.039   7.090   5.337 -1.2278  0.1426 -0.0220
   30DOPE  C316 3861   2.064   7.018   5.128  0.2178 -0.6179 -0.4598
   30DOPE  H16X 3862   2.003   6.928   5.151  2.4130 -2.2498 -0.6823
   30DOPE  H16Y 3863   2.172   6.997   5.141  0.2287 -1.7160 -2.0842
   30DOPE  C317 3864   2.044   7.056   4.980  0.4090  0.1030 -0.0948
   30DOPE  H17X 3865   1.939   7.089   4.967  0.4577  0.3263  0.0729
   30DOPE  H17Y 3866   2.113   7.140   4.956  0.6280 -0.0770 -0.0999
   30DOPE  C318 3867   2.086   6.939   4.893  0.3181  0.0896 -0.4750
   30DOPE  H18X 3868   2.189   6.906   4.918 -0.3510 -0.1858  2.2610
   30DOPE  H18Y 3869   2.014   6.854   4.901 -0.9608  1.2461  0.6762
   30DOPE  H18Z 3870   2.086   6.969   4.786  2.0667  0.0765 -0.5090
   31DOPE     N 3871   5.277   3.819   2.629  0.6107  0.2935  0.1286
   31DOPE   HN1 3872   5.357   3.882   2.648 -0.9015  2.5193 -0.3946
   31DOPE   HN2 3873   5.190   3.875   2.643 -0.3076 -1.6152  2.7568
   31DOPE   HN3 3874   5.258   3.747   2.701  0.3134 -0.2810 -0.5016
   31DOPE   C12 3875   5.273   3.748   2.492  0.4644  0.6411 -0.6594
   31DOPE  H12A 3876   5.233   3.818   2.415 -0.2111  0.4893 -0.4508
   31DOPE  H12B 3877   5.201   3.667   2.515  0.5156  1.3102  2.3085
   31DOPE   C11 3878   5.417   3.706   2.459 -0.3887 -0.0818  0.2737
   31DOPE  H11A 3879   5.473   3.802   2.451 -2.2724  1.0718  0.4133
   31DOPE  H11B 3880   5.422   3.654   2.361  0.9045  1.2733 -0.4208
   31DOPE     P 3881   5.602   3.536   2.528  0.2972  0.2072 -0.0166
   31DOPE   O13 3882   5.697   3.629   2.467  0.2818  0.3566 -0.2374
   31DOPE   O14 3883   5.557   3.429   2.439  0.0680 -0.0276  0.1018
   31DOPE   O11 3884   5.654   3.468   2.661 -0.2975  0.5948 -0.0259
   31DOPE   O12 3885   5.474   3.624   2.563  0.3685  0.3678 -0.6041
   31DOPE    C1 3886   5.554   3.431   2.760 -0.4140 -0.2018  0.1997
   31DOPE    HA 3887   5.546   3.320   2.762 -0.8312 -0.1873 -0.1831
   31DOPE    HB 3888   5.451   3.471   2.747 -0.3031  0.4595  1.3345
   31DOPE    C2 3889   5.614   3.466   2.900 -0.7900  0.1097 -0.5850
   31DOPE    HS 3890   5.725   3.454   2.900 -0.2000  4.1814 -1.3652
   31DOPE   O21 3891   5.538   3.409   3.009 -0.2811  0.4417  0.1888
   31DOPE   C21 3892   5.588   3.293   3.054  0.0405 -0.2475 -0.2146
   31DOPE   O22 3893   5.685   3.242   3.001  0.2116  0.9648 -0.2291
   31DOPE   C22 3894   5.499   3.231   3.158  0.3826 -0.1691  0.4749
   31DOPE   H2R 3895   5.417   3.182   3.102 -0.8149  2.4694 -0.2464
   31DOPE   H2S 3896   5.460   3.309   3.227  0.3922  0.7272 -0.5034
   31DOPE    C3 3897   5.604   3.616   2.922 -0.4100 -0.3997  0.3972
   31DOPE    HX 3898   5.497   3.644   2.911  0.2131  2.5708  1.0039
   31DOPE    HY 3899   5.663   3.673   2.847  0.0419 -0.6888  0.5312
   31DOPE   O31 3900   5.643   3.665   3.052 -0.7377 -0.2795  0.1092
   31DOPE   C31 3901   5.774   3.662   3.087  0.5298 -0.7767  0.9327
   31DOPE   O32 3902   5.863   3.637   3.011  0.7583 -0.2249  0.7103
   31DOPE   C32 3903   5.792   3.698   3.234  0.2273  0.0529  0.0004
   31DOPE   H2X 3904   5.837   3.798   3.223 -0.4616  0.3456 -0.2367
   31DOPE   H2Y 3905   5.696   3.715   3.288  0.4118  1.2800 -0.0422
   31DOPE   C23 3906   5.580   3.123   3.243 -0.4912 -0.1874 -0.0317
   31DOPE   H3R 3907   5.663   3.171   3.299 -0.3219 -1.0815  0.5000
   31DOPE   H3S 3908   5.623   3.045   3.178 -0.1352 -0.5648  0.6525
   31DOPE   C24 3909   5.481   3.059   3.343  0.0605  0.2479 -0.2930
   31DOPE   H4R 3910   5.402   3.131   3.372 -0.4663 -1.1363  2.0170
   31DOPE   H4S 3911   5.534   3.012   3.430 -0.4348 -1.0360 -0.6535
   31DOPE   C25 3912   5.411   2.937   3.275  0.0291  0.1635 -0.0375
   31DOPE   H5R 3913   5.481   2.852   3.265 -0.1302  0.0623 -0.2883
   31DOPE   H5S 3914   5.369   2.968   3.177  2.2875 -1.3456 -1.5831
   31DOPE   C26 3915   5.294   2.883   3.360  0.2707  0.5992  0.3886
   31DOPE   H6R 3916   5.245   2.804   3.299  3.3824 -0.7541 -0.5572
   31DOPE   H6S 3917   5.222   2.967   3.367 -1.0289 -0.5602  1.4607
   31DOPE   C27 3918   5.314   2.826   3.504  0.5935  0.0060  0.3928
   31DOPE   H7R 3919   5.213   2.788   3.533 -0.9886  2.0376 -2.0166
   31DOPE   H7S 3920   5.328   2.915   3.569 -0.5273 -1.0386  2.1670
   31DOPE   C28 3921   5.428   2.727   3.531 -0.0530 -0.4821  0.0849
   31DOPE   H8R 3922   5.464   2.721   3.636  0.9236  0.6669 -0.1626
   31DOPE   H8S 3923   5.522   2.772   3.493  0.3410 -0.1299  1.4253
   31DOPE   C29 3924   5.415   2.600   3.454 -0.1474  0.2439  0.5767
   31DOPE   H9R 3925   5.411   2.609   3.345  1.3509 -1.3973  0.3374
   31DOPE  C210 3926   5.424   2.470   3.498  0.4858  0.1164 -0.0914
   31DOPE  H10R 3927   5.417   2.386   3.428  2.2018  0.1363 -0.3496
   31DOPE  C211 3928   5.442   2.430   3.643  0.4456 -0.8277  0.0824
   31DOPE  H11R 3929   5.354   2.374   3.681 -0.6483  1.2502  0.7749
   31DOPE  H11S 3930   5.442   2.519   3.710  0.7405  1.1324 -2.3694
   31DOPE  C212 3931   5.578   2.369   3.676 -0.2109 -0.1827 -0.0678
   31DOPE  H12R 3932   5.584   2.277   3.614  1.7729  0.5349 -1.0158
   31DOPE  H12S 3933   5.580   2.347   3.785 -0.6624 -1.8963 -0.3774
   31DOPE  C213 3934   5.697   2.460   3.652  0.2273 -0.2092  0.0056
   31DOPE  H13R 3935   5.684   2.551   3.714  2.0956  0.4396 -0.4899
   31DOPE  H13S 3936   5.694   2.486   3.544  0.8150  3.2958  0.6882
   31DOPE  C214 3937   5.839   2.400   3.673  0.8707 -0.1938  0.3707
   31DOPE  H14R 3938   5.843   2.312   3.605 -1.7524 -2.2371  2.6354
   31DOPE  H14S 3939   5.863   2.351   3.770  1.0739 -0.8366  0.0043
   31DOPE  C215 3940   5.947   2.509   3.653  1.0120  0.0990 -0.7673
   31DOPE  H15R 3941   5.920   2.593   3.720 -0.8470  1.9500 -3.6359
   31DOPE  H15S 3942   5.937   2.558   3.554  1.2175  0.4557 -0.6128
   31DOPE  C216 3943   6.085   2.466   3.695  0.3809 -0.1670 -0.0833
   31DOPE  H16R 3944   6.109   2.373   3.639  1.7533  1.1930 -1.8800
   31DOPE  H16S 3945   6.097   2.447   3.804 -1.2224 -1.0392 -0.0328
   31DOPE  C217 3946   6.192   2.569   3.650  1.2994 -0.7346 -0.4241
   31DOPE  H17R 3947   6.170   2.609   3.548 -1.7273 -2.0945 -0.4106
   31DOPE  H17S 3948   6.284   2.507   3.645  0.3212 -2.3032  0.2849
   31DOPE  C218 3949   6.213   2.684   3.745 -0.4047  0.0221  0.0069
   31DOPE  H18R 3950   6.302   2.748   3.729 -1.1680  1.2859  0.6845
   31DOPE  H18S 3951   6.207   2.647   3.850 -2.2768 -0.7823 -0.3437
   31DOPE  H18T 3952   6.130   2.757   3.737  0.6660  1.3255  0.3600
   31DOPE   C33 3953   5.860   3.585   3.301  0.5460  0.7306  0.4296
   31DOPE   H3X 3954   5.967   3.576   3.272  0.8676  0.2311  1.7234
   31DOPE   H3Y 3955   5.807   3.490   3.276 -0.9858  1.7921 -0.5271
   31DOPE   C34 3956   5.858   3.592   3.457 -0.3138  0.6174 -0.7133
   31DOPE   H4X 3957   5.926   3.676   3.484  0.4905 -0.1775 -0.2263
   31DOPE   H4Y 3958   5.751   3.609   3.484  0.0128 -1.1340  2.0326
   31DOPE   C35 3959   5.905   3.470   3.530  0.0003 -0.4472 -0.0960
   31DOPE   H5X 3960   6.013   3.450   3.513 -0.3680 -1.7221 -1.0880
   31DOPE   H5Y 3961   5.859   3.382   3.480 -0.0370  0.7119 -2.2024
   31DOPE   C36 3962   5.883   3.477   3.683 -0.2377  0.4791 -0.0453
   31DOPE   H6X 3963   5.774   3.487   3.705 -0.2675  0.2484 -0.0776
   31DOPE   H6Y 3964   5.943   3.566   3.709  0.1762  1.2874 -3.3439
   31DOPE   C37 3965   5.921   3.353   3.775  0.2563  0.2565  0.0406
   31DOPE   H7X 3966   5.845   3.272   3.766 -1.4356  1.7578  0.1998
   31DOPE   H7Y 3967   6.020   3.322   3.734  0.5944  0.1748  0.9125
   31DOPE   C38 3968   5.951   3.391   3.924 -0.2977 -0.5552 -0.3455
   31DOPE   H8X 3969   6.015   3.481   3.921 -1.0387  0.1084  1.9856
   31DOPE   H8Y 3970   6.009   3.303   3.960  1.1501  0.8326  0.8413
   31DOPE   C39 3971   5.835   3.431   4.011  0.0289  0.0722  0.6703
   31DOPE   H9X 3972   5.760   3.486   3.953  0.1788 -0.6486 -0.2359
   31DOPE  C310 3973   5.824   3.412   4.144  0.3126  0.1791  0.1949
   31DOPE  H10X 3974   5.727   3.441   4.187  0.5596  0.2595  0.7013
   31DOPE  C311 3975   5.923   3.345   4.236  0.4981 -0.4627  0.5056
   31DOPE  H11X 3976   6.027   3.377   4.213  0.5146 -0.3548  0.7276
   31DOPE  H11Y 3977   5.906   3.373   4.342 -1.4064  1.3822 -0.2208
   31DOPE  C312 3978   5.942   3.195   4.217  0.3735 -0.4140 -0.7290
   31DOPE  H12X 3979   5.973   3.175   4.112  1.2504 -0.8304 -0.4017
   31DOPE  H12Y 3980   5.842   3.146   4.228 -1.0686  2.0032 -2.1471
   31DOPE  C313 3981   6.046   3.143   4.325  0.6365 -0.3737  0.3419
   31DOPE  H13X 3982   6.024   3.196   4.420  2.1927  0.4277  0.2813
   31DOPE  H13Y 3983   6.026   3.034   4.333 -0.3865 -0.1980  0.3322
   31DOPE  C314 3984   6.188   3.158   4.279  0.0456  0.1234 -0.5203
   31DOPE  H14X 3985   6.195   3.255   4.226  0.8759 -0.0525 -0.7430
   31DOPE  H14Y 3986   6.206   3.083   4.198  0.6053  0.6539 -0.8869
   31DOPE  C315 3987   6.294   3.157   4.386 -0.2702  0.4602 -0.0124
   31DOPE  H15X 3988   6.279   3.249   4.446  0.8682 -1.3576  3.3126
   31DOPE  H15Y 3989   6.397   3.164   4.345 -0.4889  1.4094 -0.4284
   31DOPE  C316 3990   6.278   3.039   4.478  0.0387  0.0022 -0.5628
   31DOPE  H16X 3991   6.264   2.956   4.404  0.7068  0.7373 -1.5388
   31DOPE  H16Y 3992   6.183   3.047   4.536  0.6840  0.9119  0.3999
   31DOPE  C317 3993   6.395   3.017   4.577  0.0534  0.2991  0.7711
   31DOPE  H17X 3994   6.360   2.937   4.646 -1.0957  0.2224  0.1239
   31DOPE  H17Y 3995   6.482   2.989   4.514 -0.5882  0.9488 -0.4374
   31DOPE  C318 3996   6.433   3.129   4.676 -0.1151 -0.3474  0.3729
   31DOPE  H18X 3997   6.508   3.087   4.746  1.3280  0.6736 -0.4961
   31DOPE  H18Y 3998   6.487   3.214   4.629  0.5061  0.1276  1.8833
   31DOPE  H18Z 3999   6.339   3.155   4.729 -0.7272 -2.6269  0.5272
   32DOPE     N 4000   6.530   4.723   3.307 -0.7708 -0.5147  0.2336
   32DOPE   HN1 4001   6.597   4.663   3.360 -0.5593 -1.8947 -1.5262
   32DOPE   HN2 4002   6.578   4.807   3.269 -0.0812 -1.3143 -0.6995
   32DOPE   HN3 4003   6.441   4.751   3.355 -1.0681 -0.3598 -0.4053
   32DOPE   C12 4004   6.497   4.625   3.201 -0.0704 -0.7402 -0.2424
   32DOPE  H12A 4005   6.471   4.686   3.112 -0.9830 -1.3448 -0.4087
   32DOPE  H12B 4006   6.401   4.580   3.234 -0.1828  0.4299  1.1067
   32DOPE   C11 4007   6.601   4.517   3.165  0.0256  0.2083 -0.0185
   32DOPE  H11A 4008   6.701   4.562   3.147 -0.3687  1.2122  0.2534
   32DOPE  H11B 4009   6.564   4.477   3.068 -0.2886 -1.0884  0.6211
   32DOPE     P 4010   6.693   4.417   3.386 -0.0679 -0.0513 -0.1999
   32DOPE   O13 4011   6.686   4.550   3.445  0.5706 -0.8380  0.3301
   32DOPE   O14 4012   6.822   4.352   3.361  0.3587 -0.3441 -0.0728
   32DOPE   O11 4013   6.621   4.323   3.487 -0.1785  0.2020  0.6894
   32DOPE   O12 4014   6.606   4.408   3.257 -0.2870  0.1881  0.1111
   32DOPE    C1 4015   6.482   4.356   3.534 -0.6637  0.1983  0.5681
   32DOPE    HA 4016   6.408   4.277   3.510  0.3349 -0.4517 -0.5412
   32DOPE    HB 4017   6.445   4.450   3.489  1.0188  0.0804 -1.2104
   32DOPE    C2 4018   6.493   4.374   3.686 -0.1481  0.5867 -0.1803
   32DOPE    HS 4019   6.389   4.380   3.725  0.6396 -1.3762  2.4983
   32DOPE   O21 4020   6.572   4.491   3.731  0.0442 -0.0432  0.3007
   32DOPE   C21 4021   6.510   4.611   3.720  0.1172 -0.5946 -0.2334
   32DOPE   O22 4022   6.398   4.626   3.672 -0.2463  0.4158 -0.2357
   32DOPE   C22 4023   6.589   4.715   3.784 -0.2666 -0.3295 -0.5833
   32DOPE   H2R 4024   6.653   4.765   3.708 -2.0573 -0.5657 -2.3224
   32DOPE   H2S 4025   6.668   4.669   3.848  1.8414  2.7831 -0.7129
   32DOPE    C3 4026   6.556   4.249   3.756  0.5678 -0.3724 -0.3119
   32DOPE    HX 4027   6.662   4.249   3.721  0.1790  0.7587 -1.5786
   32DOPE    HY 4028   6.515   4.154   3.716  2.2640 -2.1315  1.8691
   32DOPE   O31 4029   6.541   4.258   3.896  0.0927 -0.0709 -0.1497
   32DOPE   C31 4030   6.421   4.221   3.939  0.4032 -0.1967 -0.0694
   32DOPE   O32 4031   6.326   4.187   3.870 -0.0435  0.0577 -0.0031
   32DOPE   C32 4032   6.416   4.261   4.086 -0.2938  0.1065 -0.6842
   32DOPE   H2X 4033   6.489   4.193   4.134 -1.9623  0.2691  2.2833
   32DOPE   H2Y 4034   6.462   4.361   4.100 -1.8128  0.9935 -1.7163
   32DOPE   C23 4035   6.502   4.812   3.862 -0.5652  0.4747 -0.2799
   32DOPE   H3R 4036   6.427   4.863   3.798 -2.0459 -0.5736  0.5490
   32DOPE   H3S 4037   6.568   4.890   3.907  0.5169 -0.1992 -0.6521
   32DOPE   C24 4038   6.439   4.751   3.990  0.3569  0.7446 -0.2082
   32DOPE   H4R 4039   6.532   4.713   4.037  1.3754  0.7306 -2.1347
   32DOPE   H4S 4040   6.376   4.665   3.960  0.2443  0.0814  1.7965
   32DOPE   C25 4041   6.350   4.852   4.069  0.8001 -0.4097 -0.1123
   32DOPE   H5R 4042   6.256   4.867   4.011  0.2133 -2.3909  0.2625
   32DOPE   H5S 4043   6.406   4.947   4.060 -1.1942  0.6544 -2.4125
   32DOPE   C26 4044   6.319   4.809   4.215 -0.6670 -0.4836 -0.0350
   32DOPE   H6R 4045   6.419   4.779   4.254 -1.2822 -1.4883  0.8412
   32DOPE   H6S 4046   6.258   4.716   4.214 -2.1719  0.4636 -0.3224
   32DOPE   C27 4047   6.253   4.911   4.306  0.2228 -0.9911  0.4253
   32DOPE   H7R 4048   6.159   4.946   4.259  2.1089  3.1378 -0.7517
   32DOPE   H7S 4049   6.315   5.003   4.316 -0.0716 -0.9469  2.0800
   32DOPE   C28 4050   6.235   4.847   4.444 -0.8468 -0.2980 -0.1866
   32DOPE   H8R 4051   6.333   4.812   4.484 -1.1593 -1.0624 -0.0843
   32DOPE   H8S 4052   6.164   4.762   4.439 -0.5941 -0.5772  0.8072
   32DOPE   C29 4053   6.168   4.943   4.535 -0.8275 -0.0244 -0.2782
   32DOPE   H9R 4054   6.061   4.953   4.509 -0.5614  0.7092 -1.1393
   32DOPE  C210 4055   6.225   5.004   4.643  0.4823  0.0122 -0.5396
   32DOPE  H10R 4056   6.164   5.068   4.709 -0.4289  0.0369 -1.3853
   32DOPE  C211 4057   6.376   5.004   4.670 -0.5753 -0.4180 -0.2821
   32DOPE  H11R 4058   6.406   5.096   4.725 -0.3633 -0.1370 -0.8689
   32DOPE  H11S 4059   6.424   4.997   4.571 -0.4602 -0.3230 -0.2336
   32DOPE  C212 4060   6.405   4.875   4.751 -0.3807 -0.0280  0.1028
   32DOPE  H12R 4061   6.516   4.865   4.753 -0.2711  0.6328 -1.4168
   32DOPE  H12S 4062   6.372   4.778   4.709 -2.1533 -0.4066  2.2091
   32DOPE  C213 4063   6.371   4.876   4.899  0.4946 -0.4112  0.2112
   32DOPE  H13R 4064   6.260   4.875   4.907  0.5353 -0.0645  0.8725
   32DOPE  H13S 4065   6.406   4.969   4.949  1.2102 -1.2834  1.3851
   32DOPE  C214 4066   6.420   4.753   4.983  0.3420  0.4994  0.1875
   32DOPE  H14R 4067   6.530   4.740   4.975  0.3294  0.6273 -0.2253
   32DOPE  H14S 4068   6.370   4.667   4.934 -0.3746  1.1680 -0.2696
   32DOPE  C215 4069   6.387   4.751   5.132 -0.6237 -1.0462 -0.3330
   32DOPE  H15R 4070   6.393   4.646   5.169  0.8198 -0.8207  0.1362
   32DOPE  H15S 4071   6.285   4.784   5.157 -1.0611 -2.5990  0.0694
   32DOPE  C216 4072   6.494   4.820   5.220 -0.3003 -0.6106 -0.0031
   32DOPE  H16R 4073   6.497   4.931   5.209 -3.0236 -0.0266  3.1973
   32DOPE  H16S 4074   6.592   4.785   5.183  0.4205  0.3132  0.9638
   32DOPE  C217 4075   6.487   4.791   5.374 -0.2994 -0.1252  0.0104
   32DOPE  H17R 4076   6.458   4.685   5.388 -1.9755  0.7182  4.5377
   32DOPE  H17S 4077   6.422   4.862   5.430 -0.1270  1.3717 -1.5926
   32DOPE  C218 4078   6.622   4.812   5.434 -0.4524 -0.4473  0.2778
   32DOPE  H18R 4079   6.616   4.768   5.536 -0.7251  1.7205  1.2527
   32DOPE  H18S 4080   6.644   4.920   5.434  1.8762 -0.8634 -0.0854
   32DOPE  H18T 4081   6.705   4.762   5.380  0.7180 -1.3867  2.7690
   32DOPE   C33 4082   6.274   4.241   4.144  0.0896 -0.1358  0.3172
   32DOPE   H3X 4083   6.271   4.130   4.145  2.3133 -0.2352  0.2761
   32DOPE   H3Y 4084   6.197   4.278   4.073 -0.4375 -1.9079 -0.0988
   32DOPE   C34 4085   6.267   4.278   4.291  0.3601 -0.0669  0.0134
   32DOPE   H4X 4086   6.283   4.388   4.289  0.5501 -0.0875  0.3289
   32DOPE   H4Y 4087   6.169   4.257   4.340  1.2696 -0.1610  1.8802
   32DOPE   C35 4088   6.382   4.231   4.382 -0.5966  1.1866  0.8947
   32DOPE   H5X 4089   6.481   4.271   4.354 -0.5463  0.2164 -0.3699
   32DOPE   H5Y 4090   6.398   4.121   4.372  0.0831  1.4978 -2.3193
   32DOPE   C36 4091   6.352   4.259   4.533  0.0770 -0.0624  0.5695
   32DOPE   H6X 4092   6.435   4.217   4.594 -0.4079  2.5678  3.2941
   32DOPE   H6Y 4093   6.268   4.190   4.558  1.1163 -1.2407  0.9201
   32DOPE   C37 4094   6.337   4.407   4.561 -0.0813 -0.6402 -0.6218
   32DOPE   H7X 4095   6.420   4.461   4.511  0.9337 -1.3276  0.3035
   32DOPE   H7Y 4096   6.241   4.432   4.511  0.4105  0.7029 -0.9442
   32DOPE   C38 4097   6.340   4.452   4.705 -0.1778  0.3375 -0.4939
   32DOPE   H8X 4098   6.345   4.563   4.707 -0.1455  0.3287  1.0980
   32DOPE   H8Y 4099   6.434   4.411   4.747 -0.5756  0.5971  0.7050
   32DOPE   C39 4100   6.229   4.402   4.790  0.1259  0.0324  0.5256
   32DOPE   H9X 4101   6.133   4.437   4.750  1.1548  1.9690 -0.3632
   32DOPE  C310 4102   6.231   4.336   4.905  0.0497 -0.2168  0.1494
   32DOPE  H10X 4103   6.143   4.286   4.946  1.0012 -1.8328  0.2965
   32DOPE  C311 4104   6.356   4.288   4.976  0.3510 -0.1953  0.0779
   32DOPE  H11X 4105   6.330   4.186   5.012 -1.6503 -0.1466 -1.0891
   32DOPE  H11Y 4106   6.440   4.279   4.904 -1.6925  2.1258 -2.8660
   32DOPE  C312 4107   6.405   4.384   5.091  0.6884  1.2148 -0.1273
   32DOPE  H12X 4108   6.310   4.416   5.139 -0.1265  0.3011 -1.1054
   32DOPE  H12Y 4109   6.445   4.475   5.040  1.4842  0.3125 -1.1600
   32DOPE  C313 4110   6.500   4.312   5.186  0.2435  0.2553 -0.4500
   32DOPE  H13X 4111   6.453   4.228   5.241  3.3437 -1.3233 -0.0104
   32DOPE  H13Y 4112   6.591   4.285   5.129 -0.9820  0.4822 -2.6294
   32DOPE  C314 4113   6.549   4.406   5.304 -0.0193  0.0763 -0.2118
   32DOPE  H14X 4114   6.479   4.423   5.389  0.8665 -0.2486  0.6070
   32DOPE  H14Y 4115   6.577   4.502   5.255  4.8080 -1.0442 -0.1157
   32DOPE  C315 4116   6.681   4.360   5.362 -0.0378  0.6466 -0.1739
   32DOPE  H15X 4117   6.761   4.344   5.286  1.1863 -1.7996  1.4684
   32DOPE  H15Y 4118   6.659   4.261   5.408  1.0829 -0.1734 -1.3057
   32DOPE  C316 4119   6.747   4.445   5.470  0.2081 -0.0164 -0.0212
   32DOPE  H16X 4120   6.703   4.444   5.572  4.7759 -0.8521  2.2169
   32DOPE  H16Y 4121   6.747   4.549   5.430  1.8823 -0.4819 -1.3375
   32DOPE  C317 4122   6.892   4.393   5.496 -0.3627 -0.1030 -0.0823
   32DOPE  H17X 4123   6.876   4.283   5.501 -0.3551 -0.1041 -0.0814
   32DOPE  H17Y 4124   6.945   4.416   5.402 -0.5353 -0.2199 -0.2098
   32DOPE  C318 4125   6.958   4.429   5.628 -0.7073  0.0304 -0.4964
   32DOPE  H18X 4126   6.901   4.372   5.704 -0.5580  0.6367  0.0827
   32DOPE  H18Y 4127   7.063   4.394   5.622  0.5374  3.3721 -0.5425
   32DOPE  H18Z 4128   6.956   4.538   5.653  1.2953 -0.0880  0.3575
   33DOPE     N 4129   5.522   2.076   2.660  0.2565  0.1805 -0.0730
   33DOPE   HN1 4130   5.515   2.153   2.591 -4.6391 -2.6776 -3.3965
   33DOPE   HN2 4131   5.555   2.112   2.752  3.9279 -1.4456 -0.5689
   33DOPE   HN3 4132   5.604   2.017   2.636  1.5370  1.2671  1.3811
   33DOPE   C12 4133   5.400   1.993   2.674  0.1651  0.4345 -0.0045
   33DOPE  H12A 4134   5.394   1.931   2.583  2.3924  1.0945 -0.6582
   33DOPE  H12B 4135   5.310   2.055   2.695 -1.1640 -1.5608  0.4494
   33DOPE   C11 4136   5.405   1.897   2.789 -0.8263  0.4774 -0.3563
   33DOPE  H11A 4137   5.498   1.837   2.798 -0.2393  1.3306 -0.6302
   33DOPE  H11B 4138   5.323   1.821   2.783  0.2254 -0.6335 -1.3013
   33DOPE     P 4139   5.510   2.034   3.002  0.3205 -0.2435  0.3565
   33DOPE   O13 4140   5.464   2.120   3.117 -0.0364 -0.5553 -0.1558
   33DOPE   O14 4141   5.607   2.104   2.913 -0.2255  0.5262  0.2372
   33DOPE   O11 4142   5.558   1.896   3.058  0.2440 -0.9474  0.5183
   33DOPE   O12 4143   5.388   1.983   2.910 -0.4434 -0.7458  0.8543
   33DOPE    C1 4144   5.478   1.806   3.130  0.5477  0.4277 -0.7955
   33DOPE    HA 4145   5.509   1.702   3.108  3.2417  0.1883  3.0953
   33DOPE    HB 4146   5.370   1.818   3.106  0.6128 -0.4374 -1.5567
   33DOPE    C2 4147   5.477   1.844   3.284 -0.7076 -0.0978  0.4210
   33DOPE    HS 4148   5.444   1.949   3.300 -0.5760  0.1634 -0.8749
   33DOPE   O21 4149   5.620   1.837   3.323  0.3794  0.2312  0.7108
   33DOPE   C21 4150   5.668   1.933   3.405 -0.3526  0.1440  0.1088
   33DOPE   O22 4151   5.603   2.026   3.444 -0.7214 -0.5077  0.3762
   33DOPE   C22 4152   5.803   1.900   3.458 -0.1422 -0.5994 -0.4165
   33DOPE   H2R 4153   5.879   1.930   3.384  2.0968 -1.8189  1.2652
   33DOPE   H2S 4154   5.806   1.789   3.465 -0.6597 -0.6642 -1.1156
   33DOPE    C3 4155   5.383   1.752   3.373 -0.2488 -0.5499 -0.3161
   33DOPE    HX 4156   5.430   1.651   3.372  1.7886  0.3175  0.8649
   33DOPE    HY 4157   5.284   1.750   3.323 -0.2719 -0.9827 -0.2591
   33DOPE   O31 4158   5.364   1.798   3.507  0.5644 -0.5396  0.0565
   33DOPE   C31 4159   5.263   1.883   3.517 -0.2460  0.4821 -0.0450
   33DOPE   O32 4160   5.170   1.898   3.438 -0.4183 -0.1047  0.7429
   33DOPE   C32 4161   5.275   1.967   3.636  0.0850  0.4958 -0.2640
   33DOPE   H2X 4162   5.354   2.042   3.614  0.6220 -0.6785 -2.6654
   33DOPE   H2Y 4163   5.178   2.021   3.638 -0.5825 -0.6512 -0.9731
   33DOPE   C23 4164   5.825   1.968   3.595 -0.5139 -0.4174 -0.7619
   33DOPE   H3R 4165   5.735   1.970   3.659  0.0804 -2.5166  0.2047
   33DOPE   H3S 4166   5.856   2.075   3.585 -2.3973  0.3950  1.3885
   33DOPE   C24 4167   5.934   1.907   3.682 -0.7341  0.4153  0.3652
   33DOPE   H4R 4168   6.019   1.907   3.611 -0.7406  0.5567  0.3572
   33DOPE   H4S 4169   5.902   1.804   3.709  0.9956 -0.7401 -1.7237
   33DOPE   C25 4170   5.971   1.984   3.805  0.7334  0.3968 -0.3475
   33DOPE   H5R 4171   5.875   2.007   3.857  0.2876  1.0158 -1.4189
   33DOPE   H5S 4172   6.023   2.081   3.789  1.3750 -0.1921 -1.9666
   33DOPE   C26 4173   6.055   1.912   3.914  0.6308  0.3252 -0.4513
   33DOPE   H6R 4174   6.154   1.885   3.870 -0.7683 -0.6959 -3.1982
   33DOPE   H6S 4175   6.019   1.811   3.943 -1.4882  1.3561  0.7241
   33DOPE   C27 4176   6.070   1.995   4.035  0.8503  0.1003  0.0175
   33DOPE   H7R 4177   6.099   2.093   3.993  0.8020 -0.8839 -2.4532
   33DOPE   H7S 4178   6.154   1.961   4.099 -0.0247 -1.5545  0.3785
   33DOPE   C28 4179   5.942   2.000   4.117 -0.1112 -0.7336 -0.4087
   33DOPE   H8R 4180   5.917   1.907   4.172  1.1997 -1.1294 -0.4708
   33DOPE   H8S 4181   5.860   2.036   4.051  0.5711  1.4817 -0.1384
   33DOPE   C29 4182   5.963   2.114   4.217 -0.3531 -0.1610  0.4141
   33DOPE   H9R 4183   5.968   2.074   4.319 -1.0583  0.7367  0.8156
   33DOPE  C210 4184   5.952   2.242   4.197 -0.2392 -0.6275 -0.3135
   33DOPE  H10R 4185   5.956   2.308   4.285 -0.4428 -1.2141  0.1435
   33DOPE  C211 4186   5.921   2.314   4.067 -0.1867 -0.0672 -0.2142
   33DOPE  H11R 4187   5.899   2.253   3.977  0.2074 -0.2010 -0.2216
   33DOPE  H11S 4188   6.001   2.381   4.030 -0.8716  1.0806  0.3206
   33DOPE  C212 4189   5.801   2.411   4.094 -0.0510  0.0121  0.3412
   33DOPE  H12R 4190   5.779   2.482   4.011 -0.8447 -1.4472 -0.7342
   33DOPE  H12S 4191   5.837   2.476   4.177  0.6917  0.1340 -0.0740
   33DOPE  C213 4192   5.668   2.357   4.138  0.8421  0.4235  0.4003
   33DOPE  H13R 4193   5.685   2.297   4.230 -0.9800  0.1039  0.5504
   33DOPE  H13S 4194   5.631   2.287   4.060  2.5494 -0.8958  0.7192
   33DOPE  C214 4195   5.558   2.461   4.180  0.2449 -0.0534  0.1775
   33DOPE  H14R 4196   5.607   2.530   4.252  0.0262 -0.7926  1.0562
   33DOPE  H14S 4197   5.482   2.409   4.242  0.8566 -0.2879  0.7373
   33DOPE  C215 4198   5.482   2.535   4.063 -0.8857  0.1593 -0.3001
   33DOPE  H15R 4199   5.429   2.456   4.006  0.2447  0.2913 -1.5881
   33DOPE  H15S 4200   5.552   2.577   3.987 -1.6355  1.3900 -0.3272
   33DOPE  C216 4201   5.401   2.654   4.117 -0.9034  0.3153  0.5475
   33DOPE  H16R 4202   5.473   2.717   4.174  1.1480 -0.8828 -0.6072
   33DOPE  H16S 4203   5.317   2.616   4.180 -1.5207  0.1940 -0.3298
   33DOPE  C217 4204   5.337   2.738   4.009  0.0274 -0.3671  0.1953
   33DOPE  H17R 4205   5.298   2.667   3.932 -0.2127  1.3978 -1.3866
   33DOPE  H17S 4206   5.410   2.813   3.971 -1.4764  1.6110  1.0070
   33DOPE  C218 4207   5.216   2.822   4.059 -0.4489 -0.0123 -0.1921
   33DOPE  H18R 4208   5.127   2.760   4.085  0.3268 -1.2668 -0.3975
   33DOPE  H18S 4209   5.191   2.887   3.973  0.2152  0.4930 -0.0042
   33DOPE  H18T 4210   5.245   2.887   4.145  1.4053 -2.2769  1.0171
   33DOPE   C33 4211   5.313   1.895   3.774  0.0403  0.2983 -0.1850
   33DOPE   H3X 4212   5.262   1.798   3.790  0.7615 -0.3866 -1.7864
   33DOPE   H3Y 4213   5.281   1.969   3.850  0.5139 -0.8491  1.1628
   33DOPE   C34 4214   5.463   1.873   3.785 -0.0936  0.0087 -0.1899
   33DOPE   H4X 4215   5.486   1.791   3.713 -1.3127 -2.0942  1.6791
   33DOPE   H4Y 4216   5.521   1.961   3.749 -0.6700  0.4346 -0.0881
   33DOPE   C35 4217   5.529   1.835   3.922  0.2187  0.2467  0.8387
   33DOPE   H5X 4218   5.640   1.840   3.921  0.3370 -1.7810  0.1430
   33DOPE   H5Y 4219   5.503   1.731   3.951 -0.0125  0.3579  1.0330
   33DOPE   C36 4220   5.469   1.921   4.032  0.1259  0.0590 -0.2602
   33DOPE   H6X 4221   5.364   1.885   4.031 -0.0963  0.6752  0.1831
   33DOPE   H6Y 4222   5.480   2.021   3.984  1.2114 -0.4252 -1.0653
   33DOPE   C37 4223   5.535   1.911   4.169  0.2586  0.3450  0.1372
   33DOPE   H7X 4224   5.533   1.809   4.212  1.8912 -0.3838 -1.3475
   33DOPE   H7Y 4225   5.641   1.935   4.145 -0.0349  0.6429 -0.9372
   33DOPE   C38 4226   5.513   2.026   4.270 -0.3134 -0.3361 -0.3815
   33DOPE   H8X 4227   5.516   2.122   4.215 -0.8826  0.4098  0.8641
   33DOPE   H8Y 4228   5.594   2.030   4.346 -2.6712 -1.6746  2.3564
   33DOPE   C39 4229   5.383   2.007   4.339  0.6404 -0.1994 -0.0595
   33DOPE   H9X 4230   5.296   2.010   4.273 -0.5627 -0.7974  1.4231
   33DOPE  C310 4231   5.363   2.014   4.471  0.3465  0.1638  0.4538
   33DOPE  H10X 4232   5.259   2.010   4.506  0.3704 -0.0912  0.4944
   33DOPE  C311 4233   5.469   2.026   4.576 -0.1975  0.7754 -0.4078
   33DOPE  H11X 4234   5.548   2.091   4.533 -0.6484 -0.2126 -2.9088
   33DOPE  H11Y 4235   5.419   2.091   4.651 -0.8127 -0.0762 -0.0636
   33DOPE  C312 4236   5.527   1.905   4.653 -0.4040  0.2305 -0.0078
   33DOPE  H12X 4237   5.453   1.859   4.722  0.6209  0.6341  1.4178
   33DOPE  H12Y 4238   5.610   1.952   4.711  0.1903  0.0265 -0.6732
   33DOPE  C313 4239   5.596   1.791   4.568 -0.2882 -0.7012 -0.8928
   33DOPE  H13X 4240   5.524   1.739   4.501 -0.5280  1.1215 -2.1110
   33DOPE  H13Y 4241   5.662   1.841   4.493 -1.1060 -1.9035 -2.4779
   33DOPE  C314 4242   5.676   1.690   4.656 -0.6749  0.0060 -0.1647
   33DOPE  H14X 4243   5.759   1.741   4.709 -0.3952 -2.0222  1.4618
   33DOPE  H14Y 4244   5.737   1.632   4.583  0.3192  1.4524 -0.5442
   33DOPE  C315 4245   5.588   1.616   4.763 -0.0600 -0.5222  0.0884
   33DOPE  H15X 4246   5.628   1.515   4.786  0.1695 -0.5572 -0.4428
   33DOPE  H15Y 4247   5.491   1.589   4.718 -0.2989 -1.7671  1.2830
   33DOPE  C316 4248   5.588   1.686   4.900  0.6600 -0.0065  0.1632
   33DOPE  H16X 4249   5.511   1.766   4.905  1.5659  0.8865  0.3418
   33DOPE  H16Y 4250   5.687   1.735   4.918  1.7774 -1.9742 -0.3602
   33DOPE  C317 4251   5.557   1.594   5.012 -0.6641  0.4989  0.1559
   33DOPE  H17X 4252   5.464   1.537   4.989  0.2177 -0.6266 -0.7649
   33DOPE  H17Y 4253   5.629   1.509   5.011 -0.4194  0.6681 -1.9823
   33DOPE  C318 4254   5.543   1.653   5.150 -0.0510 -1.3676 -0.2723
   33DOPE  H18X 4255   5.467   1.734   5.144  2.0690  0.6475 -1.4277
   33DOPE  H18Y 4256   5.516   1.581   5.230 -2.3896  0.3132  0.5621
   33DOPE  H18Z 4257   5.636   1.702   5.186  0.1914 -2.1060  0.1306
   34DOPE     N 4258   3.986   4.030   2.477 -0.1855  0.6618 -0.4424
   34DOPE   HN1 4259   4.010   4.127   2.449  2.2181  0.3233  0.2298
   34DOPE   HN2 4260   4.010   3.966   2.398  1.7503 -0.2083  0.7558
   34DOPE   HN3 4261   3.884   4.025   2.497 -0.0301  2.4642  0.9415
   34DOPE   C12 4262   4.057   3.981   2.601 -0.0698  0.1184  0.7267
   34DOPE  H12A 4263   4.008   3.884   2.625 -1.7149  1.0006  1.1094
   34DOPE  H12B 4264   4.034   4.049   2.686  2.4911 -2.0506  3.3783
   34DOPE   C11 4265   4.208   3.982   2.594  0.4961  0.5845 -0.0729
   34DOPE  H11A 4266   4.240   3.921   2.507 -0.6920  1.4756 -1.1820
   34DOPE  H11B 4267   4.241   3.945   2.693  2.0689  0.1770 -0.7337
   34DOPE     P 4268   4.275   4.223   2.662  0.1960  0.0338 -0.1518
   34DOPE   O13 4269   4.136   4.270   2.697  0.4712 -0.3556  0.1386
   34DOPE   O14 4270   4.358   4.324   2.600 -0.1109  0.4765 -0.2730
   34DOPE   O11 4271   4.355   4.160   2.789  0.1924 -0.4046  0.2100
   34DOPE   O12 4272   4.256   4.106   2.559  0.4511  0.0213 -0.3121
   34DOPE    C1 4273   4.358   4.237   2.912  0.7122  0.7679  0.0538
   34DOPE    HA 4274   4.319   4.341   2.903 -0.0379  0.5949  1.1422
   34DOPE    HB 4275   4.460   4.253   2.952  0.1779  1.4231  1.2211
   34DOPE    C2 4276   4.285   4.155   3.019  0.4470 -0.1177 -0.5821
   34DOPE    HS 4277   4.195   4.099   2.985  0.9746 -1.1689 -0.2698
   34DOPE   O21 4278   4.263   4.248   3.125  0.1953 -0.2121  0.1861
   34DOPE   C21 4279   4.150   4.238   3.193  0.3693 -0.6912 -0.2609
   34DOPE   O22 4280   4.057   4.164   3.173  0.0272  0.4974 -0.0519
   34DOPE   C22 4281   4.161   4.334   3.316  0.5615 -0.6135 -0.0263
   34DOPE   H2R 4282   4.110   4.427   3.283  2.4422  0.7525  0.6995
   34DOPE   H2S 4283   4.267   4.355   3.340  0.1134 -1.3062  2.9916
   34DOPE    C3 4284   4.379   4.032   3.068  0.2550 -0.1828  0.5765
   34DOPE    HX 4285   4.470   4.074   3.117  0.8752  0.2032 -0.8536
   34DOPE    HY 4286   4.408   3.963   2.985  1.3636 -1.5841  2.0476
   34DOPE   O31 4287   4.304   3.956   3.165  0.1854  0.2477 -0.0858
   34DOPE   C31 4288   4.382   3.866   3.237  0.0561 -0.8313 -0.1610
   34DOPE   O32 4289   4.502   3.864   3.242  0.2553  0.3271 -0.2331
   34DOPE   C32 4290   4.290   3.783   3.320  0.9118 -0.1785 -0.2170
   34DOPE   H2X 4291   4.253   3.844   3.405 -0.7475  2.2861 -2.5492
   34DOPE   H2Y 4292   4.212   3.754   3.247  1.6154  0.4698 -1.2509
   34DOPE   C23 4293   4.091   4.282   3.444  0.1419 -0.4830  0.0589
   34DOPE   H3R 4294   3.983   4.282   3.417 -0.3626 -1.5471  1.9030
   34DOPE   H3S 4295   4.108   4.360   3.522  0.4086 -0.4919  0.0099
   34DOPE   C24 4296   4.143   4.150   3.499  0.1254  0.2901  0.0850
   34DOPE   H4R 4297   4.254   4.146   3.497  0.1128 -1.6594  0.9055
   34DOPE   H4S 4298   4.095   4.076   3.431 -1.1850  0.4112  0.8572
   34DOPE   C25 4299   4.103   4.108   3.640 -0.0132 -0.4600  0.8807
   34DOPE   H5R 4300   3.992   4.122   3.643 -0.0875  0.0819 -1.7786
   34DOPE   H5S 4301   4.157   4.175   3.710  2.3349 -1.9145  0.5470
   34DOPE   C26 4302   4.146   3.964   3.671 -0.2830 -0.1102 -0.2255
   34DOPE   H6R 4303   4.246   3.947   3.625  0.6258  1.2659  1.1209
   34DOPE   H6S 4304   4.083   3.887   3.622  1.7098  0.2457 -3.6487
   34DOPE   C27 4305   4.161   3.945   3.825  1.0236  0.2647  0.3733
   34DOPE   H7R 4306   4.060   3.946   3.871  1.3118 -0.2700  1.0430
   34DOPE   H7S 4307   4.225   4.028   3.861  2.5358  0.6849 -2.9167
   34DOPE   C28 4308   4.231   3.821   3.884  0.2343 -0.2685 -0.3101
   34DOPE   H8R 4309   4.249   3.834   3.993 -1.2086 -1.9185  0.1638
   34DOPE   H8S 4310   4.327   3.821   3.828 -1.0046  1.2412 -2.5964
   34DOPE   C29 4311   4.152   3.689   3.870  0.1005  0.0939 -0.1691
   34DOPE   H9R 4312   4.091   3.683   3.779 -0.6879  0.5607  0.3190
   34DOPE  C210 4313   4.120   3.594   3.959  0.5005  0.0075 -0.1127
   34DOPE  H10R 4314   4.041   3.522   3.932 -0.7003  0.9976  0.6925
   34DOPE  C211 4315   4.154   3.589   4.107  0.2450  0.6150  0.0641
   34DOPE  H11R 4316   4.247   3.648   4.122  0.5374  1.3817 -3.8703
   34DOPE  H11S 4317   4.180   3.484   4.136  1.4444  1.1909  1.1840
   34DOPE  C212 4318   4.041   3.647   4.198 -0.1604  0.3750  0.2505
   34DOPE  H12R 4319   3.948   3.597   4.165  0.6331 -0.9972  0.0060
   34DOPE  H12S 4320   4.028   3.755   4.175  0.7237  0.5304  0.4469
   34DOPE  C213 4321   4.069   3.622   4.345  1.2427  0.2177 -0.4246
   34DOPE  H13R 4322   4.133   3.708   4.375  1.4497 -0.2169  0.4078
   34DOPE  H13S 4323   4.128   3.531   4.366  0.9650 -0.2068 -1.4101
   34DOPE  C214 4324   3.943   3.627   4.433  0.3367  0.1274  0.6858
   34DOPE  H14R 4325   3.872   3.544   4.412  0.9088 -0.1501 -0.1985
   34DOPE  H14S 4326   3.897   3.724   4.405 -0.5460 -0.3208  0.5390
   34DOPE  C215 4327   3.970   3.631   4.582 -0.4191 -0.7905 -0.1830
   34DOPE  H15R 4328   4.054   3.702   4.596 -0.4716 -0.3110 -2.0259
   34DOPE  H15S 4329   4.005   3.533   4.621  0.8085  0.2043  1.2820
   34DOPE  C216 4330   3.849   3.674   4.668  0.9538  0.1934 -0.1449
   34DOPE  H16R 4331   3.842   3.634   4.771  0.5172 -1.1969 -0.6879
   34DOPE  H16S 4332   3.755   3.635   4.623  2.0889 -0.5397 -2.0206
   34DOPE  C217 4333   3.837   3.827   4.682 -0.2990 -0.8343 -0.2040
   34DOPE  H17R 4334   3.850   3.871   4.581 -1.4435 -1.0045 -0.4480
   34DOPE  H17S 4335   3.924   3.862   4.740  0.4291 -0.4575 -1.4784
   34DOPE  C218 4336   3.707   3.871   4.746  0.0748 -0.7639 -0.3385
   34DOPE  H18R 4337   3.709   3.978   4.777 -0.8504 -0.3130 -1.7399
   34DOPE  H18S 4338   3.688   3.815   4.840  0.6048  3.2748  2.4465
   34DOPE  H18T 4339   3.620   3.846   4.682 -1.3981 -0.1293  1.3323
   34DOPE   C33 4340   4.372   3.661   3.380  0.0858  0.2564  0.6750
   34DOPE   H3X 4341   4.449   3.627   3.307 -0.2674 -1.1924  0.9400
   34DOPE   H3Y 4342   4.294   3.582   3.387  0.4843 -0.2815 -0.6567
   34DOPE   C34 4343   4.437   3.675   3.524  0.0093  0.0752 -0.2846
   34DOPE   H4X 4344   4.514   3.755   3.510 -0.6932  0.6609 -0.8976
   34DOPE   H4Y 4345   4.368   3.721   3.598  2.1942  1.3884  1.0432
   34DOPE   C35 4346   4.496   3.544   3.574  0.5901 -0.3803  0.4226
   34DOPE   H5X 4347   4.592   3.524   3.521  0.0057  0.8360 -1.1894
   34DOPE   H5Y 4348   4.429   3.460   3.549  0.4682  0.0878 -0.9507
   34DOPE   C36 4349   4.541   3.563   3.719 -0.3116  0.1787  0.5091
   34DOPE   H6X 4350   4.459   3.598   3.787 -0.0965 -0.1918  0.9647
   34DOPE   H6Y 4351   4.618   3.643   3.725 -0.8535  0.6580  1.5921
   34DOPE   C37 4352   4.609   3.440   3.785  0.6377  0.5720  0.0399
   34DOPE   H7X 4353   4.679   3.398   3.710 -0.6476 -2.1494  0.2377
   34DOPE   H7Y 4354   4.668   3.480   3.870  2.1831 -1.5739  0.0809
   34DOPE   C38 4355   4.516   3.318   3.813  0.4420 -0.3269  0.2655
   34DOPE   H8X 4356   4.574   3.224   3.825  0.7038 -0.3913 -1.2525
   34DOPE   H8Y 4357   4.463   3.296   3.718  0.6379 -1.1526  0.3425
   34DOPE   C39 4358   4.411   3.329   3.915 -0.5849 -0.2888 -0.5779
   34DOPE   H9X 4359   4.327   3.398   3.901 -1.2464 -0.8090  0.6543
   34DOPE  C310 4360   4.414   3.277   4.043  0.6741  0.1587 -0.6164
   34DOPE  H10X 4361   4.323   3.292   4.103  0.1156 -1.0894 -1.1019
   34DOPE  C311 4362   4.523   3.193   4.111 -0.2053 -0.6139  0.6255
   34DOPE  H11X 4363   4.460   3.110   4.150 -0.9615  1.3659  4.1553
   34DOPE  H11Y 4364   4.604   3.162   4.043  0.8199  0.9291  1.0864
   34DOPE  C312 4365   4.591   3.262   4.228  0.8000 -0.3709  0.1670
   34DOPE  H12X 4366   4.665   3.201   4.284 -0.7305 -0.9126  1.6890
   34DOPE  H12Y 4367   4.512   3.284   4.303 -2.7824  0.0944 -3.4591
   34DOPE  C313 4368   4.660   3.392   4.179  0.0032  0.1789 -0.1786
   34DOPE  H13X 4369   4.757   3.373   4.130  1.0892  1.0376  1.5526
   34DOPE  H13Y 4370   4.588   3.454   4.120  0.9490  0.0052 -1.5589
   34DOPE  C314 4371   4.708   3.482   4.300 -0.1513 -0.0046 -0.5272
   34DOPE  H14X 4372   4.623   3.491   4.372  0.3851 -1.6366  0.3576
   34DOPE  H14Y 4373   4.727   3.582   4.257 -1.6041  1.0266  1.1033
   34DOPE  C315 4374   4.825   3.421   4.378  0.1113 -0.6527  0.3706
   34DOPE  H15X 4375   4.907   3.407   4.304 -3.0037 -0.4229 -3.4468
   34DOPE  H15Y 4376   4.797   3.323   4.424 -2.6499 -0.4752 -0.7695
   34DOPE  C316 4377   4.870   3.513   4.493 -0.2200 -0.2821 -0.1724
   34DOPE  H16X 4378   4.785   3.557   4.549  0.6153  0.9781  0.1536
   34DOPE  H16Y 4379   4.928   3.604   4.468 -1.1301  0.8683  1.7036
   34DOPE  C317 4380   4.954   3.430   4.590  0.4929 -0.4387  0.5672
   34DOPE  H17X 4381   4.888   3.361   4.647 -1.9262  0.2368 -1.2489
   34DOPE  H17Y 4382   5.027   3.360   4.544  1.8264 -0.0525  1.9908
   34DOPE  C318 4383   5.035   3.517   4.684  0.0959  0.2505 -0.0188
   34DOPE  H18X 4384   4.965   3.589   4.731 -1.0278 -0.2678 -0.8435
   34DOPE  H18Y 4385   5.081   3.464   4.770  0.0276  3.3353  2.0765
   34DOPE  H18Z 4386   5.123   3.562   4.632  1.0639  0.3971  1.6921
   35DOPE     N 4387   6.649   1.505   2.942  0.1321 -0.4157  0.6257
   35DOPE   HN1 4388   6.738   1.505   2.996 -0.1203 -0.4978  1.0447
   35DOPE   HN2 4389   6.586   1.425   2.965  0.0663 -0.6850 -0.3947
   35DOPE   HN3 4390   6.687   1.507   2.845 -2.7736 -0.7324 -0.6330
   35DOPE   C12 4391   6.571   1.625   2.954 -0.6996  0.4671 -0.0252
   35DOPE  H12A 4392   6.578   1.690   2.865 -1.2567 -0.1362 -0.5190
   35DOPE  H12B 4393   6.598   1.680   3.047 -0.5613  0.4189 -0.0362
   35DOPE   C11 4394   6.425   1.597   2.974  0.3940  0.1766  0.0047
   35DOPE  H11A 4395   6.373   1.560   2.883  0.3220  0.2501  0.0161
   35DOPE  H11B 4396   6.374   1.693   2.996  2.0768  1.5048 -1.4996
   35DOPE     P 4397   6.270   1.432   3.121  0.7228 -0.2312  0.0528
   35DOPE   O13 4398   6.290   1.293   3.069 -0.3655 -0.3320  0.6865
   35DOPE   O14 4399   6.156   1.513   3.067  0.4369  0.6406  0.2700
   35DOPE   O11 4400   6.268   1.429   3.279  0.4418 -0.3253  0.1957
   35DOPE   O12 4401   6.400   1.508   3.087 -0.6069 -0.1801  0.0609
   35DOPE    C1 4402   6.380   1.458   3.365 -0.2672  0.7949  0.1555
   35DOPE    HA 4403   6.345   1.496   3.463  0.5070 -2.1281  1.6863
   35DOPE    HB 4404   6.446   1.542   3.335  1.0196 -0.0874  0.4432
   35DOPE    C2 4405   6.469   1.337   3.404 -0.5787  0.2284  0.1450
   35DOPE    HS 4406   6.521   1.309   3.310 -1.3008  2.1711 -0.8870
   35DOPE   O21 4407   6.382   1.237   3.449  0.5101  0.4182  0.4158
   35DOPE   C21 4408   6.416   1.113   3.407  0.5507 -0.0809  0.2028
   35DOPE   O22 4409   6.511   1.082   3.340  0.4183  0.1054 -0.4336
   35DOPE   C22 4410   6.306   1.011   3.441  0.7223  0.5797  0.1108
   35DOPE   H2R 4411   6.358   0.914   3.427  1.9165  1.3151 -0.8078
   35DOPE   H2S 4412   6.229   1.023   3.362 -1.2102 -0.0599  1.8126
   35DOPE    C3 4413   6.572   1.375   3.513 -0.2400 -0.7231  0.2139
   35DOPE    HX 4414   6.512   1.375   3.607 -0.0479 -1.8775  0.3447
   35DOPE    HY 4415   6.620   1.473   3.491  0.9605 -0.8711  1.9758
   35DOPE   O31 4416   6.672   1.281   3.541  0.2173  0.1903 -0.2516
   35DOPE   C31 4417   6.788   1.290   3.477 -0.5101  0.4121  0.4849
   35DOPE   O32 4418   6.807   1.359   3.376 -0.0468  0.2939  0.2211
   35DOPE   C32 4419   6.890   1.190   3.539 -0.1722  0.3127  0.7630
   35DOPE   H2X 4420   6.842   1.094   3.566  1.4311 -0.1593  2.1152
   35DOPE   H2Y 4421   6.973   1.169   3.468 -0.2301  0.0450  0.7719
   35DOPE   C23 4422   6.251   1.007   3.584  0.0607 -0.2325 -0.5370
   35DOPE   H3R 4423   6.166   0.939   3.607 -1.2296  1.5432  0.2304
   35DOPE   H3S 4424   6.210   1.105   3.618 -0.8604 -0.7841 -0.0029
   35DOPE   C24 4425   6.363   0.969   3.688  0.8507  0.4123  0.6868
   35DOPE   H4R 4426   6.404   0.867   3.673  0.0861 -0.0632  1.6772
   35DOPE   H4S 4427   6.320   0.966   3.790  2.3016 -0.9378  1.3114
   35DOPE   C25 4428   6.463   1.080   3.711 -1.5804 -0.0241  0.2017
   35DOPE   H5R 4429   6.423   1.179   3.678 -0.6564  0.6173  0.9626
   35DOPE   H5S 4430   6.558   1.064   3.656 -0.2478 -1.1960  2.7050
   35DOPE   C26 4431   6.504   1.093   3.860  0.3311 -1.1177  0.6371
   35DOPE   H6R 4432   6.533   0.991   3.893  1.8352 -2.3756 -3.8728
   35DOPE   H6S 4433   6.412   1.133   3.909  0.5801 -0.2932  0.4485
   35DOPE   C27 4434   6.614   1.189   3.889  0.3766  0.1800  0.2565
   35DOPE   H7R 4435   6.618   1.264   3.807  0.8982  1.3313  1.3043
   35DOPE   H7S 4436   6.714   1.140   3.882  1.3251  2.1543 -1.1848
   35DOPE   C28 4437   6.608   1.256   4.030  0.0997  0.3378 -0.1401
   35DOPE   H8R 4438   6.618   1.177   4.107  3.6188  1.5615  0.8577
   35DOPE   H8S 4439   6.509   1.305   4.041 -0.2953  0.0640 -2.0859
   35DOPE   C29 4440   6.718   1.357   4.048 -0.4195  0.0550  0.2781
   35DOPE   H9R 4441   6.744   1.427   3.968 -2.5012 -0.2582 -0.7309
   35DOPE  C210 4442   6.790   1.385   4.157  0.6464  0.0298  0.5126
   35DOPE  H10R 4443   6.871   1.457   4.141  1.4142 -1.4175 -3.3967
   35DOPE  C211 4444   6.765   1.332   4.296  0.0324 -0.3866  0.4631
   35DOPE  H11R 4445   6.732   1.226   4.300 -2.7845  0.4328  1.4719
   35DOPE  H11S 4446   6.681   1.389   4.342 -2.7362 -2.2217 -1.9179
   35DOPE  C212 4447   6.890   1.334   4.384  0.0815  0.7224  0.2279
   35DOPE  H12R 4448   6.865   1.302   4.488 -1.1471  0.2984 -0.1779
   35DOPE  H12S 4449   6.926   1.439   4.391 -2.3994  1.5765  1.3667
   35DOPE  C213 4450   7.010   1.242   4.331 -0.5291  0.2054 -0.4850
   35DOPE  H13R 4451   7.105   1.296   4.353  0.6812 -2.0983  0.3684
   35DOPE  H13S 4452   7.002   1.230   4.221  0.3004  1.4690 -0.7054
   35DOPE  C214 4453   7.024   1.115   4.413 -0.0320 -0.5190 -0.0301
   35DOPE  H14R 4454   7.097   1.047   4.365 -1.1201 -0.4298 -1.9035
   35DOPE  H14S 4455   6.927   1.061   4.412 -0.1547 -0.3354  0.7575
   35DOPE  C215 4456   7.064   1.156   4.556 -0.1953  0.3758 -0.1431
   35DOPE  H15R 4457   6.981   1.191   4.621 -1.2768 -1.5658 -0.3998
   35DOPE  H15S 4458   7.138   1.234   4.528 -0.4943  0.4006 -0.8870
   35DOPE  C216 4459   7.143   1.040   4.621  0.6961  0.5058 -0.3975
   35DOPE  H16R 4460   7.226   1.004   4.556 -0.3345  0.0216 -1.4860
   35DOPE  H16S 4461   7.065   0.961   4.619  1.0907  0.0745  0.3725
   35DOPE  C217 4462   7.180   1.073   4.767 -0.3561  0.9177  0.2935
   35DOPE  H17R 4463   7.105   1.135   4.821 -2.4160 -0.8621 -0.3780
   35DOPE  H17S 4464   7.263   1.147   4.763  0.8741 -0.2600  2.0689
   35DOPE  C218 4465   7.214   0.939   4.837  0.5815  0.7417  0.0668
   35DOPE  H18R 4466   7.293   0.889   4.776 -1.5140 -1.3600 -1.1209
   35DOPE  H18S 4467   7.124   0.874   4.840  0.6791  0.6237  0.4310
   35DOPE  H18T 4468   7.252   0.948   4.941 -0.2061 -1.6869  0.6327
   35DOPE   C33 4469   6.934   1.233   3.680 -0.0516  0.0475  0.1952
   35DOPE   H3X 4470   6.853   1.240   3.756  1.0510  1.7033  1.2790
   35DOPE   H3Y 4471   6.982   1.331   3.661  1.8866 -1.3229 -2.6319
   35DOPE   C34 4472   7.041   1.138   3.736  0.0328 -0.6844  0.3505
   35DOPE   H4X 4473   7.001   1.035   3.728 -0.0351 -0.4956 -4.3049
   35DOPE   H4Y 4474   7.130   1.130   3.670 -0.0688  1.2542 -0.0999
   35DOPE   C35 4475   7.100   1.172   3.880  0.1628 -0.5769 -0.3658
   35DOPE   H5X 4476   7.029   1.144   3.961  1.0330  0.5632  0.8486
   35DOPE   H5Y 4477   7.107   1.282   3.892 -0.6859 -0.2936 -2.1487
   35DOPE   C36 4478   7.230   1.107   3.903  0.2227  0.4543  0.2597
   35DOPE   H6X 4479   7.305   1.144   3.829 -1.8492 -0.2682 -2.3673
   35DOPE   H6Y 4480   7.225   0.996   3.901  1.9692  0.3560 -0.5727
   35DOPE   C37 4481   7.293   1.128   4.044 -0.3863 -0.4751 -0.2167
   35DOPE   H7X 4482   7.321   1.235   4.058 -0.4832 -0.6099  1.1716
   35DOPE   H7Y 4483   7.212   1.114   4.119 -1.4031  1.9315 -0.7779
   35DOPE   C38 4484   7.417   1.039   4.088  0.1909  0.4698  0.6741
   35DOPE   H8X 4485   7.443   1.078   4.189  0.6151 -0.5905  0.9878
   35DOPE   H8Y 4486   7.501   1.062   4.020  0.1265  0.6238  0.6480
   35DOPE   C39 4487   7.379   0.892   4.090  0.3068  0.0438 -0.8143
   35DOPE   H9X 4488   7.379   0.850   3.988 -2.7997 -2.7119  0.1505
   35DOPE  C310 4489   7.351   0.817   4.197  0.1135 -0.1387  0.3354
   35DOPE  H10X 4490   7.325   0.712   4.182 -3.5777  0.5946  0.6678
   35DOPE  C311 4491   7.355   0.873   4.336 -0.1508  0.1194  0.3770
   35DOPE  H11X 4492   7.291   0.963   4.342 -1.8273 -1.0301  0.2361
   35DOPE  H11Y 4493   7.310   0.792   4.397 -0.8998  0.9243  0.9154
   35DOPE  C312 4494   7.492   0.909   4.393  0.5284  0.2487  0.8082
   35DOPE  H12X 4495   7.533   1.002   4.349  1.3581 -0.2793  0.4413
   35DOPE  H12Y 4496   7.562   0.826   4.369 -1.4390 -0.7691 -1.7593
   35DOPE  C313 4497   7.499   0.932   4.541 -0.2869 -0.1287  0.0084
   35DOPE  H13X 4498   7.464   1.036   4.556  4.3109  1.5747  0.6328
   35DOPE  H13Y 4499   7.430   0.862   4.593  2.4166 -0.9423  2.8543
   35DOPE  C314 4500   7.639   0.910   4.602 -0.3782  0.4850 -0.6865
   35DOPE  H14X 4501   7.706   0.982   4.550 -2.0663  1.9153 -0.9780
   35DOPE  H14Y 4502   7.669   0.803   4.592  1.7296  0.9811 -0.2055
   35DOPE  C315 4503   7.632   0.946   4.750 -1.0482 -0.4076 -1.3388
   35DOPE  H15X 4504   7.546   0.893   4.797 -0.8817  0.2546 -0.2320
   35DOPE  H15Y 4505   7.604   1.053   4.763  0.1823 -0.1649 -0.5470
   35DOPE  C316 4506   7.765   0.905   4.819  0.1883 -0.1957 -0.0170
   35DOPE  H16X 4507   7.850   0.971   4.790  0.7996 -1.8915 -2.3496
   35DOPE  H16Y 4508   7.782   0.799   4.791 -0.5334 -0.9934  2.2746
   35DOPE  C317 4509   7.778   0.918   4.974 -0.2341  0.0171  0.0041
   35DOPE  H17X 4510   7.740   1.018   5.006  0.6340  0.5928 -0.7195
   35DOPE  H17Y 4511   7.701   0.849   5.014 -0.7694 -0.1455 -1.2652
   35DOPE  C318 4512   7.918   0.884   5.024  0.5312  0.2629  0.1572
   35DOPE  H18X 4513   7.914   0.885   5.135 -0.9937  0.8981  0.1239
   35DOPE  H18Y 4514   7.963   0.789   4.988 -1.7164 -0.9567  0.3729
   35DOPE  H18Z 4515   7.985   0.971   5.004 -0.0871  0.3262 -1.9244
   36DOPE     N 4516   0.009   5.253   3.283  0.4584 -0.9304  0.6206
   36DOPE   HN1 4517   0.014   5.351   3.247  2.0112 -1.3994 -0.4878
   36DOPE   HN2 4518   0.072   5.187   3.233 -0.4025 -1.0982 -0.2829
   36DOPE   HN3 4519  -0.088   5.225   3.256  1.2857 -2.5491 -0.7994
   36DOPE   C12 4520   0.015   5.236   3.429  0.2708  0.0733 -0.2933
   36DOPE  H12A 4521  -0.033   5.312   3.495  1.9321 -0.1570  1.2490
   36DOPE  H12B 4522   0.123   5.248   3.454 -0.0018  1.2146  0.3962
   36DOPE   C11 4523  -0.046   5.103   3.466  0.3119  0.1054 -0.1978
   36DOPE  H11A 4524  -0.155   5.107   3.448 -0.2214 -1.4071  2.2342
   36DOPE  H11B 4525  -0.038   5.089   3.576 -1.7918 -1.0461 -0.1491
   36DOPE     P 4526  -0.041   4.841   3.404 -0.0816  0.1955  0.3123
   36DOPE   O13 4527   0.068   4.746   3.437  0.1244 -0.2925  0.1608
   36DOPE   O14 4528  -0.109   4.823   3.275 -0.1477 -0.0626 -0.2059
   36DOPE   O11 4529  -0.146   4.838   3.519  0.5554  0.2719 -0.5096
   36DOPE   O12 4530   0.020   4.991   3.395  0.1309 -1.1727  0.1706
   36DOPE    C1 4531  -0.275   4.769   3.505  0.0913 -0.3407 -0.3203
   36DOPE    HA 4532  -0.255   4.667   3.467  0.6686  0.4936 -2.4012
   36DOPE    HB 4533  -0.340   4.823   3.433  0.9866  0.5713 -0.4652
   36DOPE    C2 4534  -0.349   4.758   3.643  0.1629  0.4592  0.6816
   36DOPE    HS 4535  -0.344   4.859   3.687 -2.0139  0.4865  0.9632
   36DOPE   O21 4536  -0.278   4.661   3.726 -0.0928  0.6417 -0.3292
   36DOPE   C21 4537  -0.276   4.695   3.852 -0.8175 -0.3579  0.2689
   36DOPE   O22 4538  -0.314   4.803   3.900  0.4717  0.3308  0.6169
   36DOPE   C22 4539  -0.204   4.578   3.925 -0.3273  0.4446 -0.6516
   36DOPE   H2R 4540  -0.102   4.608   3.957  0.3400 -0.7758 -1.5374
   36DOPE   H2S 4541  -0.206   4.489   3.858 -2.3628  0.0604 -0.1409
   36DOPE    C3 4542  -0.497   4.717   3.614 -0.5162 -0.1121 -0.4948
   36DOPE    HX 4543  -0.499   4.617   3.564  1.3403 -1.8127  2.5517
   36DOPE    HY 4544  -0.524   4.802   3.548 -0.1961  1.9739  1.9142
   36DOPE   O31 4545  -0.584   4.729   3.729 -0.1046 -0.5288 -0.1039
   36DOPE   C31 4546  -0.664   4.843   3.741  0.7276  0.2391 -0.2947
   36DOPE   O32 4547  -0.650   4.934   3.665  0.1208 -0.3050  0.1459
   36DOPE   C32 4548  -0.754   4.839   3.864  0.2124 -0.3484  0.5184
   36DOPE   H2X 4549  -0.835   4.765   3.850  0.9967 -0.9139 -1.3023
   36DOPE   H2Y 4550  -0.693   4.804   3.950 -1.2616 -1.6471  1.0756
   36DOPE   C23 4551  -0.274   4.542   4.057  0.1348 -0.5413 -0.3288
   36DOPE   H3R 4552  -0.256   4.443   4.105 -0.2552 -0.8022 -0.7164
   36DOPE   H3S 4553  -0.381   4.537   4.032 -0.0764 -0.5997  0.5367
   36DOPE   C24 4554  -0.244   4.643   4.163 -0.2334 -1.3481 -0.4909
   36DOPE   H4R 4555  -0.283   4.743   4.132  0.4370 -1.4223 -1.6312
   36DOPE   H4S 4556  -0.138   4.673   4.150 -0.6375 -0.5271 -2.1797
   36DOPE   C25 4557  -0.298   4.615   4.304  0.0529 -0.0108  0.1134
   36DOPE   H5R 4558  -0.264   4.513   4.330 -1.1758 -0.2035  1.0320
   36DOPE   H5S 4559  -0.408   4.606   4.293  0.0453 -0.3174  0.4557
   36DOPE   C26 4560  -0.263   4.721   4.407 -0.3142  0.3759  0.6150
   36DOPE   H6R 4561  -0.278   4.822   4.363  0.8287  0.3211  0.0547
   36DOPE   H6S 4562  -0.153   4.723   4.425 -0.1780 -0.2005 -0.0994
   36DOPE   C27 4563  -0.339   4.697   4.540 -0.3855 -0.1296 -0.0446
   36DOPE   H7R 4564  -0.325   4.588   4.554  1.1136 -0.0962 -1.0695
   36DOPE   H7S 4565  -0.448   4.708   4.523 -0.4655 -0.9317 -0.0508
   36DOPE   C28 4566  -0.281   4.778   4.656  0.2017 -0.5789  0.0574
   36DOPE   H8R 4567  -0.255   4.880   4.620  3.5985 -1.2014  0.4618
   36DOPE   H8S 4568  -0.182   4.730   4.671 -0.4323 -1.2891  2.4839
   36DOPE   C29 4569  -0.371   4.778   4.773 -0.3711  0.6460 -1.3883
   36DOPE   H9R 4570  -0.460   4.842   4.773  0.2700  1.6359  1.0287
   36DOPE  C210 4571  -0.356   4.702   4.885 -0.0109 -0.0273  0.4325
   36DOPE  H10R 4572  -0.423   4.725   4.969 -1.4877 -1.1829 -0.3789
   36DOPE  C211 4573  -0.251   4.605   4.916 -0.1594  0.4283 -0.4949
   36DOPE  H11R 4574  -0.178   4.590   4.833 -1.6283  1.1578 -1.9918
   36DOPE  H11S 4575  -0.296   4.506   4.936  1.3611 -0.3470 -0.7664
   36DOPE  C212 4576  -0.181   4.635   5.049  0.6482  0.3084  0.0096
   36DOPE  H12R 4577  -0.111   4.557   5.085 -2.5976 -1.0511  4.2448
   36DOPE  H12S 4578  -0.256   4.637   5.131  1.4179  0.3497  0.7151
   36DOPE  C213 4579  -0.097   4.769   5.043 -0.2146 -0.7888 -0.4981
   36DOPE  H13R 4580  -0.144   4.845   4.977  1.0321 -1.0203 -1.7010
   36DOPE  H13S 4581   0.008   4.750   5.012 -0.1145 -1.9890  0.4881
   36DOPE  C214 4582  -0.101   4.845   5.176  0.0730  0.1578  0.0018
   36DOPE  H14R 4583  -0.064   4.773   5.252  0.0172 -3.3059 -2.9754
   36DOPE  H14S 4584  -0.206   4.872   5.198  0.0450 -0.6841  0.9946
   36DOPE  C215 4585  -0.013   4.969   5.169  0.1919  0.1560  0.1860
   36DOPE  H15R 4586  -0.024   5.027   5.075 -2.3068 -0.3306  0.1129
   36DOPE  H15S 4587   0.094   4.940   5.176  0.2614  0.4121  0.1789
   36DOPE  C216 4588  -0.032   5.057   5.289  0.3690  0.3169 -0.7981
   36DOPE  H16R 4589   0.038   5.143   5.281 -1.0131  1.3577 -1.9483
   36DOPE  H16S 4590   0.002   5.002   5.380  0.6623  0.3577 -0.8819
   36DOPE  C217 4591  -0.177   5.109   5.320  0.4707  0.1164  0.7333
   36DOPE  H17R 4592  -0.236   5.031   5.372 -0.3806  0.1181 -0.2106
   36DOPE  H17S 4593  -0.216   5.117   5.216  0.8735 -0.7620  0.5084
   36DOPE  C218 4594  -0.178   5.232   5.411 -0.3211  0.0201  0.1408
   36DOPE  H18R 4595  -0.094   5.295   5.374  1.0755 -2.4608 -1.1621
   36DOPE  H18S 4596  -0.144   5.211   5.515 -1.7388  1.3680  0.9276
   36DOPE  H18T 4597  -0.271   5.293   5.422 -1.2284 -1.7224  3.6110
   36DOPE   C33 4598  -0.815   4.976   3.902 -0.6193  0.4864  0.0671
   36DOPE   H3X 4599  -0.889   4.983   3.819  0.9877  0.9540 -1.3844
   36DOPE   H3Y 4600  -0.741   5.059   3.899  2.5008 -2.1321 -1.1539
   36DOPE   C34 4601  -0.879   4.959   4.036 -0.3061  0.5983 -0.5159
   36DOPE   H4X 4602  -0.936   4.864   4.033  1.4982 -0.5133 -0.8303
   36DOPE   H4Y 4603  -0.798   4.959   4.113  0.5090 -0.7031 -1.3352
   36DOPE   C35 4604  -0.982   5.076   4.069 -0.3223  0.1602  0.1881
   36DOPE   H5X 4605  -1.073   5.066   4.005 -0.6545 -6.0175  0.9576
   36DOPE   H5Y 4606  -0.923   5.167   4.050 -1.7203  0.6974 -1.9505
   36DOPE   C36 4607  -1.035   5.082   4.212  0.6502 -0.1065 -0.0445
   36DOPE   H6X 4608  -0.950   5.054   4.278 -0.8561 -0.1071  1.9760
   36DOPE   H6Y 4609  -1.107   4.998   4.212  0.4314  0.0740 -0.5328
   36DOPE   C37 4610  -1.094   5.211   4.262  0.2306  0.1540  0.5596
   36DOPE   H7X 4611  -1.023   5.292   4.236  2.7572 -2.5033 -1.4247
   36DOPE   H7Y 4612  -1.190   5.233   4.210 -0.1446  2.2125  2.0205
   36DOPE   C38 4613  -1.110   5.214   4.413 -0.0150 -0.3202 -0.7249
   36DOPE   H8X 4614  -1.019   5.168   4.457  0.4045  0.9714 -0.2152
   36DOPE   H8Y 4615  -1.186   5.138   4.444 -1.3233  0.8722 -0.9119
   36DOPE   C39 4616  -1.159   5.345   4.471 -0.7195 -0.2364  0.7318
   36DOPE   H9X 4617  -1.268   5.353   4.471 -0.7195 -0.2246  1.1169
   36DOPE  C310 4618  -1.081   5.449   4.509  0.3126  0.7378 -0.1244
   36DOPE  H10X 4619  -1.131   5.533   4.560 -0.7255  0.1251 -0.1005
   36DOPE  C311 4620  -0.930   5.454   4.508 -0.4521 -0.4625  0.8430
   36DOPE  H11X 4621  -0.875   5.416   4.596  0.1227 -4.5397 -1.0494
   36DOPE  H11Y 4622  -0.906   5.392   4.419 -1.4080  1.7597 -1.0866
   36DOPE  C312 4623  -0.884   5.598   4.461  0.5205 -0.3021  1.2705
   36DOPE  H12X 4624  -0.935   5.613   4.364  0.7785 -0.6460  1.0791
   36DOPE  H12Y 4625  -0.773   5.598   4.449  0.4141 -1.2644  0.0994
   36DOPE  C313 4626  -0.912   5.717   4.550  0.5346  0.1109  0.3005
   36DOPE  H13X 4627  -1.022   5.733   4.545  0.5966  0.6419  0.5153
   36DOPE  H13Y 4628  -0.886   5.689   4.654 -2.3179  0.7082  1.2698
   36DOPE  C314 4629  -0.836   5.841   4.516  0.5216  0.3651  0.9923
   36DOPE  H14X 4630  -0.890   5.890   4.432 -0.2418 -0.3894  1.0249
   36DOPE  H14Y 4631  -0.734   5.809   4.488 -0.4226 -0.9028 -1.3229
   36DOPE  C315 4632  -0.809   5.940   4.631 -0.1912 -0.2190  0.2614
   36DOPE  H15X 4633  -0.899   5.945   4.696 -0.6862 -2.1161 -0.2398
   36DOPE  H15Y 4634  -0.787   6.042   4.592  1.1810 -0.9976 -1.0998
   36DOPE  C316 4635  -0.690   5.909   4.716 -0.2431 -0.2594 -0.5631
   36DOPE  H16X 4636  -0.672   5.800   4.726  1.7242  0.1699  1.7045
   36DOPE  H16Y 4637  -0.697   5.952   4.818 -1.9559 -0.1676 -0.6994
   36DOPE  C317 4638  -0.554   5.968   4.665  0.3389 -0.3328 -0.0050
   36DOPE  H17X 4639  -0.532   5.932   4.562 -1.8742 -1.3102 -0.1903
   36DOPE  H17Y 4640  -0.555   6.076   4.640 -0.6622 -0.2593  0.3098
   36DOPE  C318 4641  -0.446   5.945   4.770 -0.4067 -0.0431 -1.0444
   36DOPE  H18X 4642  -0.430   5.837   4.792 -2.5025 -0.5899 -2.0008
   36DOPE  H18Y 4643  -0.355   6.002   4.743 -0.7198  0.5248 -0.9056
   36DOPE  H18Z 4644  -0.471   5.994   4.867 -1.4620  0.0115 -1.3348
   37DOPE     N 4645   4.042   2.538   2.772 -0.0485  0.3541  0.0680
   37DOPE   HN1 4646   4.108   2.462   2.748  0.2145  1.2160 -2.1855
   37DOPE   HN2 4647   4.081   2.560   2.866  0.6160  0.1651 -0.1599
   37DOPE   HN3 4648   3.950   2.492   2.783  0.7243 -1.1572  0.4329
   37DOPE   C12 4649   4.048   2.660   2.688  0.7763  1.4168  0.5441
   37DOPE  H12A 4650   3.953   2.711   2.714 -0.7116 -1.3197  0.9038
   37DOPE  H12B 4651   4.035   2.624   2.584  2.2991  0.1644  0.7560
   37DOPE   C11 4652   4.180   2.732   2.713  0.0154  0.4037 -1.0292
   37DOPE  H11A 4653   4.179   2.766   2.819  1.5542 -0.4254 -0.7212
   37DOPE  H11B 4654   4.184   2.809   2.633 -2.3985  0.2463 -1.3744
   37DOPE     P 4655   4.430   2.672   2.733 -0.3941 -0.0625  0.0390
   37DOPE   O13 4656   4.488   2.742   2.614 -0.0286 -0.1019  0.4741
   37DOPE   O14 4657   4.488   2.541   2.771  0.2907 -0.1600 -0.1449
   37DOPE   O11 4658   4.424   2.772   2.857 -0.5316 -0.2052  0.1991
   37DOPE   O12 4659   4.280   2.638   2.686  0.1244  0.5901  0.0354
   37DOPE    C1 4660   4.544   2.797   2.928  0.3132 -0.4031 -0.0123
   37DOPE    HA 4661   4.579   2.901   2.913  1.1544 -0.2751  2.3994
   37DOPE    HB 4662   4.626   2.732   2.890 -0.2573  0.1111 -2.2718
   37DOPE    C2 4663   4.519   2.782   3.081  0.1675 -0.0309 -0.2957
   37DOPE    HS 4664   4.603   2.816   3.144 -0.7157 -0.7268  1.3017
   37DOPE   O21 4665   4.477   2.649   3.120  0.6696 -0.0720  0.6223
   37DOPE   C21 4666   4.568   2.554   3.118  0.5909  0.1850  0.2128
   37DOPE   O22 4667   4.682   2.571   3.078 -0.3834  0.5456 -0.7055
   37DOPE   C22 4668   4.525   2.425   3.194 -0.5015  0.0031  0.2779
   37DOPE   H2R 4669   4.616   2.387   3.246 -0.9487 -2.4270 -0.5996
   37DOPE   H2S 4670   4.512   2.348   3.115  2.0588 -1.6416  1.3314
   37DOPE    C3 4671   4.404   2.885   3.113  0.2434 -0.2332 -0.7105
   37DOPE    HX 4672   4.314   2.869   3.050  0.1775  1.3552 -1.0790
   37DOPE    HY 4673   4.444   2.985   3.085 -0.8461 -0.2118 -2.3502
   37DOPE   O31 4674   4.366   2.890   3.254  0.6716 -0.0852  0.5921
   37DOPE   C31 4675   4.256   2.816   3.286 -0.3845 -0.3825  0.4411
   37DOPE   O32 4676   4.184   2.766   3.198 -0.5637 -0.1029 -0.7021
   37DOPE   C32 4677   4.252   2.797   3.438  0.1329  0.4697  0.4514
   37DOPE   H2X 4678   4.351   2.758   3.468 -0.4589 -0.6408  1.0243
   37DOPE   H2Y 4679   4.240   2.894   3.492 -0.0047  1.3341 -1.0629
   37DOPE   C23 4680   4.413   2.427   3.305  0.3050  0.3008 -0.4206
   37DOPE   H3R 4681   4.366   2.326   3.304  0.7781  0.0782 -0.3799
   37DOPE   H3S 4682   4.327   2.492   3.277 -0.6779  0.9979  3.5990
   37DOPE   C24 4683   4.454   2.469   3.449 -0.4698  0.1427 -0.5438
   37DOPE   H4R 4684   4.437   2.579   3.455 -0.5379  0.0577  1.4368
   37DOPE   H4S 4685   4.564   2.458   3.465 -0.9908 -0.4609  3.8101
   37DOPE   C25 4686   4.363   2.401   3.557  0.5016  0.6098  0.0541
   37DOPE   H5R 4687   4.377   2.292   3.542 -2.5367  0.2766 -1.0679
   37DOPE   H5S 4688   4.253   2.413   3.548  0.2604 -0.5953  1.0666
   37DOPE   C26 4689   4.404   2.440   3.698  0.1060  0.5596 -0.7810
   37DOPE   H6R 4690   4.379   2.548   3.713  1.7631  0.9665 -0.7015
   37DOPE   H6S 4691   4.514   2.433   3.716  0.6697 -0.1039 -3.9032
   37DOPE   C27 4692   4.338   2.369   3.811  0.1963  0.0139 -0.2125
   37DOPE   H7R 4693   4.309   2.269   3.773  0.8330  0.3232 -1.5782
   37DOPE   H7S 4694   4.253   2.437   3.834  0.8155  2.1980 -3.6104
   37DOPE   C28 4695   4.425   2.354   3.942 -0.1143 -0.3192  0.4921
   37DOPE   H8R 4696   4.484   2.447   3.945 -0.6339 -0.0002  1.0842
   37DOPE   H8S 4697   4.491   2.268   3.915 -1.9203 -0.9217 -2.5516
   37DOPE   C29 4698   4.347   2.311   4.063  0.1431  0.3738  0.3466
   37DOPE   H9R 4699   4.252   2.259   4.043  1.5407 -1.6608 -1.3333
   37DOPE  C210 4700   4.367   2.335   4.196  0.0877  0.0293 -0.4000
   37DOPE  H10R 4701   4.288   2.297   4.262  0.7485  0.1376  0.4658
   37DOPE  C211 4702   4.474   2.431   4.263  0.4532 -0.2798 -0.0441
   37DOPE  H11R 4703   4.420   2.493   4.337 -0.2623  0.8120 -1.4380
   37DOPE  H11S 4704   4.512   2.502   4.187  2.4193 -0.5588  0.6212
   37DOPE  C212 4705   4.583   2.360   4.352  0.2294 -0.5306  0.6281
   37DOPE  H12R 4706   4.672   2.340   4.288  0.5375  0.3055  0.7842
   37DOPE  H12S 4707   4.536   2.265   4.385  2.6808 -2.5967 -1.3322
   37DOPE  C213 4708   4.623   2.451   4.469  0.4729  0.1323  0.2929
   37DOPE  H13R 4709   4.532   2.452   4.532 -0.8306 -1.7408 -1.4313
   37DOPE  H13S 4710   4.648   2.555   4.439 -0.1569  0.4691  0.8998
   37DOPE  C214 4711   4.731   2.399   4.563  0.3712 -0.8156  0.1346
   37DOPE  H14R 4712   4.812   2.417   4.488 -1.2218 -0.3291 -1.5381
   37DOPE  H14S 4713   4.719   2.289   4.576  0.2014 -0.9601 -1.1526
   37DOPE  C215 4714   4.748   2.474   4.694  0.7251  0.8141  0.1526
   37DOPE  H15R 4715   4.840   2.430   4.737 -0.6399 -1.9617  0.4640
   37DOPE  H15S 4716   4.662   2.445   4.759  0.4388 -1.1173 -0.9854
   37DOPE  C216 4717   4.772   2.629   4.695 -0.1049 -0.1774 -0.1488
   37DOPE  H16R 4718   4.676   2.665   4.653 -0.1641 -1.6450 -1.3690
   37DOPE  H16S 4719   4.859   2.649   4.628 -0.2962 -2.2876 -1.1331
   37DOPE  C217 4720   4.796   2.677   4.837 -0.2083  0.1352  0.1822
   37DOPE  H17R 4721   4.891   2.630   4.872 -1.3711 -0.0480  3.4037
   37DOPE  H17S 4722   4.720   2.639   4.908 -0.5792  1.2951  0.4274
   37DOPE  C218 4723   4.803   2.833   4.845 -0.6593 -0.1104  0.5782
   37DOPE  H18R 4724   4.698   2.863   4.829 -1.1153 -2.1075 -0.5261
   37DOPE  H18S 4725   4.878   2.868   4.770  0.5988 -0.3915  1.6607
   37DOPE  H18T 4726   4.828   2.869   4.947 -0.9177  0.6518  0.3773
   37DOPE   C33 4727   4.140   2.705   3.478 -0.4753 -0.1694 -0.5344
   37DOPE   H3X 4728   4.161   2.601   3.445  0.0728 -0.0981 -0.4140
   37DOPE   H3Y 4729   4.048   2.733   3.422 -0.2127  0.8736 -0.4715
   37DOPE   C34 4730   4.108   2.718   3.630  0.0933  0.4030 -0.3538
   37DOPE   H4X 4731   4.195   2.672   3.682 -0.4223 -2.0699 -1.5303
   37DOPE   H4Y 4732   4.111   2.826   3.654  0.7192  0.3385 -0.1281
   37DOPE   C35 4733   3.999   2.634   3.686 -0.9100 -1.2036 -0.1605
   37DOPE   H5X 4734   4.002   2.532   3.643 -1.4824 -1.5710  0.6519
   37DOPE   H5Y 4735   3.898   2.673   3.664 -0.5418 -0.3529 -0.3869
   37DOPE   C36 4736   4.008   2.629   3.835 -0.2795 -0.2580 -0.1138
   37DOPE   H6X 4737   3.984   2.726   3.884 -1.6005 -1.4899  1.8558
   37DOPE   H6Y 4738   4.103   2.587   3.874 -0.2978  0.4897  0.7670
   37DOPE   C37 4739   3.894   2.537   3.899 -0.4590  0.3886 -0.4642
   37DOPE   H7X 4740   3.798   2.588   3.874 -0.7455 -0.9598 -2.4068
   37DOPE   H7Y 4741   3.898   2.445   3.837 -1.5697  0.2077 -0.2896
   37DOPE   C38 4742   3.901   2.518   4.052 -0.5538  0.3898  0.7527
   37DOPE   H8X 4743   3.901   2.621   4.092  0.4325  0.5060  0.4826
   37DOPE   H8Y 4744   4.001   2.475   4.077 -0.4645  0.7435  1.0134
   37DOPE   C39 4745   3.793   2.434   4.101 -0.1618  0.2628 -0.1906
   37DOPE   H9X 4746   3.693   2.470   4.072  0.1016  0.2239 -1.1878
   37DOPE  C310 4747   3.818   2.325   4.177 -0.2646 -0.2122 -0.0282
   37DOPE  H10X 4748   3.736   2.272   4.227  1.3813 -3.4846 -0.5260
   37DOPE  C311 4749   3.953   2.261   4.211  0.3194  0.5850 -0.0089
   37DOPE  H11X 4750   4.016   2.226   4.127  2.2165  0.6782  1.3054
   37DOPE  H11Y 4751   4.014   2.324   4.280 -1.9650  1.9382  0.8817
   37DOPE  C312 4752   3.936   2.125   4.289  0.1050 -0.3835  0.4942
   37DOPE  H12X 4753   3.916   2.047   4.213 -1.3881  1.2451 -0.8592
   37DOPE  H12Y 4754   3.846   2.125   4.355 -0.4800 -0.3249 -0.2902
   37DOPE  C313 4755   4.055   2.097   4.373 -0.1921  0.5466 -0.5750
   37DOPE  H13X 4756   4.072   1.989   4.392 -0.2967  1.0879  3.5635
   37DOPE  H13Y 4757   4.144   2.132   4.316 -0.3996  1.2464 -0.4726
   37DOPE  C314 4758   4.058   2.167   4.511  0.3235  0.0531 -0.0818
   37DOPE  H14X 4759   3.992   2.113   4.582 -1.0944  0.7471 -0.8304
   37DOPE  H14Y 4760   4.018   2.269   4.496 -0.1691  0.2948  2.4954
   37DOPE  C315 4761   4.205   2.166   4.566  0.9326 -0.0541 -0.1097
   37DOPE  H15X 4762   4.276   2.214   4.495 -1.0980  1.6030 -1.1320
   37DOPE  H15Y 4763   4.240   2.061   4.571  0.7964 -0.2020 -1.6733
   37DOPE  C316 4764   4.213   2.248   4.687 -0.2074 -0.1250  0.0621
   37DOPE  H16X 4765   4.167   2.205   4.778  3.9175  0.6082  2.7234
   37DOPE  H16Y 4766   4.189   2.355   4.673  2.4799  0.3205 -1.8565
   37DOPE  C317 4767   4.363   2.253   4.737  0.8620  0.6697  0.2925
   37DOPE  H17X 4768   4.384   2.145   4.753  0.5952  0.3810 -1.2311
   37DOPE  H17Y 4769   4.438   2.282   4.660 -0.0190  0.1491 -0.7753
   37DOPE  C318 4770   4.382   2.322   4.871 -0.0857 -0.1435 -0.1604
   37DOPE  H18X 4771   4.471   2.283   4.925  1.9822  1.6378 -2.0174
   37DOPE  H18Y 4772   4.391   2.432   4.857 -0.5806 -0.0248  0.4470
   37DOPE  H18Z 4773   4.295   2.314   4.939 -0.1042  0.9595 -0.0314
   38DOPE     N 4774   5.951   4.124   3.124  0.6926  0.3195 -0.6648
   38DOPE   HN1 4775   5.931   4.157   3.027 -1.8532 -0.0521 -0.3314
   38DOPE   HN2 4776   6.008   4.188   3.183 -0.6499 -0.7877  2.0221
   38DOPE   HN3 4777   6.002   4.035   3.112 -0.7045 -0.7842  1.0372
   38DOPE   C12 4778   5.816   4.104   3.184 -0.4876  0.0156  0.1653
   38DOPE  H12A 4779   5.831   4.069   3.289 -0.8411 -3.9562 -0.9426
   38DOPE  H12B 4780   5.769   4.016   3.136  1.2194 -2.2591  2.3432
   38DOPE   C11 4781   5.719   4.221   3.151 -0.3021 -0.3103  0.0050
   38DOPE  H11A 4782   5.618   4.194   3.189 -1.0221  0.9096 -0.9338
   38DOPE  H11B 4783   5.698   4.230   3.042  1.2335  1.3320 -0.1981
   38DOPE     P 4784   5.792   4.469   3.126 -0.2907 -0.1616 -0.3005
   38DOPE   O13 4785   5.667   4.510   3.056  0.1083 -0.3698 -0.3157
   38DOPE   O14 4786   5.910   4.441   3.043 -0.1926  0.5793  0.2714
   38DOPE   O11 4787   5.829   4.574   3.238 -0.1120  0.4862  0.3319
   38DOPE   O12 4788   5.765   4.343   3.215 -0.0110 -0.2612  0.6727
   38DOPE    C1 4789   5.735   4.611   3.335 -0.0403  0.1776  0.6481
   38DOPE    HA 4790   5.667   4.529   3.364 -2.7053  2.7453  2.2181
   38DOPE    HB 4791   5.671   4.692   3.293  0.2720  0.0356 -0.1049
   38DOPE    C2 4792   5.782   4.672   3.472 -0.2218 -0.3406 -0.5127
   38DOPE    HS 4793   5.843   4.761   3.444  0.1698 -0.3853  0.1881
   38DOPE   O21 4794   5.853   4.571   3.547  0.0559 -0.2862  0.3034
   38DOPE   C21 4795   5.952   4.605   3.620  0.1628 -0.2385 -0.2611
   38DOPE   O22 4796   6.005   4.714   3.633  0.3291  0.4959 -0.1676
   38DOPE   C22 4797   6.002   4.477   3.686  0.3052  0.4010 -0.0098
   38DOPE   H2R 4798   6.066   4.430   3.608 -4.0075 -3.4965 -1.6482
   38DOPE   H2S 4799   5.919   4.405   3.701  1.9900 -0.9546  4.3234
   38DOPE    C3 4800   5.665   4.724   3.562 -0.1474 -0.2958 -0.5532
   38DOPE    HX 4801   5.584   4.649   3.546  0.5182 -1.0613 -0.3915
   38DOPE    HY 4802   5.623   4.812   3.509  2.5878  0.0705 -2.3311
   38DOPE   O31 4803   5.692   4.748   3.703 -0.4806 -0.0711 -0.3063
   38DOPE   C31 4804   5.737   4.867   3.739 -0.1923 -0.4267  0.8057
   38DOPE   O32 4805   5.775   4.958   3.669  0.4598 -0.4701  0.9581
   38DOPE   C32 4806   5.720   4.877   3.891 -0.0065  0.7474 -0.1824
   38DOPE   H2X 4807   5.614   4.852   3.912  0.4638  0.9940  2.9098
   38DOPE   H2Y 4808   5.777   4.795   3.940  1.1453  0.4167 -1.9787
   38DOPE   C23 4809   6.074   4.500   3.822 -0.4105 -0.8889  0.5817
   38DOPE   H3R 4810   6.154   4.573   3.796 -1.7220  0.1445 -0.7440
   38DOPE   H3S 4811   6.119   4.405   3.855  0.3651 -1.2090 -1.2340
   38DOPE   C24 4812   5.977   4.563   3.914  0.0909  0.1072 -0.1716
   38DOPE   H4R 4813   5.874   4.523   3.900  1.2105 -2.3124 -2.2703
   38DOPE   H4S 4814   5.969   4.672   3.895 -1.3004 -0.1990 -1.5842
   38DOPE   C25 4815   6.027   4.534   4.058  0.7687 -0.0201 -0.2887
   38DOPE   H5R 4816   6.126   4.579   4.080  0.4273  0.8093 -0.4149
   38DOPE   H5S 4817   6.050   4.425   4.064 -0.5461 -0.4019 -1.4980
   38DOPE   C26 4818   5.912   4.551   4.162  0.1619 -0.3146  0.5721
   38DOPE   H6R 4819   5.943   4.484   4.246 -0.1572 -3.4317 -1.6073
   38DOPE   H6S 4820   5.822   4.499   4.124  0.1560 -0.4760  0.8000
   38DOPE   C27 4821   5.893   4.700   4.201  0.2995 -0.2428 -0.0548
   38DOPE   H7R 4822   5.900   4.763   4.110  1.7286 -0.1242  0.1121
   38DOPE   H7S 4823   5.991   4.723   4.248 -0.2332 -0.8980  1.4449
   38DOPE   C28 4824   5.772   4.731   4.287 -0.0745 -0.0342 -1.0930
   38DOPE   H8R 4825   5.763   4.658   4.370  1.2853 -2.0028 -2.5877
   38DOPE   H8S 4826   5.677   4.723   4.230  0.6939  0.7239 -2.5531
   38DOPE   C29 4827   5.792   4.878   4.332 -0.1509 -0.2486  1.2949
   38DOPE   H9R 4828   5.834   4.947   4.257  0.4151  0.2418  2.0607
   38DOPE  C210 4829   5.769   4.934   4.449 -0.3206 -0.1735 -0.2120
   38DOPE  H10R 4830   5.800   5.039   4.453 -1.5878  0.2889 -1.7394
   38DOPE  C211 4831   5.696   4.872   4.564  0.0387  0.4288 -0.0358
   38DOPE  H11R 4832   5.641   4.777   4.550 -0.3508  0.7314 -0.6250
   38DOPE  H11S 4833   5.622   4.945   4.603  1.0214  1.1590  0.5029
   38DOPE  C212 4834   5.792   4.850   4.682 -0.5276  0.0715  0.3114
   38DOPE  H12R 4835   5.725   4.817   4.764 -0.0240  0.8390  1.0518
   38DOPE  H12S 4836   5.834   4.951   4.704  0.5979 -0.5797  1.2517
   38DOPE  C213 4837   5.887   4.728   4.679 -0.2700 -0.9348 -0.1032
   38DOPE  H13R 4838   5.978   4.745   4.616  0.6715 -3.0870  0.5790
   38DOPE  H13S 4839   5.827   4.648   4.630  1.5819 -2.0252 -0.7004
   38DOPE  C214 4840   5.947   4.679   4.814  0.1463  0.0322  0.6572
   38DOPE  H14R 4841   5.981   4.763   4.878 -3.3768  2.0084  0.2222
   38DOPE  H14S 4842   6.036   4.618   4.790 -0.7298 -0.6351 -1.1106
   38DOPE  C215 4843   5.832   4.594   4.878 -1.1290 -0.1548 -0.4570
   38DOPE  H15R 4844   5.806   4.515   4.804  1.1694 -0.3678 -1.1070
   38DOPE  H15S 4845   5.744   4.653   4.912 -0.9586  0.2654 -0.7463
   38DOPE  C216 4846   5.884   4.504   4.987 -0.1559 -0.0269  0.2850
   38DOPE  H16R 4847   5.950   4.426   4.944  1.2252  0.9956  0.4776
   38DOPE  H16S 4848   5.804   4.446   5.038  0.2080  0.3205  1.2759
   38DOPE  C217 4849   5.947   4.574   5.113  0.2469 -0.4397  0.2560
   38DOPE  H17R 4850   6.035   4.637   5.088  1.1268 -1.7560 -0.0984
   38DOPE  H17S 4851   5.999   4.491   5.166 -0.4497 -1.7364 -1.0247
   38DOPE  C218 4852   5.853   4.639   5.207 -0.4125  0.7241 -0.4036
   38DOPE  H18R 4853   5.907   4.680   5.295 -1.3327 -0.9868  1.0153
   38DOPE  H18S 4854   5.789   4.558   5.248  0.1206  0.1587 -0.6724
   38DOPE  H18T 4855   5.797   4.724   5.163 -0.4400  0.3216 -1.1677
   38DOPE   C33 4856   5.765   5.009   3.949 -0.4755  0.0336  0.2563
   38DOPE   H3X 4857   5.723   5.028   4.051  2.1410  1.0528  1.2360
   38DOPE   H3Y 4858   5.714   5.086   3.887 -2.0460 -0.2862  1.0916
   38DOPE   C34 4859   5.914   5.020   3.963  0.2655 -0.4203 -0.1595
   38DOPE   H4X 4860   5.953   4.968   4.053  1.3609  0.0295 -0.3492
   38DOPE   H4Y 4861   5.957   4.974   3.871 -1.5096  1.1576 -1.8799
   38DOPE   C35 4862   5.953   5.168   3.980 -0.1052 -0.8186 -0.1268
   38DOPE   H5X 4863   5.883   5.204   4.058 -1.0038 -0.5232 -1.0413
   38DOPE   H5Y 4864   5.935   5.214   3.881  1.5399 -0.0508 -0.1006
   38DOPE   C36 4865   6.105   5.183   3.996 -0.4071 -0.9604 -0.6378
   38DOPE   H6X 4866   6.155   5.134   3.910  2.3679 -2.6303  1.7492
   38DOPE   H6Y 4867   6.146   5.142   4.090 -0.7131  0.9934  0.4142
   38DOPE   C37 4868   6.150   5.335   4.003 -0.2337 -0.4898  0.1747
   38DOPE   H7X 4869   6.261   5.333   4.007 -0.2012 -0.2415 -0.4612
   38DOPE   H7Y 4870   6.108   5.393   3.917  0.7342  2.9163  1.8006
   38DOPE   C38 4871   6.098   5.407   4.125  1.3352  0.2383 -0.8131
   38DOPE   H8X 4872   5.988   5.393   4.123  1.3298  0.3116 -3.1238
   38DOPE   H8Y 4873   6.122   5.515   4.115  1.6019  0.3446  0.6951
   38DOPE   C39 4874   6.158   5.371   4.261 -0.2586  0.4298  0.5561
   38DOPE   H9X 4875   6.266   5.393   4.269  0.4387 -1.9492 -1.0388
   38DOPE  C310 4876   6.103   5.303   4.364  1.0847 -0.4305  0.1409
   38DOPE  H10X 4877   6.165   5.262   4.445  0.2132  0.2230  1.1672
   38DOPE  C311 4878   5.969   5.242   4.360  0.0456 -0.5299 -0.4352
   38DOPE  H11X 4879   5.902   5.265   4.274  0.2452  0.5383 -0.3078
   38DOPE  H11Y 4880   5.987   5.132   4.363  2.3949 -0.2103 -0.8772
   38DOPE  C312 4881   5.889   5.290   4.491 -0.8202 -0.0258  0.6548
   38DOPE  H12X 4882   5.786   5.249   4.495 -0.4534 -1.9233 -3.8729
   38DOPE  H12Y 4883   5.884   5.401   4.496 -0.4887  0.0801 -0.7687
   38DOPE  C313 4884   5.948   5.257   4.628 -0.0737  0.1203  0.2430
   38DOPE  H13X 4885   5.959   5.147   4.638  0.7118 -0.0826 -2.1692
   38DOPE  H13Y 4886   6.051   5.300   4.625  0.2636 -0.7043 -0.3853
   38DOPE  C314 4887   5.869   5.318   4.744  0.0234  0.1414  0.1509
   38DOPE  H14X 4888   5.763   5.328   4.714  0.4088 -2.9713 -3.0224
   38DOPE  H14Y 4889   5.897   5.424   4.761  0.0489  0.2646 -0.6109
   38DOPE  C315 4890   5.884   5.224   4.858 -0.9861 -0.1170 -0.7463
   38DOPE  H15X 4891   5.993   5.210   4.867 -0.4348  0.5071 -4.7046
   38DOPE  H15Y 4892   5.835   5.124   4.845 -0.0349 -0.8236  0.8316
   38DOPE  C316 4893   5.820   5.283   4.984  0.0743  0.0614 -0.8201
   38DOPE  H16X 4894   5.858   5.386   4.999 -0.8974  0.3644 -0.3766
   38DOPE  H16Y 4895   5.870   5.229   5.068 -0.3658  0.7555 -0.1056
   38DOPE  C317 4896   5.671   5.269   5.006 -0.3148 -0.0320  0.0118
   38DOPE  H17X 4897   5.644   5.287   5.112 -1.6161 -1.8389  0.0386
   38DOPE  H17Y 4898   5.622   5.352   4.950 -0.1701 -0.6732 -1.0955
   38DOPE  C318 4899   5.607   5.139   4.952  0.0822 -0.4948 -0.2156
   38DOPE  H18X 4900   5.610   5.127   4.842  2.6894 -0.2642 -0.2136
   38DOPE  H18Y 4901   5.659   5.058   5.007  0.1902 -0.2117  0.1081
   38DOPE  H18Z 4902   5.504   5.112   4.985  0.6889 -0.3207  2.0369
   39DOPE     N 4903   3.211   2.856   2.794 -0.3079 -0.2319  0.2804
   39DOPE   HN1 4904   3.181   2.907   2.709  1.2992 -1.9279 -1.4037
   39DOPE   HN2 4905   3.290   2.910   2.833  0.3272  0.5546 -1.9751
   39DOPE   HN3 4906   3.238   2.764   2.754  2.4412  0.6470 -0.0761
   39DOPE   C12 4907   3.103   2.842   2.898 -0.2210  0.8027 -1.1087
   39DOPE  H12A 4908   3.043   2.756   2.860  0.1659 -1.0724  2.1510
   39DOPE  H12B 4909   3.045   2.937   2.891 -1.4043  0.0289 -2.1826
   39DOPE   C11 4910   3.163   2.812   3.042  0.6467  0.3548 -0.4865
   39DOPE  H11A 4911   3.080   2.822   3.116  0.9241 -0.3853 -0.0678
   39DOPE  H11B 4912   3.231   2.897   3.067  0.4116  1.2177 -2.5471
   39DOPE     P 4913   3.161   2.569   3.086 -0.1183 -0.0704  0.1439
   39DOPE   O13 4914   3.235   2.452   3.042  0.4491  0.0397  0.2585
   39DOPE   O14 4915   3.018   2.585   3.031 -0.0871  0.6754  0.4411
   39DOPE   O11 4916   3.140   2.561   3.240  0.4498  0.2969  0.0417
   39DOPE   O12 4917   3.242   2.697   3.051  0.8435 -0.8690  0.2555
   39DOPE    C1 4918   3.250   2.564   3.331 -0.0883 -0.1074  0.1919
   39DOPE    HA 4919   3.328   2.495   3.293 -1.5300 -1.7684  0.1125
   39DOPE    HB 4920   3.206   2.526   3.426 -0.2151 -0.6612 -0.0839
   39DOPE    C2 4921   3.296   2.706   3.362 -0.0567 -0.1987 -0.7965
   39DOPE    HS 4922   3.328   2.756   3.268 -1.5553  2.3920 -0.0298
   39DOPE   O21 4923   3.411   2.697   3.455 -0.2346  0.0169 -0.0707
   39DOPE   C21 4924   3.474   2.800   3.516 -0.1042 -0.2460 -0.2749
   39DOPE   O22 4925   3.433   2.916   3.518  0.1340  0.4165 -0.3812
   39DOPE   C22 4926   3.614   2.754   3.577  0.7466  0.2138  0.2457
   39DOPE   H2R 4927   3.655   2.705   3.486 -0.6341 -0.9056  0.1946
   39DOPE   H2S 4928   3.596   2.681   3.658  3.2742 -0.6369  0.1433
   39DOPE    C3 4929   3.175   2.789   3.423 -0.6297 -0.2698 -0.0407
   39DOPE    HX 4930   3.080   2.781   3.367 -0.6126  1.2198 -0.3065
   39DOPE    HY 4931   3.218   2.889   3.404 -1.2183 -0.4385 -2.6690
   39DOPE   O31 4932   3.153   2.761   3.565 -0.5214  0.2212  0.8065
   39DOPE   C31 4933   3.106   2.871   3.628 -0.7581  0.4791  0.2346
   39DOPE   O32 4934   3.059   2.972   3.578 -0.1865  1.0717  0.2742
   39DOPE   C32 4935   3.112   2.841   3.781 -0.0167 -0.4850 -0.3362
   39DOPE   H2X 4936   3.041   2.757   3.794 -1.2887  0.2496 -2.0547
   39DOPE   H2Y 4937   3.210   2.790   3.794  0.8647  1.3829  0.8246
   39DOPE   C23 4938   3.698   2.877   3.619  0.1759  0.2737 -0.0329
   39DOPE   H3R 4939   3.698   2.943   3.530  0.1742 -0.7279 -0.7861
   39DOPE   H3S 4940   3.805   2.851   3.628  0.1180 -0.7028 -1.8072
   39DOPE   C24 4941   3.650   2.949   3.745  0.2541  0.4399 -0.2785
   39DOPE   H4R 4942   3.546   2.982   3.726 -0.1841  0.7819  2.3477
   39DOPE   H4S 4943   3.706   3.045   3.757 -0.9561  1.1052  0.1607
   39DOPE   C25 4944   3.657   2.861   3.865 -0.1832 -0.1784 -0.1531
   39DOPE   H5R 4945   3.755   2.810   3.877 -0.6297 -0.8790  0.6604
   39DOPE   H5S 4946   3.600   2.769   3.844  1.8823 -1.7060  0.5956
   39DOPE   C26 4947   3.646   2.939   4.006  0.3438 -0.0635  0.5705
   39DOPE   H6R 4948   3.556   3.002   4.017  1.5217  1.9651 -0.6559
   39DOPE   H6S 4949   3.728   3.014   3.997  0.8019 -0.6286 -0.1245
   39DOPE   C27 4950   3.670   2.840   4.120  0.0022 -0.6316 -0.1383
   39DOPE   H7R 4951   3.773   2.798   4.117  0.2562  0.0047 -0.6363
   39DOPE   H7S 4952   3.602   2.753   4.106  1.1496 -1.7383  0.9206
   39DOPE   C28 4953   3.639   2.906   4.262 -0.2522  0.0726 -0.3067
   39DOPE   H8R 4954   3.535   2.942   4.248  0.1903  1.8872  0.7917
   39DOPE   H8S 4955   3.703   2.996   4.266  0.0328 -0.1654  0.9106
   39DOPE   C29 4956   3.678   2.816   4.380 -0.1985  0.5463  1.0328
   39DOPE   H9R 4957   3.783   2.788   4.387  1.0577  3.9136 -1.4817
   39DOPE  C210 4958   3.589   2.758   4.468  0.4986 -0.8811  0.5180
   39DOPE  H10R 4959   3.627   2.700   4.554  0.0772 -1.0661  0.5828
   39DOPE  C211 4960   3.444   2.787   4.483 -0.2999  0.0138 -0.7315
   39DOPE  H11R 4961   3.393   2.690   4.463 -1.0328  0.5321 -1.4325
   39DOPE  H11S 4962   3.421   2.873   4.417  3.6830  2.5524  0.8082
   39DOPE  C212 4963   3.403   2.830   4.627 -0.1289  0.9055 -0.0128
   39DOPE  H12R 4964   3.445   2.933   4.624  0.2160  0.7363 -1.8854
   39DOPE  H12S 4965   3.446   2.770   4.710 -2.1608 -0.0567  0.4249
   39DOPE  C213 4966   3.252   2.844   4.639 -0.9207 -0.0023  0.0143
   39DOPE  H13R 4967   3.205   2.743   4.632  1.6507 -1.5037  2.1698
   39DOPE  H13S 4968   3.209   2.918   4.568  0.9666  3.3006  2.0497
   39DOPE  C214 4969   3.226   2.896   4.779 -0.4653 -0.3101  0.1057
   39DOPE  H14R 4970   3.249   2.815   4.851 -2.0760 -1.0645 -0.1795
   39DOPE  H14S 4971   3.116   2.910   4.792 -0.4015  0.0367  0.3166
   39DOPE  C215 4972   3.302   3.029   4.830  0.3835 -0.3517  0.7176
   39DOPE  H15R 4973   3.274   3.110   4.759  2.1397  1.8756  2.4188
   39DOPE  H15S 4974   3.405   2.986   4.827  0.5251  0.0066 -1.6907
   39DOPE  C216 4975   3.259   3.064   4.969  0.0431  0.0082 -0.2071
   39DOPE  H16R 4976   3.335   3.134   5.011  2.1068 -0.8690 -2.2608
   39DOPE  H16S 4977   3.255   2.973   5.032 -0.7221 -0.1414 -0.4650
   39DOPE  C217 4978   3.122   3.135   4.975  0.4560 -0.5363  0.0076
   39DOPE  H17R 4979   3.108   3.155   5.083  1.0294 -0.6398  0.1029
   39DOPE  H17S 4980   3.039   3.069   4.942  0.2658 -0.6347  0.6732
   39DOPE  C218 4981   3.113   3.262   4.897 -0.3738 -0.0609 -0.1762
   39DOPE  H18R 4982   3.190   3.337   4.926 -0.7589 -0.1321  1.0720
   39DOPE  H18S 4983   3.016   3.311   4.918  0.7078  1.3379  1.8188
   39DOPE  H18T 4984   3.125   3.251   4.787  2.0147 -2.7012  0.2370
   39DOPE   C33 4985   3.095   2.966   3.871 -0.2597  0.1848  0.3180
   39DOPE   H3X 4986   2.985   2.978   3.880 -0.4384 -1.4977  0.9243
   39DOPE   H3Y 4987   3.116   3.061   3.818  0.2922  0.7664  1.5341
   39DOPE   C34 4988   3.161   2.962   4.005  0.0069 -0.0406 -0.3331
   39DOPE   H4X 4989   3.268   2.933   4.001 -0.3133 -1.1601 -1.5817
   39DOPE   H4Y 4990   3.163   3.063   4.051  0.7137 -0.4527  0.5983
   39DOPE   C35 4991   3.084   2.874   4.107 -0.2488 -0.2877  0.5108
   39DOPE   H5X 4992   3.077   2.775   4.056  1.1160 -0.2497  0.2067
   39DOPE   H5Y 4993   2.980   2.914   4.107  0.2189  1.2165 -2.5701
   39DOPE   C36 4994   3.155   2.862   4.245  0.1151 -0.0754  0.9134
   39DOPE   H6X 4995   3.144   2.964   4.290 -1.2738 -0.4879  1.5612
   39DOPE   H6Y 4996   3.256   2.816   4.242  0.9511  1.6773 -0.5312
   39DOPE   C37 4997   3.073   2.767   4.327  0.0916 -0.3034 -0.4970
   39DOPE   H7X 4998   3.061   2.675   4.266  1.9949  0.0804 -1.5263
   39DOPE   H7Y 4999   3.116   2.744   4.427  0.9532 -0.4711 -0.9009
   39DOPE   C38 5000   2.926   2.817   4.352 -0.3035 -0.0698 -0.1016
   39DOPE   H8X 5001   2.883   2.823   4.250  1.6536 -1.6847 -1.0740
   39DOPE   H8Y 5002   2.922   2.918   4.399 -2.2475 -0.5735  0.9247
   39DOPE   C39 5003   2.836   2.727   4.430  0.7473 -0.1589  0.8275
   39DOPE   H9X 5004   2.784   2.661   4.358  3.7526 -2.0558  0.2227
   39DOPE  C310 5005   2.828   2.712   4.561  0.1842 -0.6420 -0.2545
   39DOPE  H10X 5006   2.766   2.630   4.600  1.9224 -2.9695 -2.0593
   39DOPE  C311 5007   2.898   2.797   4.662  0.2182  0.4644  0.5574
   39DOPE  H11X 5008   2.977   2.732   4.705  0.9971  0.7398 -0.4289
   39DOPE  H11Y 5009   2.954   2.883   4.619  1.3602  0.8511  2.7138
   39DOPE  C312 5010   2.803   2.857   4.774  0.3732 -0.7802  0.7896
   39DOPE  H12X 5011   2.859   2.903   4.858 -1.6178  1.5425  0.9521
   39DOPE  H12Y 5012   2.744   2.776   4.824 -2.6073  1.2266  0.8051
   39DOPE  C313 5013   2.702   2.960   4.725  0.0801 -0.3080 -0.0447
   39DOPE  H13X 5014   2.755   3.044   4.674  0.5079 -0.7539 -0.3350
   39DOPE  H13Y 5015   2.630   2.922   4.650  0.4203 -0.5456 -0.2504
   39DOPE  C314 5016   2.640   3.027   4.846 -0.2861 -0.5126  0.0473
   39DOPE  H14X 5017   2.603   3.126   4.811  1.2739 -0.1371 -0.5885
   39DOPE  H14Y 5018   2.720   3.055   4.918  0.4369  0.2997 -1.0535
   39DOPE  C315 5019   2.528   2.953   4.919  0.7495  0.1573 -0.7386
   39DOPE  H15X 5020   2.581   2.862   4.956  2.0437  0.6216 -1.4244
   39DOPE  H15Y 5021   2.448   2.923   4.848 -0.3139 -1.2280  0.9380
   39DOPE  C316 5022   2.461   3.041   5.020 -0.2314 -0.1218 -0.2216
   39DOPE  H16X 5023   2.388   3.099   4.961  3.2879  1.5418 -3.3308
   39DOPE  H16Y 5024   2.533   3.109   5.070 -0.6950  0.5297 -0.4351
   39DOPE  C317 5025   2.391   2.953   5.130  0.0001  0.0091 -0.4132
   39DOPE  H17X 5026   2.476   2.888   5.160  1.2072  2.0834  0.8692
   39DOPE  H17Y 5027   2.357   3.019   5.213  1.1658  0.1201 -0.0111
   39DOPE  C318 5028   2.269   2.871   5.080  0.4750 -0.3917 -0.6891
   39DOPE  H18X 5029   2.229   2.810   5.163 -0.4306  2.0819  0.8023
   39DOPE  H18Y 5030   2.189   2.939   5.042  0.1592  0.0386  0.6950
   39DOPE  H18Z 5031   2.310   2.812   4.996  2.7253  0.3267 -0.1588
   40DOPE     N 5032   4.674   5.427   3.045 -0.4141  0.0882  0.3096
   40DOPE   HN1 5033   4.762   5.390   3.086 -1.1215 -1.1126  0.7751
   40DOPE   HN2 5034   4.636   5.356   2.979  0.4618 -0.1435  0.0447
   40DOPE   HN3 5035   4.695   5.513   2.991  0.1792 -1.0973 -1.4281
   40DOPE   C12 5036   4.588   5.471   3.159  0.1273  0.3361  0.0556
   40DOPE  H12A 5037   4.523   5.385   3.188  1.4410 -0.2018  1.5558
   40DOPE  H12B 5038   4.530   5.554   3.114  1.5101  0.5603 -1.3801
   40DOPE   C11 5039   4.668   5.527   3.273 -0.1542 -0.1089  0.1985
   40DOPE  H11A 5040   4.734   5.447   3.313  1.8625  0.9468 -0.9042
   40DOPE  H11B 5041   4.603   5.555   3.359 -0.1824 -1.7750  0.7667
   40DOPE     P 5042   4.883   5.678   3.261  0.1227 -0.1033  0.3952
   40DOPE   O13 5043   4.915   5.813   3.200 -0.4488 -0.3151 -0.1182
   40DOPE   O14 5044   4.958   5.558   3.219  0.0362  0.0268 -0.1815
   40DOPE   O11 5045   4.891   5.681   3.417  0.3579  0.1109 -0.4833
   40DOPE   O12 5046   4.736   5.645   3.225  1.1344 -0.0175  0.7623
   40DOPE    C1 5047   4.789   5.747   3.499  0.3612  0.5818  0.3735
   40DOPE    HA 5048   4.764   5.685   3.588  1.5186 -0.5168 -0.0406
   40DOPE    HB 5049   4.695   5.764   3.443  0.1923 -1.0556  0.0944
   40DOPE    C2 5050   4.838   5.882   3.561  0.7251  0.3179  0.1928
   40DOPE    HS 5051   4.836   5.941   3.468 -1.4383  0.1959  0.1136
   40DOPE   O21 5052   4.969   5.865   3.622 -0.1648 -0.0210 -0.4065
   40DOPE   C21 5053   5.060   5.964   3.594 -0.4307  0.3729 -0.0666
   40DOPE   O22 5054   5.039   6.062   3.531  0.8114 -0.4223 -0.0733
   40DOPE   C22 5055   5.186   5.931   3.671 -0.0935  0.2425  0.7314
   40DOPE   H2R 5056   5.277   5.954   3.612  1.5464  1.5189  3.5561
   40DOPE   H2S 5057   5.205   5.824   3.693  1.0136  0.3178  0.1867
   40DOPE    C3 5058   4.741   5.945   3.664  0.5484 -0.2459 -0.0081
   40DOPE    HX 5059   4.750   5.870   3.745  1.0209 -0.2951 -0.1028
   40DOPE    HY 5060   4.635   5.944   3.630  1.0906 -1.7622 -1.7864
   40DOPE   O31 5061   4.789   6.069   3.718  0.1111  0.2975  0.4715
   40DOPE   C31 5062   4.756   6.170   3.636  1.0624 -0.0615 -0.4732
   40DOPE   O32 5063   4.697   6.159   3.529  0.1557  0.0193 -0.0002
   40DOPE   C32 5064   4.783   6.304   3.707 -0.2976 -0.4126 -0.0426
   40DOPE   H2X 5065   4.702   6.366   3.662 -2.4538 -1.5289  2.0895
   40DOPE   H2Y 5066   4.774   6.303   3.818  1.8071 -0.7450  0.1516
   40DOPE   C23 5067   5.209   6.019   3.802 -0.1595 -0.0412 -0.5367
   40DOPE   H3R 5068   5.132   6.009   3.882  0.6290 -0.2906  0.2047
   40DOPE   H3S 5069   5.216   6.127   3.774 -0.5325 -0.1834 -1.1973
   40DOPE   C24 5070   5.348   5.973   3.865 -0.0747 -0.5791  0.2777
   40DOPE   H4R 5071   5.435   5.985   3.798  0.2375 -1.7689  0.4611
   40DOPE   H4S 5072   5.344   5.864   3.882  1.9617 -1.0618 -1.8435
   40DOPE   C25 5073   5.394   6.064   3.984  0.2435 -0.0789  0.7589
   40DOPE   H5R 5074   5.308   6.046   4.051  0.0392 -1.3847  0.1691
   40DOPE   H5S 5075   5.401   6.173   3.962 -5.0094  0.1518 -1.2701
   40DOPE   C26 5076   5.531   6.022   4.045  0.2051 -0.7978 -0.0512
   40DOPE   H6R 5077   5.612   6.074   3.988 -0.9773  0.5520 -0.5452
   40DOPE   H6S 5078   5.550   5.913   4.033  2.0925 -0.3204 -2.1694
   40DOPE   C27 5079   5.536   6.068   4.195 -0.1704  0.8390  0.3034
   40DOPE   H7R 5080   5.455   6.018   4.253  0.5378  1.8486  2.2468
   40DOPE   H7S 5081   5.516   6.177   4.205 -0.9134  0.9732 -1.9423
   40DOPE   C28 5082   5.667   6.028   4.262 -0.7551 -0.1941  0.0474
   40DOPE   H8R 5083   5.681   6.078   4.361 -0.4078 -0.9046  0.3616
   40DOPE   H8S 5084   5.752   6.057   4.197  0.0531  0.6158  1.4125
   40DOPE   C29 5085   5.681   5.880   4.281 -1.0587  0.9717 -0.2278
   40DOPE   H9R 5086   5.588   5.824   4.300  0.9659 -1.9152  2.0146
   40DOPE  C210 5087   5.802   5.823   4.303  0.3951 -0.2991 -0.1862
   40DOPE  H10R 5088   5.798   5.714   4.320 -1.9494  0.0759  2.2844
   40DOPE  C211 5089   5.935   5.888   4.310 -0.2855  0.0090 -0.3247
   40DOPE  H11R 5090   5.982   5.860   4.406  1.4256 -0.3426 -1.2295
   40DOPE  H11S 5091   5.934   5.999   4.309  0.7170  0.0808  1.8395
   40DOPE  C212 5092   6.018   5.844   4.192 -0.2725 -0.1234  0.1984
   40DOPE  H12R 5093   6.042   5.736   4.200 -2.1684 -0.8547 -2.4386
   40DOPE  H12S 5094   6.109   5.907   4.184 -0.0623 -0.4900 -0.3436
   40DOPE  C213 5095   5.942   5.869   4.057 -0.1496 -0.0279  0.8085
   40DOPE  H13R 5096   5.891   5.968   4.054 -0.6870 -0.3091 -1.3198
   40DOPE  H13S 5097   5.861   5.794   4.056 -0.4561  0.3019  0.0283
   40DOPE  C214 5098   6.028   5.846   3.934  0.1103 -0.1824 -1.2670
   40DOPE  H14R 5099   6.085   5.937   3.906 -2.6444  1.6437 -1.3863
   40DOPE  H14S 5100   5.969   5.837   3.840 -0.1214 -1.4702 -1.0173
   40DOPE  C215 5101   6.113   5.720   3.934 -0.5373  0.5311 -0.6859
   40DOPE  H15R 5102   6.049   5.634   3.964 -0.1097  0.8683  1.3313
   40DOPE  H15S 5103   6.187   5.726   4.016 -0.7292 -0.9103 -0.3761
   40DOPE  C216 5104   6.176   5.690   3.792  0.0567 -0.1607 -0.1587
   40DOPE  H16R 5105   6.093   5.663   3.724 -0.5658  0.6083  0.2693
   40DOPE  H16S 5106   6.249   5.606   3.790 -0.1079 -0.3931  1.5006
   40DOPE  C217 5107   6.245   5.816   3.727  0.3728  0.0612  0.5797
   40DOPE  H17R 5108   6.306   5.863   3.806  1.6178 -0.5379  0.0132
   40DOPE  H17S 5109   6.178   5.898   3.696  1.9174 -0.0239 -3.6651
   40DOPE  C218 5110   6.348   5.778   3.623 -0.3448  0.2717 -0.8425
   40DOPE  H18R 5111   6.430   5.728   3.679  1.0872  2.6593 -0.6557
   40DOPE  H18S 5112   6.402   5.864   3.579 -2.0539  2.2814  0.8265
   40DOPE  H18T 5113   6.317   5.712   3.539 -2.3838  0.7611 -0.5204
   40DOPE   C33 5114   4.917   6.372   3.669  0.3413 -0.1300 -0.1757
   40DOPE   H3X 5115   4.937   6.369   3.559 -0.8628  1.1691 -0.4693
   40DOPE   H3Y 5116   4.999   6.315   3.718 -1.0709 -2.0872  0.0293
   40DOPE   C34 5117   4.920   6.516   3.717  0.5428  0.3940 -0.3815
   40DOPE   H4X 5118   4.850   6.567   3.647 -1.2119 -1.5073 -0.1141
   40DOPE   H4Y 5119   4.885   6.522   3.822 -0.0984  0.5019 -0.6001
   40DOPE   C35 5120   5.063   6.570   3.712 -0.0353  0.3626 -0.1434
   40DOPE   H5X 5121   5.065   6.677   3.742 -2.1207 -0.1803  2.2766
   40DOPE   H5Y 5122   5.106   6.555   3.611  1.2935  0.7436  0.3442
   40DOPE   C36 5123   5.155   6.508   3.825  0.2894  0.6218  0.0565
   40DOPE   H6X 5124   5.179   6.405   3.793 -2.1939 -0.0511  0.1252
   40DOPE   H6Y 5125   5.089   6.502   3.915  2.3337  0.6776  1.6458
   40DOPE   C37 5126   5.278   6.593   3.859  0.2296  0.4311 -0.5345
   40DOPE   H7X 5127   5.313   6.637   3.763  1.6447  0.1092 -0.2009
   40DOPE   H7Y 5128   5.247   6.677   3.924  1.3420 -1.3982  2.5895
   40DOPE   C38 5129   5.389   6.509   3.936  1.0379 -0.1981  0.3135
   40DOPE   H8X 5130   5.375   6.405   3.898 -0.6244  0.4454 -0.9679
   40DOPE   H8Y 5131   5.359   6.513   4.043  0.2780  0.1474  0.0957
   40DOPE   C39 5132   5.523   6.570   3.903  0.1631 -0.1288 -0.0749
   40DOPE   H9X 5133   5.523   6.660   3.839 -0.1373 -1.0450 -1.3894
   40DOPE  C310 5134   5.643   6.506   3.906  0.8255 -0.5363  0.3069
   40DOPE  H10X 5135   5.733   6.551   3.862  0.6061 -0.2085  0.1943
   40DOPE  C311 5136   5.659   6.372   3.975 -0.2900  0.1426  1.0105
   40DOPE  H11X 5137   5.563   6.318   3.994  0.1698 -0.9649  0.3084
   40DOPE  H11Y 5138   5.714   6.308   3.903  0.6397  0.5605  1.3425
   40DOPE  C312 5139   5.726   6.377   4.110  0.2328 -0.7817 -0.6313
   40DOPE  H12X 5140   5.822   6.432   4.097 -0.0603 -0.0224  0.2697
   40DOPE  H12Y 5141   5.747   6.278   4.155 -1.0549 -0.0155  1.8580
   40DOPE  C313 5142   5.638   6.440   4.222 -0.0097 -0.1183 -0.0687
   40DOPE  H13X 5143   5.621   6.547   4.197  0.3043  0.2386  1.1726
   40DOPE  H13Y 5144   5.535   6.398   4.219 -0.2832  0.5833 -1.2940
   40DOPE  C314 5145   5.695   6.419   4.363  0.6461 -0.2704 -0.2620
   40DOPE  H14X 5146   5.803   6.423   4.341  0.3514  0.8983 -1.6477
   40DOPE  H14Y 5147   5.672   6.318   4.404  2.2774 -0.7572 -0.5001
   40DOPE  C315 5148   5.631   6.519   4.454 -0.7827  0.4673 -0.6943
   40DOPE  H15X 5149   5.522   6.504   4.471 -0.8385  0.1920 -1.2580
   40DOPE  H15Y 5150   5.638   6.623   4.416 -1.1106  0.6617 -0.2233
   40DOPE  C316 5151   5.696   6.524   4.598 -0.3678  0.2968  0.0043
   40DOPE  H16X 5152   5.804   6.545   4.582 -0.0278 -1.9611 -1.0523
   40DOPE  H16Y 5153   5.698   6.427   4.651  2.4493  0.6276  0.6833
   40DOPE  C317 5154   5.620   6.633   4.680 -0.3502 -0.1545  0.1530
   40DOPE  H17X 5155   5.645   6.732   4.635  0.5999  0.4237  1.8524
   40DOPE  H17Y 5156   5.509   6.627   4.672 -0.6600  1.1426  2.5643
   40DOPE  C318 5157   5.647   6.627   4.827 -0.0902 -0.6807  0.2392
   40DOPE  H18X 5158   5.755   6.643   4.847  0.9120 -3.0636 -2.5129
   40DOPE  H18Y 5159   5.597   6.709   4.882  0.3511  0.0297 -0.3933
   40DOPE  H18Z 5160   5.621   6.526   4.867 -3.0658 -1.1503 -2.4847
   41DOPE     N 5161   2.221   4.023   3.917  0.5006 -0.1099  0.2930
   41DOPE   HN1 5162   2.223   4.051   3.817  0.0467 -0.7024  0.1142
   41DOPE   HN2 5163   2.123   4.022   3.954  0.7076  1.5354  0.9675
   41DOPE   HN3 5164   2.270   4.097   3.971  0.4719 -1.2956  2.0288
   41DOPE   C12 5165   2.294   3.887   3.922  0.2590 -0.1171 -0.1048
   41DOPE  H12A 5166   2.240   3.819   3.853  1.2716 -0.5465 -0.5032
   41DOPE  H12B 5167   2.304   3.854   4.028  1.1443  0.1537 -0.0945
   41DOPE   C11 5168   2.445   3.900   3.894  0.1132 -0.3892  0.6758
   41DOPE  H11A 5169   2.482   3.797   3.907 -1.9330 -1.0686  1.4110
   41DOPE  H11B 5170   2.490   3.964   3.973 -1.8638 -1.0470  2.4045
   41DOPE     P 5171   2.470   3.875   3.633 -0.0860 -0.0045  0.2206
   41DOPE   O13 5172   2.549   3.949   3.527 -0.2907 -0.3030  0.0847
   41DOPE   O14 5173   2.336   3.817   3.601  0.1716 -0.2060  0.3003
   41DOPE   O11 5174   2.565   3.757   3.669 -0.0329  0.2811  0.2013
   41DOPE   O12 5175   2.462   3.962   3.759 -0.3573  0.4302  0.7310
   41DOPE    C1 5176   2.694   3.780   3.721 -0.2383  0.2031  0.4447
   41DOPE    HA 5177   2.705   3.735   3.822  1.1105  1.2563  0.8118
   41DOPE    HB 5178   2.718   3.886   3.743 -0.2662  0.1545  0.7133
   41DOPE    C2 5179   2.801   3.723   3.628 -0.1008 -0.1123 -0.6026
   41DOPE    HS 5180   2.764   3.735   3.524  0.1319  0.6493 -0.6060
   41DOPE   O21 5181   2.811   3.587   3.672 -0.6091 -0.4689  0.4284
   41DOPE   C21 5182   2.879   3.511   3.578  0.5143 -0.0250 -0.6998
   41DOPE   O22 5183   2.912   3.553   3.469 -0.1366 -0.1646  0.4911
   41DOPE   C22 5184   2.905   3.370   3.617 -0.4507 -0.5289 -0.0349
   41DOPE   H2R 5185   2.852   3.306   3.543  2.3074 -2.2787 -0.6700
   41DOPE   H2S 5186   2.854   3.345   3.712  1.1390  0.2062  1.0363
   41DOPE    C3 5187   2.940   3.785   3.658 -0.1657 -0.5632 -0.7163
   41DOPE    HX 5188   2.925   3.893   3.637  0.2390 -0.0871  1.2678
   41DOPE    HY 5189   3.022   3.744   3.594  0.0775  0.1128 -0.8462
   41DOPE   O31 5190   2.954   3.781   3.803 -0.7099  0.0647 -0.2903
   41DOPE   C31 5191   3.082   3.806   3.831 -0.8955 -0.2480  0.5615
   41DOPE   O32 5192   3.171   3.824   3.747  0.6693  0.0049 -0.1692
   41DOPE   C32 5193   3.093   3.830   3.984 -0.1349 -0.0742 -0.0131
   41DOPE   H2X 5194   2.991   3.826   4.026 -0.5350 -0.0617 -0.9447
   41DOPE   H2Y 5195   3.156   3.743   4.013 -0.2519  0.1465  0.9196
   41DOPE   C23 5196   3.054   3.334   3.609 -0.3178 -0.7015 -0.3399
   41DOPE   H3R 5197   3.094   3.327   3.505  0.2696  0.5124 -0.2125
   41DOPE   H3S 5198   3.064   3.235   3.657 -1.7156  0.1708  1.9446
   41DOPE   C24 5199   3.131   3.428   3.698 -0.1832  0.0160  1.0717
   41DOPE   H4R 5200   3.089   3.421   3.800  1.8624 -0.2594  1.9331
   41DOPE   H4S 5201   3.149   3.530   3.658  0.3666 -0.4776  0.0309
   41DOPE   C25 5202   3.269   3.372   3.710  0.4018  0.2798  0.5542
   41DOPE   H5R 5203   3.322   3.394   3.615 -0.1199 -1.7318 -0.2676
   41DOPE   H5S 5204   3.275   3.263   3.730  3.1622  0.2529 -0.1313
   41DOPE   C26 5205   3.353   3.439   3.818  0.6342 -0.2545 -0.1827
   41DOPE   H6R 5206   3.310   3.413   3.917  0.7631 -0.5100 -0.1923
   41DOPE   H6S 5207   3.353   3.550   3.812 -0.6632 -0.0032  2.8868
   41DOPE   C27 5208   3.498   3.392   3.819  0.3493 -0.3311 -0.4066
   41DOPE   H7R 5209   3.544   3.420   3.722  0.5356  2.9624  0.4996
   41DOPE   H7S 5210   3.487   3.283   3.836 -0.0654 -0.4228 -1.2263
   41DOPE   C28 5211   3.581   3.458   3.930  0.3799 -0.0827 -0.6763
   41DOPE   H8R 5212   3.684   3.418   3.919  0.5477  0.7280 -2.2316
   41DOPE   H8S 5213   3.531   3.432   4.026 -2.7167  2.0700 -1.5452
   41DOPE   C29 5214   3.587   3.608   3.916  0.2369  0.0682  0.0430
   41DOPE   H9R 5215   3.628   3.639   3.818 -1.3730 -1.2611 -1.1094
   41DOPE  C210 5216   3.536   3.699   4.002  0.4706 -0.2072  0.0535
   41DOPE  H10R 5217   3.539   3.805   3.972 -1.9331 -0.2047 -0.3409
   41DOPE  C211 5218   3.477   3.688   4.142  0.0017  0.3345 -0.4446
   41DOPE  H11R 5219   3.499   3.587   4.183 -0.5536  1.0036  1.6738
   41DOPE  H11S 5220   3.366   3.692   4.144 -0.0468 -0.7853 -0.5470
   41DOPE  C212 5221   3.539   3.784   4.241 -0.6245  0.3590  0.0184
   41DOPE  H12R 5222   3.528   3.886   4.197 -0.5786 -0.4382 -1.9682
   41DOPE  H12S 5223   3.648   3.761   4.243 -0.7612 -0.9110 -2.6041
   41DOPE  C213 5224   3.486   3.765   4.387 -0.1588 -0.0476  0.2973
   41DOPE  H13R 5225   3.550   3.826   4.455 -1.1346  0.6478  0.6148
   41DOPE  H13S 5226   3.506   3.658   4.409 -1.3557 -0.3183  0.1005
   41DOPE  C214 5227   3.339   3.789   4.413  0.0809  0.3164 -0.8080
   41DOPE  H14R 5228   3.277   3.728   4.344 -2.2053 -1.3181  2.4337
   41DOPE  H14S 5229   3.314   3.890   4.373  0.2866  0.5785 -0.2878
   41DOPE  C215 5230   3.295   3.751   4.563  0.5183  0.4662 -0.4854
   41DOPE  H15R 5231   3.348   3.811   4.640  0.7800  0.8730 -0.9671
   41DOPE  H15S 5232   3.313   3.646   4.593 -1.1466  0.4555  0.5866
   41DOPE  C216 5233   3.144   3.775   4.567 -0.2155 -0.6974 -0.2779
   41DOPE  H16R 5234   3.094   3.727   4.481  0.4339 -2.8256  0.4808
   41DOPE  H16S 5235   3.132   3.885   4.550 -0.1802 -0.2699  2.1221
   41DOPE  C217 5236   3.081   3.721   4.695 -0.2949 -0.4535 -0.9411
   41DOPE  H17R 5237   2.978   3.762   4.709 -0.5024 -0.8418 -1.3209
   41DOPE  H17S 5238   3.144   3.757   4.780  0.4742 -1.4044 -1.0975
   41DOPE  C218 5239   3.083   3.570   4.704  0.0976 -0.6190 -0.2911
   41DOPE  H18R 5240   3.185   3.525   4.706  1.3621  2.1100  0.4152
   41DOPE  H18S 5241   3.017   3.533   4.623 -0.1832  0.6841 -0.6801
   41DOPE  H18T 5242   3.042   3.539   4.803  1.2504  0.5855  0.5972
   41DOPE   C33 5243   3.183   3.945   4.036 -0.2627  1.1854  0.4143
   41DOPE   H3X 5244   3.287   3.931   3.999 -0.6885  1.5858 -0.9861
   41DOPE   H3Y 5245   3.175   3.940   4.147  1.7357 -0.2368  0.5500
   41DOPE   C34 5246   3.116   4.075   4.008  0.7930  0.7104  0.8242
   41DOPE   H4X 5247   3.102   4.076   3.898 -0.0558 -0.3275  0.9084
   41DOPE   H4Y 5248   3.016   4.074   4.057  1.0423  2.2682  1.4399
   41DOPE   C35 5249   3.203   4.190   4.051  0.3746  0.1560 -0.2079
   41DOPE   H5X 5250   3.150   4.277   4.006 -1.2745 -0.9110 -0.4272
   41DOPE   H5Y 5251   3.296   4.163   3.998 -0.5359 -1.6274 -0.9675
   41DOPE   C36 5252   3.217   4.180   4.210  0.6801  0.0810  0.0057
   41DOPE   H6X 5253   3.285   4.095   4.235  1.3520  0.4404 -0.5491
   41DOPE   H6Y 5254   3.124   4.172   4.269  1.0190  3.0474  1.0886
   41DOPE   C37 5255   3.284   4.309   4.259 -0.4487 -0.5070  0.0672
   41DOPE   H7X 5256   3.389   4.323   4.226  0.6315 -2.1588  2.5069
   41DOPE   H7Y 5257   3.214   4.382   4.213 -0.5759 -0.8493 -0.2871
   41DOPE   C38 5258   3.301   4.318   4.412  0.4227 -0.4501  0.0269
   41DOPE   H8X 5259   3.196   4.333   4.445 -0.4794 -0.4911 -2.5918
   41DOPE   H8Y 5260   3.344   4.416   4.442 -3.2813  0.8287  1.7692
   41DOPE   C39 5261   3.389   4.215   4.469  0.4023  0.2093  0.0334
   41DOPE   H9X 5262   3.353   4.111   4.476  0.7569 -0.0274 -1.2653
   41DOPE  C310 5263   3.514   4.219   4.507  0.7969 -0.5773 -0.8122
   41DOPE  H10X 5264   3.566   4.125   4.530  1.2688  0.2573  1.8652
   41DOPE  C311 5265   3.608   4.343   4.497 -0.0250  0.4669  0.3033
   41DOPE  H11X 5266   3.703   4.318   4.446  0.6544  1.5401  0.9936
   41DOPE  H11Y 5267   3.572   4.435   4.446  1.0964  0.5432 -0.3698
   41DOPE  C312 5268   3.654   4.396   4.639 -0.3782  0.3409  0.3304
   41DOPE  H12X 5269   3.568   4.411   4.708 -0.4188  1.0954  0.1295
   41DOPE  H12Y 5270   3.721   4.484   4.624  0.4482 -0.0645  1.5171
   41DOPE  C313 5271   3.735   4.295   4.722  0.2449 -0.1773 -0.0062
   41DOPE  H13X 5272   3.674   4.203   4.732  0.0158  0.0902  1.1709
   41DOPE  H13Y 5273   3.827   4.270   4.665 -0.5507 -0.0568 -1.4046
   41DOPE  C314 5274   3.757   4.351   4.864 -0.3095  0.4507  0.7042
   41DOPE  H14X 5275   3.664   4.398   4.902 -1.6688 -2.5561  1.3896
   41DOPE  H14Y 5276   3.845   4.418   4.863  0.2656 -0.2423 -1.3746
   41DOPE  C315 5277   3.789   4.238   4.962  0.3862  0.1090  0.1944
   41DOPE  H15X 5278   3.710   4.160   4.968  0.2010  0.2638 -0.2048
   41DOPE  H15Y 5279   3.805   4.285   5.062 -1.5845 -1.3895  1.2901
   41DOPE  C316 5280   3.911   4.158   4.918 -0.4643  0.0734 -0.0850
   41DOPE  H16X 5281   3.993   4.232   4.907 -1.3376  1.2585  1.0759
   41DOPE  H16Y 5282   3.896   4.101   4.824  0.9317 -4.8509  2.3509
   41DOPE  C317 5283   3.970   4.064   5.025  0.1555 -0.0135 -0.2467
   41DOPE  H17X 5284   3.893   3.987   5.045  0.7773 -0.5413  0.1884
   41DOPE  H17Y 5285   4.057   4.016   4.975 -1.3926 -1.8651 -1.2941
   41DOPE  C318 5286   4.010   4.118   5.163  0.8760 -0.3025  0.8444
   41DOPE  H18X 5287   3.919   4.142   5.221  0.5700 -0.1031  0.2923
   41DOPE  H18Y 5288   4.080   4.048   5.214 -0.1097 -1.2133  0.9952
   41DOPE  H18Z 5289   4.062   4.214   5.144 -0.6588  0.1137 -1.8008
   42DOPE     N 5290   1.970   2.762   3.346  0.5839 -0.2277 -0.0358
   42DOPE   HN1 5291   2.015   2.819   3.272  0.1047 -1.0373 -0.9713
   42DOPE   HN2 5292   1.993   2.803   3.439  0.0152 -0.5088  0.2335
   42DOPE   HN3 5293   2.024   2.674   3.353  0.2173 -0.4637 -0.1687
   42DOPE   C12 5294   1.822   2.728   3.321 -0.3152 -0.7520 -0.3846
   42DOPE  H12A 5295   1.785   2.682   3.415  2.9353 -1.1363  0.8394
   42DOPE  H12B 5296   1.823   2.649   3.243 -0.3384 -1.5161  0.3828
   42DOPE   C11 5297   1.741   2.846   3.281  0.5046 -0.0199 -0.2224
   42DOPE  H11A 5298   1.640   2.811   3.251  1.1733 -2.1419 -0.2132
   42DOPE  H11B 5299   1.780   2.897   3.190  0.0300  1.2416  0.2609
   42DOPE     P 5300   1.701   3.085   3.385  0.4824  0.5601  0.0242
   42DOPE   O13 5301   1.626   3.111   3.257  0.8001 -0.6001 -0.3941
   42DOPE   O14 5302   1.804   3.180   3.418  0.2083 -0.2373 -0.0951
   42DOPE   O11 5303   1.591   3.088   3.495  0.2620  0.4956  0.3655
   42DOPE   O12 5304   1.752   2.942   3.390  0.4863 -0.4592 -0.3480
   42DOPE    C1 5305   1.621   3.087   3.633  0.4388 -0.0482 -0.0311
   42DOPE    HA 5306   1.532   3.120   3.691 -0.0197 -1.4255  0.1040
   42DOPE    HB 5307   1.689   3.171   3.656 -0.1936  0.7490 -1.0017
   42DOPE    C2 5308   1.656   2.946   3.693 -0.1153  0.2395  0.2972
   42DOPE    HS 5309   1.720   2.895   3.617 -0.7379  1.3661 -1.0206
   42DOPE   O21 5310   1.529   2.876   3.706 -0.2021 -0.5502 -0.1696
   42DOPE   C21 5311   1.545   2.747   3.698 -0.0694 -0.0573  0.5946
   42DOPE   O22 5312   1.650   2.688   3.699 -0.0255  0.1039 -0.3631
   42DOPE   C22 5313   1.414   2.674   3.679  0.1739  0.3951  0.1562
   42DOPE   H2R 5314   1.395   2.665   3.570  0.4870 -1.5410  0.2243
   42DOPE   H2S 5315   1.334   2.735   3.727 -0.9842  0.8381 -2.1977
   42DOPE    C3 5316   1.734   2.940   3.831  0.1354 -0.1244 -0.0076
   42DOPE    HX 5317   1.830   2.990   3.806  1.0464 -1.6275  0.3727
   42DOPE    HY 5318   1.750   2.833   3.857  1.6455  0.0334 -0.2013
   42DOPE   O31 5319   1.663   3.013   3.929  0.2983 -0.3179  0.1625
   42DOPE   C31 5320   1.732   3.014   4.045 -0.1005  0.0068  0.2323
   42DOPE   O32 5321   1.844   2.971   4.063 -0.4789 -0.0598 -0.5724
   42DOPE   C32 5322   1.652   3.097   4.143 -0.0476 -0.4062  0.0822
   42DOPE   H2X 5323   1.661   3.198   4.098 -1.8162 -0.3330 -0.1366
   42DOPE   H2Y 5324   1.546   3.064   4.147  0.1713 -1.4019 -1.5142
   42DOPE   C23 5325   1.426   2.529   3.732 -0.4414 -0.2837 -0.5116
   42DOPE   H3R 5326   1.522   2.479   3.707 -0.4776 -1.2699  1.1612
   42DOPE   H3S 5327   1.340   2.472   3.691 -1.1582  0.9528 -0.7621
   42DOPE   C24 5328   1.419   2.513   3.885  0.2908 -0.3041  0.1790
   42DOPE   H4R 5329   1.399   2.410   3.922 -1.8465 -0.6395 -1.6779
   42DOPE   H4S 5330   1.334   2.574   3.919 -0.6894 -0.5373 -1.7025
   42DOPE   C25 5331   1.535   2.566   3.973  0.0951 -0.8109 -0.4709
   42DOPE   H5R 5332   1.556   2.674   3.955  4.5564 -1.4714 -0.4657
   42DOPE   H5S 5333   1.621   2.505   3.937  0.0618  0.8856 -3.7750
   42DOPE   C26 5334   1.515   2.548   4.125 -0.6020 -0.2682 -0.2609
   42DOPE   H6R 5335   1.475   2.447   4.150  0.2914  0.3303  4.7742
   42DOPE   H6S 5336   1.443   2.627   4.155  1.4502  1.8240 -0.5402
   42DOPE   C27 5337   1.635   2.555   4.221 -0.2390 -0.9813  0.6332
   42DOPE   H7R 5338   1.716   2.487   4.188  0.9644  1.2162 -1.2039
   42DOPE   H7S 5339   1.600   2.526   4.322 -0.5312 -1.6252  0.3499
   42DOPE   C28 5340   1.695   2.700   4.230 -0.2397  0.4164  0.1955
   42DOPE   H8R 5341   1.624   2.771   4.278 -1.1444 -0.5958  0.4093
   42DOPE   H8S 5342   1.698   2.737   4.125 -0.5942  1.5063  0.5490
   42DOPE   C29 5343   1.838   2.708   4.274  0.0785  0.0063  0.2126
   42DOPE   H9R 5344   1.919   2.759   4.220 -0.3321  1.5070  0.9771
   42DOPE  C210 5345   1.869   2.677   4.399  0.2436 -0.1705  0.2152
   42DOPE  H10R 5346   1.977   2.687   4.420  0.2787  1.9762 -0.7044
   42DOPE  C211 5347   1.775   2.648   4.518 -0.3803  0.3025 -0.4159
   42DOPE  H11R 5348   1.742   2.542   4.517  0.4673  0.0133  0.4550
   42DOPE  H11S 5349   1.682   2.708   4.516 -0.6041 -0.0052  0.3069
   42DOPE  C212 5350   1.820   2.695   4.654  0.1522  0.0021 -0.2243
   42DOPE  H12R 5351   1.842   2.804   4.659  0.2578 -0.0184 -0.2379
   42DOPE  H12S 5352   1.914   2.644   4.685  1.5778  3.4635  1.8272
   42DOPE  C213 5353   1.723   2.668   4.770  0.4306 -0.0189  0.0981
   42DOPE  H13R 5354   1.697   2.560   4.777  0.0001  0.1613  1.8543
   42DOPE  H13S 5355   1.636   2.734   4.750  0.0877  0.3199  2.3919
   42DOPE  C214 5356   1.774   2.700   4.912  1.0343 -0.1068 -0.8400
   42DOPE  H14R 5357   1.825   2.798   4.902  0.7123  0.0370 -1.0685
   42DOPE  H14S 5358   1.843   2.615   4.932 -1.4094 -2.2516 -0.9639
   42DOPE  C215 5359   1.675   2.700   5.032 -0.3578  0.0650  0.1008
   42DOPE  H15R 5360   1.732   2.729   5.124 -0.5058 -0.6101  0.4116
   42DOPE  H15S 5361   1.638   2.596   5.049 -1.7588  0.9434  3.2500
   42DOPE  C216 5362   1.563   2.794   5.008 -0.1173  0.0643 -0.9342
   42DOPE  H16R 5363   1.503   2.756   4.922 -0.0869 -0.6892 -0.6267
   42DOPE  H16S 5364   1.602   2.896   4.983 -2.1746  1.3914  0.9086
   42DOPE  C217 5365   1.476   2.816   5.134 -0.1389  0.3747  0.3124
   42DOPE  H17R 5366   1.470   2.722   5.192  1.1832 -0.5798 -1.0313
   42DOPE  H17S 5367   1.374   2.839   5.095 -0.3637 -1.3585 -0.1965
   42DOPE  C218 5368   1.519   2.929   5.230 -0.1055 -0.3543  0.1259
   42DOPE  H18R 5369   1.626   2.924   5.256 -0.3107  0.7991  1.2736
   42DOPE  H18S 5370   1.465   2.944   5.326 -0.7547  0.4697 -0.3574
   42DOPE  H18T 5371   1.512   3.028   5.179 -1.8704  0.3759  1.6557
   42DOPE   C33 5372   1.712   3.092   4.285 -0.0504  0.3464 -1.1431
   42DOPE   H3X 5373   1.813   3.137   4.291 -0.6617  1.6068  0.2665
   42DOPE   H3Y 5374   1.717   2.987   4.323  0.0043  0.8014  0.1479
   42DOPE   C34 5375   1.623   3.175   4.389  0.6590  0.7255 -0.0264
   42DOPE   H4X 5376   1.527   3.119   4.388  1.7400 -1.2233 -0.8947
   42DOPE   H4Y 5377   1.663   3.185   4.492  0.3396  0.5236  0.1213
   42DOPE   C35 5378   1.594   3.315   4.342  0.5767  0.5239  0.1235
   42DOPE   H5X 5379   1.538   3.363   4.425  0.9916  0.3527  0.5047
   42DOPE   H5Y 5380   1.517   3.320   4.261  0.0608  2.2223  0.6763
   42DOPE   C36 5381   1.712   3.409   4.304  0.3763 -0.1780  0.3633
   42DOPE   H6X 5382   1.779   3.360   4.231  2.4448  0.9685  1.4108
   42DOPE   H6Y 5383   1.768   3.441   4.395  0.0054  0.5479  0.3472
   42DOPE   C37 5384   1.656   3.535   4.240 -0.3487  0.6160 -0.2555
   42DOPE   H7X 5385   1.605   3.508   4.145 -2.4208 -0.6635  1.1350
   42DOPE   H7Y 5386   1.580   3.574   4.311  0.2347 -2.0384  2.0360
   42DOPE   C38 5387   1.770   3.643   4.215  0.2379  0.0628 -0.1321
   42DOPE   H8X 5388   1.832   3.595   4.136 -0.4617 -0.5481 -0.3201
   42DOPE   H8Y 5389   1.832   3.641   4.307 -0.5321  1.0818  0.4328
   42DOPE   C39 5390   1.711   3.776   4.168  0.0220 -0.8806  0.7510
   42DOPE   H9X 5391   1.662   3.777   4.070  0.1149  0.6250  0.7000
   42DOPE  C310 5392   1.705   3.890   4.235  0.6998 -0.2408 -0.3404
   42DOPE  H10X 5393   1.657   3.982   4.200  0.6401 -0.1667 -0.0663
   42DOPE  C311 5394   1.760   3.917   4.373 -0.6871 -0.6885  0.0422
   42DOPE  H11X 5395   1.802   3.824   4.418  0.3182  0.5557  1.8042
   42DOPE  H11Y 5396   1.847   3.986   4.361 -0.3797 -0.7784  1.5176
   42DOPE  C312 5397   1.666   3.963   4.484 -0.2972  0.2535 -0.6098
   42DOPE  H12X 5398   1.601   4.046   4.448 -0.9920 -1.6470 -4.1858
   42DOPE  H12Y 5399   1.726   3.994   4.572 -0.1448  0.3020 -0.7284
   42DOPE  C313 5400   1.566   3.859   4.524 -0.2450  0.6512 -0.0403
   42DOPE  H13X 5401   1.493   3.844   4.440 -0.5802  0.8313  0.2175
   42DOPE  H13Y 5402   1.628   3.767   4.527  0.4409  1.1102  3.4041
   42DOPE  C314 5403   1.500   3.889   4.661 -0.0751  0.1656 -0.0713
   42DOPE  H14X 5404   1.434   3.978   4.656 -1.5879 -0.9824 -3.3742
   42DOPE  H14Y 5405   1.585   3.905   4.731  2.0277  0.0445 -2.4559
   42DOPE  C315 5406   1.423   3.766   4.725  0.5099  0.3029  0.4552
   42DOPE  H15X 5407   1.486   3.675   4.733 -0.6733 -0.3822  3.0582
   42DOPE  H15Y 5408   1.345   3.739   4.651  0.1302  0.2406  0.8759
   42DOPE  C316 5409   1.370   3.796   4.866 -0.4939 -0.1764  0.3483
   42DOPE  H16X 5410   1.282   3.737   4.901 -0.5463  0.3636  1.1468
   42DOPE  H16Y 5411   1.333   3.900   4.862 -1.5677 -0.2980  3.7777
   42DOPE  C317 5412   1.479   3.800   4.979  0.4006 -0.0013 -0.1092
   42DOPE  H17X 5413   1.530   3.701   4.974  2.2636  0.7506  2.2675
   42DOPE  H17Y 5414   1.565   3.864   4.950  0.3904 -0.2491 -0.6937
   42DOPE  C318 5415   1.421   3.822   5.116  0.4992 -0.3770  0.4308
   42DOPE  H18X 5416   1.328   3.763   5.123  0.5626 -0.5187  0.1023
   42DOPE  H18Y 5417   1.491   3.794   5.197  3.3424  0.7441 -1.4656
   42DOPE  H18Z 5418   1.388   3.928   5.106 -0.8819 -0.6596  1.6733
   43DOPE     N 5419   3.715   2.377   2.581 -0.1561  0.1715  0.0580
   43DOPE   HN1 5420   3.786   2.351   2.652 -1.1531  0.7742  1.3048
   43DOPE   HN2 5421   3.743   2.328   2.494 -1.7236 -1.1574  0.2653
   43DOPE   HN3 5422   3.726   2.479   2.563 -0.6062  0.6769  2.3593
   43DOPE   C12 5423   3.575   2.345   2.622  0.5022  0.2697  0.1277
   43DOPE  H12A 5424   3.503   2.407   2.565 -3.7548 -0.0432  4.5628
   43DOPE  H12B 5425   3.573   2.374   2.729 -0.8312  1.6493 -0.2384
   43DOPE   C11 5426   3.550   2.199   2.602 -0.4194  0.5814 -0.0933
   43DOPE  H11A 5427   3.644   2.141   2.610 -0.2620  0.9427  0.7946
   43DOPE  H11B 5428   3.513   2.185   2.498 -0.9185  0.1233  0.1423
   43DOPE     P 5429   3.305   2.171   2.674 -0.4139  0.2650  0.0602
   43DOPE   O13 5430   3.261   2.098   2.548 -0.0248 -0.2343 -0.4971
   43DOPE   O14 5431   3.271   2.311   2.682  0.3453  0.0528 -1.1160
   43DOPE   O11 5432   3.232   2.094   2.793 -0.2370  0.1768  0.1647
   43DOPE   O12 5433   3.461   2.147   2.698  0.6879  0.3381 -0.4580
   43DOPE    C1 5434   3.281   1.978   2.852  0.2735  0.4700 -0.0646
   43DOPE    HA 5435   3.388   2.000   2.873  0.2027  1.1658 -0.3853
   43DOPE    HB 5436   3.282   1.899   2.773  0.5995  0.1126  0.2946
   43DOPE    C2 5437   3.212   1.932   2.979  0.0310 -0.0539 -0.0689
   43DOPE    HS 5438   3.114   1.886   2.954 -1.0284  1.9554  0.1349
   43DOPE   O21 5439   3.179   2.048   3.058 -0.5826 -0.3286  0.7083
   43DOPE   C21 5440   3.082   2.034   3.147 -0.2426  0.0907  0.1619
   43DOPE   O22 5441   3.026   1.927   3.166 -0.1611 -0.1584  0.0968
   43DOPE   C22 5442   3.064   2.161   3.231 -0.2746 -0.4560  0.6568
   43DOPE   H2R 5443   2.969   2.212   3.204  0.6397  0.5531 -0.8198
   43DOPE   H2S 5444   3.138   2.238   3.200  0.0335  0.6130  3.7587
   43DOPE    C3 5445   3.291   1.825   3.060  0.1030  0.6123  0.5462
   43DOPE    HX 5446   3.315   1.734   3.001 -2.2521  0.4229 -0.2417
   43DOPE    HY 5447   3.218   1.772   3.126  0.0226 -1.2163 -0.9055
   43DOPE   O31 5448   3.395   1.882   3.127  0.0546  0.1047 -0.5860
   43DOPE   C31 5449   3.516   1.848   3.091  0.0292  0.1537  0.4674
   43DOPE   O32 5450   3.548   1.744   3.037  0.2997  0.0337  0.1130
   43DOPE   C32 5451   3.609   1.935   3.174  0.2297  0.4232 -0.2795
   43DOPE   H2X 5452   3.686   1.986   3.111 -0.9960  1.1577 -1.2281
   43DOPE   H2Y 5453   3.554   2.018   3.224 -1.4102 -0.1664 -1.0469
   43DOPE   C23 5454   3.063   2.127   3.376  0.0869  0.1574 -0.3803
   43DOPE   H3R 5455   3.131   2.043   3.401 -0.2763  0.4586  1.8241
   43DOPE   H3S 5456   2.963   2.086   3.403 -0.0794 -0.0885 -1.3300
   43DOPE   C24 5457   3.105   2.242   3.473  0.1282  0.0296 -0.5012
   43DOPE   H4R 5458   3.043   2.333   3.460  0.5868  0.7190  1.6140
   43DOPE   H4S 5459   3.210   2.270   3.447  0.6243  0.2605  1.5443
   43DOPE   C25 5460   3.074   2.210   3.622  0.3298  0.0519  0.2261
   43DOPE   H5R 5461   2.966   2.182   3.626  0.4141 -0.9354 -2.2932
   43DOPE   H5S 5462   3.091   2.302   3.682  0.2486  1.4125 -1.7423
   43DOPE   C26 5463   3.158   2.088   3.671 -0.4755  0.3379 -0.3336
   43DOPE   H6R 5464   3.258   2.102   3.626 -0.7426  1.1833 -0.6880
   43DOPE   H6S 5465   3.123   1.993   3.624 -1.6395 -0.0610  1.2225
   43DOPE   C27 5466   3.158   2.054   3.821 -0.6064 -0.2503  0.0894
   43DOPE   H7R 5467   3.220   1.962   3.833  0.3175  0.1889 -1.1556
   43DOPE   H7S 5468   3.051   2.041   3.849 -0.2360 -1.3371  1.1288
   43DOPE   C28 5469   3.212   2.155   3.925  0.3485  0.2082 -0.7739
   43DOPE   H8R 5470   3.161   2.253   3.912 -0.7012 -0.2548 -0.2050
   43DOPE   H8S 5471   3.315   2.172   3.887  0.3983  1.3899 -0.1748
   43DOPE   C29 5472   3.210   2.097   4.074 -0.6726 -0.1157  0.7574
   43DOPE   H9R 5473   3.278   2.012   4.092  1.4803  1.4390  0.4382
   43DOPE  C210 5474   3.126   2.125   4.180 -0.3369  0.2552  0.2795
   43DOPE  H10R 5475   3.158   2.065   4.267 -0.3525 -1.0721 -0.5917
   43DOPE  C211 5476   3.029   2.234   4.203 -0.0280  0.0282  0.4596
   43DOPE  H11R 5477   2.933   2.194   4.242 -0.8427  0.2646 -1.1978
   43DOPE  H11S 5478   3.015   2.290   4.108  2.0095  0.9897  0.6605
   43DOPE  C212 5479   3.085   2.339   4.305 -0.5778  0.2696  0.3808
   43DOPE  H12R 5480   3.022   2.431   4.312 -1.6494 -0.4148 -0.0785
   43DOPE  H12S 5481   3.179   2.375   4.259  0.0345 -1.5175  0.1695
   43DOPE  C213 5482   3.118   2.284   4.442  0.2276 -0.2400  0.1089
   43DOPE  H13R 5483   3.218   2.239   4.463  0.2530  0.3593  1.4447
   43DOPE  H13S 5484   3.036   2.214   4.468  0.6475  0.1683  2.8711
   43DOPE  C214 5485   3.123   2.398   4.542 -0.3886 -0.1050 -0.1577
   43DOPE  H14R 5486   3.026   2.453   4.539 -0.9085 -0.9088  1.1536
   43DOPE  H14S 5487   3.185   2.488   4.521 -0.8736  0.1358 -0.5762
   43DOPE  C215 5488   3.151   2.351   4.689 -0.0425  0.2114  0.2588
   43DOPE  H15R 5489   3.260   2.341   4.708  0.0576  0.9365  0.1231
   43DOPE  H15S 5490   3.099   2.255   4.708 -0.0449  0.1882  0.1376
   43DOPE  C216 5491   3.089   2.440   4.799  0.8316  0.2730 -0.5414
   43DOPE  H16R 5492   2.986   2.467   4.768  1.0744  2.3207  0.2618
   43DOPE  H16S 5493   3.143   2.537   4.797  2.0813 -0.4079 -2.1330
   43DOPE  C217 5494   3.103   2.368   4.929  0.2984  0.0127  0.1738
   43DOPE  H17R 5495   3.201   2.316   4.933  0.6788  0.6851 -0.2884
   43DOPE  H17S 5496   3.018   2.296   4.928  0.0441  0.3251 -0.6776
   43DOPE  C218 5497   3.092   2.456   5.053  0.0683  0.1665  0.2427
   43DOPE  H18R 5498   3.190   2.506   5.067  0.1009 -0.0462  0.8363
   43DOPE  H18S 5499   3.088   2.396   5.147  3.3044 -2.0130 -0.8422
   43DOPE  H18T 5500   3.004   2.524   5.060 -0.9497 -1.1426  0.6599
   43DOPE   C33 5501   3.673   1.850   3.284  0.0084  0.7261  0.2153
   43DOPE   H3X 5502   3.761   1.814   3.228 -2.1191 -1.3687 -2.0488
   43DOPE   H3Y 5503   3.621   1.753   3.300  3.1936 -0.9501  1.3264
   43DOPE   C34 5504   3.717   1.919   3.415  0.0202 -0.2811 -0.3224
   43DOPE   H4X 5505   3.806   1.874   3.463 -0.5545 -1.2409 -0.1350
   43DOPE   H4Y 5506   3.747   2.019   3.376 -0.3284  0.1433  0.4718
   43DOPE   C35 5507   3.600   1.939   3.508  0.3800  0.7619  0.1821
   43DOPE   H5X 5508   3.556   1.840   3.533 -0.1340  1.0161  0.2742
   43DOPE   H5Y 5509   3.520   2.002   3.465  0.0015 -1.1379 -2.1340
   43DOPE   C36 5510   3.650   2.009   3.633  0.0514  0.0439  0.6709
   43DOPE   H6X 5511   3.671   2.116   3.612  0.8801  0.1206  1.7598
   43DOPE   H6Y 5512   3.748   1.968   3.662 -0.4055  0.1282  2.4666
   43DOPE   C37 5513   3.553   2.002   3.745  0.0520 -0.3418  0.6264
   43DOPE   H7X 5514   3.469   2.069   3.716  1.6335  1.2194 -0.6154
   43DOPE   H7Y 5515   3.516   1.899   3.764  1.0170 -1.4676 -2.8073
   43DOPE   C38 5516   3.617   2.072   3.872  0.7708  0.1532 -0.0373
   43DOPE   H8X 5517   3.532   2.106   3.934 -0.0317  0.4743 -1.2833
   43DOPE   H8Y 5518   3.676   2.161   3.843  2.4756 -1.1431 -0.7763
   43DOPE   C39 5519   3.709   1.973   3.947  0.1621 -0.6677  0.1784
   43DOPE   H9X 5520   3.796   1.943   3.887 -0.4656 -1.2823 -0.4475
   43DOPE  C310 5521   3.707   1.937   4.076 -0.2338  0.5346  0.1873
   43DOPE  H10X 5522   3.759   1.852   4.121 -0.1688  0.0427 -0.8063
   43DOPE  C311 5523   3.604   1.980   4.171  0.1515 -0.3311  0.0472
   43DOPE  H11X 5524   3.658   2.018   4.261  1.3035 -0.6346 -0.4982
   43DOPE  H11Y 5525   3.538   2.062   4.135  2.0889  1.6061  0.6936
   43DOPE  C312 5526   3.518   1.870   4.233  0.8705 -0.8551 -0.8268
   43DOPE  H12X 5527   3.583   1.796   4.285  1.4802 -0.0588 -0.4294
   43DOPE  H12Y 5528   3.467   1.813   4.153  1.5112  0.2048 -2.0391
   43DOPE  C313 5529   3.431   1.941   4.340  0.7179 -0.2349 -0.3802
   43DOPE  H13X 5530   3.491   1.987   4.421 -1.3334  4.6815 -1.2938
   43DOPE  H13Y 5531   3.384   2.033   4.297 -1.2218 -0.8997  0.2002
   43DOPE  C314 5532   3.314   1.854   4.390 -0.7257 -0.8466  0.2212
   43DOPE  H14X 5533   3.373   1.771   4.436 -0.2143  0.0463  1.2499
   43DOPE  H14Y 5534   3.255   1.820   4.303  0.3177  1.1034 -1.3159
   43DOPE  C315 5535   3.231   1.913   4.507  0.2939 -0.5277 -0.4281
   43DOPE  H15X 5536   3.150   1.846   4.540 -0.5988  1.0909  0.8087
   43DOPE  H15Y 5537   3.190   2.011   4.473  4.9145  1.2516 -1.6809
   43DOPE  C316 5538   3.325   1.950   4.617 -0.6923 -0.3315 -0.7642
   43DOPE  H16X 5539   3.369   2.050   4.603 -0.9369 -0.1259 -0.1360
   43DOPE  H16Y 5540   3.403   1.874   4.636 -0.1776  0.3197 -0.2275
   43DOPE  C317 5541   3.254   1.958   4.754  0.1136 -0.0265 -0.7829
   43DOPE  H17X 5542   3.171   2.031   4.755 -0.5939 -0.8165 -0.8521
   43DOPE  H17Y 5543   3.204   1.860   4.773  0.4005  0.1769  1.1630
   43DOPE  C318 5544   3.347   1.992   4.870  0.8094  0.8543  0.7010
   43DOPE  H18X 5545   3.443   1.943   4.841 -1.1299 -1.5672 -2.1955
   43DOPE  H18Y 5546   3.359   2.102   4.887  0.1716  0.5537  3.6019
   43DOPE  H18Z 5547   3.321   1.951   4.969 -1.6654  2.3819  0.7641
   44DOPE     N 5548   3.389   0.403   2.710  0.3144 -0.1228 -0.6909
   44DOPE   HN1 5549   3.307   0.435   2.655 -0.2195 -0.3271 -0.0314
   44DOPE   HN2 5550   3.465   0.377   2.645 -0.3399  4.6418 -3.9345
   44DOPE   HN3 5551   3.362   0.328   2.777  0.3754  1.6390  1.4417
   44DOPE   C12 5552   3.425   0.514   2.806 -0.7544  1.1944  0.2167
   44DOPE  H12A 5553   3.332   0.534   2.862 -0.7539 -3.0694  2.1630
   44DOPE  H12B 5554   3.456   0.603   2.748 -2.2586  1.9015  0.4675
   44DOPE   C11 5555   3.554   0.474   2.892 -0.2731  0.6867  0.2833
   44DOPE  H11A 5556   3.527   0.377   2.939 -3.6414  1.3461 -0.0369
   44DOPE  H11B 5557   3.571   0.545   2.975  0.3769  0.6032  0.2260
   44DOPE     P 5558   3.777   0.365   2.824  0.0886  0.7198  0.3383
   44DOPE   O13 5559   3.918   0.411   2.798 -0.2897  0.5573  0.0191
   44DOPE   O14 5560   3.732   0.257   2.733  0.0506 -0.7281 -0.5092
   44DOPE   O11 5561   3.764   0.297   2.966  0.5226 -0.2611 -0.0314
   44DOPE   O12 5562   3.669   0.478   2.815 -0.2721 -0.0280  0.4703
   44DOPE    C1 5563   3.815   0.362   3.089 -0.6082  0.1672 -1.0160
   44DOPE    HA 5564   3.731   0.362   3.161 -0.5347  1.0109 -0.9220
   44DOPE    HB 5565   3.849   0.466   3.070  2.2062 -0.1921  1.3078
   44DOPE    C2 5566   3.936   0.295   3.157  0.3802  1.4453  0.0684
   44DOPE    HS 5567   4.015   0.267   3.084  2.0514  1.7101  1.6857
   44DOPE   O21 5568   3.883   0.174   3.226  0.0577  0.1394 -0.0694
   44DOPE   C21 5569   3.974   0.084   3.263  0.0690 -0.4083  0.2724
   44DOPE   O22 5570   4.097   0.085   3.231 -0.4140 -0.3300 -0.2679
   44DOPE   C22 5571   3.900  -0.027   3.336 -0.6733  0.2399 -0.3483
   44DOPE   H2R 5572   3.859  -0.096   3.258  1.4040  0.3745 -1.6198
   44DOPE   H2S 5573   3.817   0.020   3.394 -1.8378 -0.8250 -1.0804
   44DOPE    C3 5574   4.004   0.384   3.263  0.6626 -0.0574  0.1541
   44DOPE    HX 5575   4.052   0.471   3.213 -0.2499  1.2117  1.4051
   44DOPE    HY 5576   4.091   0.328   3.304  0.3696 -1.6258 -1.2604
   44DOPE   O31 5577   3.914   0.436   3.367 -0.5154  0.1552  0.4869
   44DOPE   C31 5578   3.919   0.372   3.480  0.3443  0.5984  0.1934
   44DOPE   O32 5579   3.986   0.273   3.514  0.4115 -0.2061  0.4957
   44DOPE   C32 5580   3.838   0.453   3.578 -0.1183 -0.3224  0.1688
   44DOPE   H2X 5581   3.774   0.524   3.521 -0.3676 -0.7220 -0.0615
   44DOPE   H2Y 5582   3.762   0.386   3.624 -0.9941  0.8915  0.5632
   44DOPE   C23 5583   3.997  -0.111   3.423  0.0341  0.7293 -0.3266
   44DOPE   H3R 5584   4.057  -0.057   3.500  1.5853  1.6667 -2.0909
   44DOPE   H3S 5585   4.077  -0.149   3.355  1.2202  1.9556  0.3231
   44DOPE   C24 5586   3.931  -0.232   3.488 -0.2854 -0.2506  0.4169
   44DOPE   H4R 5587   3.883  -0.282   3.401  0.2979  0.5901 -0.4126
   44DOPE   H4S 5588   3.861  -0.192   3.564 -0.3481 -1.9607  1.3188
   44DOPE   C25 5589   4.031  -0.323   3.555  0.4671  0.1681  0.0823
   44DOPE   H5R 5590   4.095  -0.274   3.631 -0.8327  1.8378  0.1776
   44DOPE   H5S 5591   4.100  -0.359   3.476  2.9142  0.0874  2.1487
   44DOPE   C26 5592   3.960  -0.453   3.615 -0.0386 -0.2446  1.0193
   44DOPE   H6R 5593   4.023  -0.539   3.644  1.2276  0.2496 -0.1672
   44DOPE   H6S 5594   3.886  -0.489   3.540  2.4609 -1.7771 -0.8717
   44DOPE   C27 5595   3.888  -0.415   3.747 -0.2931 -0.4294  0.3679
   44DOPE   H7R 5596   3.843  -0.314   3.734  1.7192  0.2809 -1.5716
   44DOPE   H7S 5597   3.967  -0.404   3.824 -0.2866  0.3162  0.2572
   44DOPE   C28 5598   3.796  -0.524   3.794  0.7359  0.5124 -0.1074
   44DOPE   H8R 5599   3.846  -0.622   3.809 -0.6023 -0.3503 -0.9857
   44DOPE   H8S 5600   3.730  -0.550   3.708  3.6468 -0.7720 -2.1260
   44DOPE   C29 5601   3.715  -0.482   3.912  0.6301  0.9343  0.2112
   44DOPE   H9R 5602   3.727  -0.375   3.933 -0.1345  1.1532 -0.3937
   44DOPE  C210 5603   3.642  -0.568   3.993 -0.1222  0.0469  0.1181
   44DOPE  H10R 5604   3.582  -0.524   4.073 -0.4043  1.2990 -0.7591
   44DOPE  C211 5605   3.634  -0.716   3.965  0.6766 -0.6793  0.5394
   44DOPE  H11R 5606   3.645  -0.747   3.858 -1.1353 -1.0637  0.4192
   44DOPE  H11S 5607   3.533  -0.755   3.992 -0.1797  0.9574 -0.1513
   44DOPE  C212 5608   3.744  -0.802   4.031 -0.4822  0.5034 -0.0526
   44DOPE  H12R 5609   3.840  -0.753   4.003 -0.4330  0.4040 -0.0588
   44DOPE  H12S 5610   3.740  -0.901   3.980 -0.0051  0.3708  0.1601
   44DOPE  C213 5611   3.727  -0.810   4.182  0.3317 -0.3559 -0.1784
   44DOPE  H13R 5612   3.729  -0.706   4.222 -0.4679 -0.4235  0.0498
   44DOPE  H13S 5613   3.806  -0.870   4.232  0.7840  0.1546 -0.2707
   44DOPE  C214 5614   3.590  -0.857   4.224  0.1559  0.2241 -0.9944
   44DOPE  H14R 5615   3.553  -0.936   4.154 -0.7407 -0.9053  0.6753
   44DOPE  H14S 5616   3.522  -0.770   4.216  1.7387  1.3325 -3.6333
   44DOPE  C215 5617   3.571  -0.901   4.374 -0.2943  0.2820 -0.1238
   44DOPE  H15R 5618   3.635  -0.840   4.441  0.9361 -0.8306 -0.2333
   44DOPE  H15S 5619   3.620  -1.000   4.391  2.5143  1.1481 -2.3582
   44DOPE  C216 5620   3.421  -0.916   4.427 -0.1644  0.4840  0.2318
   44DOPE  H16R 5621   3.376  -1.000   4.370  1.6306  0.1565 -0.7857
   44DOPE  H16S 5622   3.357  -0.826   4.410  0.5441  0.7077 -1.4995
   44DOPE  C217 5623   3.421  -0.950   4.577  0.1219  0.5757 -0.1185
   44DOPE  H17R 5624   3.468  -0.867   4.633  0.8600 -0.2802  0.5640
   44DOPE  H17S 5625   3.476  -1.046   4.582 -0.0580  0.4868  0.2181
   44DOPE  C218 5626   3.277  -0.959   4.621 -0.2142  0.8963 -0.0125
   44DOPE  H18R 5627   3.219  -0.867   4.597 -1.1465  0.3586  0.1432
   44DOPE  H18S 5628   3.275  -0.980   4.730 -1.2155 -0.6551 -0.2978
   44DOPE  H18T 5629   3.228  -1.046   4.573  0.4979  1.2300 -1.3673
   44DOPE   C33 5630   3.933   0.535   3.674  0.6395  0.0750 -0.2927
   44DOPE   H3X 5631   3.957   0.464   3.756 -0.5458 -0.6135 -0.5127
   44DOPE   H3Y 5632   3.866   0.604   3.729  0.9078 -1.0403  1.5029
   44DOPE   C34 5633   4.041   0.616   3.616 -0.1453  0.0706  0.1022
   44DOPE   H4X 5634   4.123   0.547   3.586 -1.7195 -1.1115 -1.7111
   44DOPE   H4Y 5635   4.018   0.675   3.525 -0.4296  0.1956  0.2541
   44DOPE   C35 5636   4.105   0.708   3.722 -0.4611  0.0301  0.1666
   44DOPE   H5X 5637   4.026   0.782   3.749 -1.8606 -0.9908 -1.0447
   44DOPE   H5Y 5638   4.190   0.757   3.670  0.8914 -0.1250  2.1238
   44DOPE   C36 5639   4.171   0.626   3.835  0.8197 -0.4397 -0.0973
   44DOPE   H6X 5640   4.237   0.542   3.805  0.4066 -0.6649 -0.3811
   44DOPE   H6Y 5641   4.094   0.588   3.906 -1.0508  2.8177 -0.1638
   44DOPE   C37 5642   4.254   0.725   3.911  0.1944 -0.0927  0.3990
   44DOPE   H7X 5643   4.337   0.752   3.842 -0.5670  0.0442 -0.4815
   44DOPE   H7Y 5644   4.203   0.822   3.926 -1.4007 -1.1073  1.9474
   44DOPE   C38 5645   4.299   0.670   4.046  0.5843  0.4580 -0.9063
   44DOPE   H8X 5646   4.369   0.587   4.023 -0.7546 -0.7803 -0.6958
   44DOPE   H8Y 5647   4.209   0.623   4.091 -0.9487  1.7336 -2.5204
   44DOPE   C39 5648   4.351   0.775   4.145 -0.0247  0.5722 -0.5059
   44DOPE   H9X 5649   4.445   0.818   4.107  0.6115 -0.9795 -0.7647
   44DOPE  C310 5650   4.294   0.810   4.263  0.3018 -0.2789  0.5208
   44DOPE  H10X 5651   4.341   0.885   4.328  0.6654 -1.1783  1.3303
   44DOPE  C311 5652   4.169   0.749   4.316 -0.1193 -0.2102 -0.2524
   44DOPE  H11X 5653   4.077   0.805   4.292  1.6896  1.7631 -3.1659
   44DOPE  H11Y 5654   4.156   0.643   4.285  2.6717 -0.7365  0.0983
   44DOPE  C312 5655   4.176   0.744   4.474 -0.4799  0.3335  0.2879
   44DOPE  H12X 5656   4.184   0.846   4.517 -2.2022 -0.5783  2.9908
   44DOPE  H12Y 5657   4.262   0.682   4.505 -0.6876  0.5412  1.3142
   44DOPE  C313 5658   4.047   0.684   4.532 -0.3220  0.1787  0.1327
   44DOPE  H13X 5659   3.972   0.752   4.488  0.1378  0.2354 -0.5794
   44DOPE  H13Y 5660   4.035   0.583   4.486  1.6500 -1.2160  2.3842
   44DOPE  C314 5661   4.045   0.675   4.685  0.5963  0.7356 -0.0638
   44DOPE  H14X 5662   4.139   0.623   4.714 -0.8264 -0.5740  2.5299
   44DOPE  H14Y 5663   3.963   0.611   4.722  1.2997 -0.3855 -0.3856
   44DOPE  C315 5664   4.033   0.807   4.753 -0.1003 -0.4827 -0.8447
   44DOPE  H15X 5665   3.939   0.856   4.718 -0.0793 -0.8828 -1.4889
   44DOPE  H15Y 5666   4.113   0.876   4.718 -1.9894  0.9406 -2.6182
   44DOPE  C316 5667   4.033   0.799   4.911 -0.1101  0.7513 -0.0737
   44DOPE  H16X 5668   3.936   0.747   4.930 -0.7869  0.6430 -3.2188
   44DOPE  H16Y 5669   4.042   0.904   4.948  2.6979  0.6746 -0.3851
   44DOPE  C317 5670   4.141   0.703   4.962 -0.1421  0.0881 -0.4068
   44DOPE  H17X 5671   4.136   0.597   4.931  1.3428 -0.4885  1.1375
   44DOPE  H17Y 5672   4.243   0.740   4.936  1.5747 -1.4326  3.4615
   44DOPE  C318 5673   4.136   0.698   5.121  0.4974  0.6596 -0.5159
   44DOPE  H18X 5674   4.142   0.800   5.163 -2.1133  0.3100  0.9441
   44DOPE  H18Y 5675   4.036   0.660   5.152  0.7743  0.9042  0.7532
   44DOPE  H18Z 5676   4.218   0.631   5.155 -0.1988  0.2876  0.4867
   45DOPE     N 5677   5.596   6.627   3.142 -0.1953 -0.1287 -0.8179
   45DOPE   HN1 5678   5.559   6.550   3.083 -2.7028  0.9988 -0.8547
   45DOPE   HN2 5679   5.594   6.604   3.243 -1.3083 -1.6973 -1.1768
   45DOPE   HN3 5680   5.532   6.707   3.124 -0.4123 -0.6507 -2.5943
   45DOPE   C12 5681   5.734   6.657   3.097  0.4847  0.1585  0.0657
   45DOPE  H12A 5682   5.720   6.704   2.997  1.6559  0.7224  0.1503
   45DOPE  H12B 5683   5.788   6.561   3.084  2.7712  1.3562  0.2505
   45DOPE   C11 5684   5.803   6.753   3.193 -0.1244 -0.2087 -0.3538
   45DOPE  H11A 5685   5.897   6.789   3.147 -0.7776 -0.0512 -1.5974
   45DOPE  H11B 5686   5.827   6.694   3.285 -1.6911 -0.3147  0.0288
   45DOPE     P 5687   5.770   7.008   3.226 -0.1204 -0.0648 -0.5950
   45DOPE   O13 5688   5.842   7.023   3.099 -0.0872 -0.5879 -0.4410
   45DOPE   O14 5689   5.843   7.041   3.351 -0.8864  0.1023  0.5108
   45DOPE   O11 5690   5.649   7.100   3.228 -0.1801  0.3087  0.4538
   45DOPE   O12 5691   5.719   6.859   3.236 -0.5010 -0.4697 -0.1746
   45DOPE    C1 5692   5.578   7.095   3.348 -0.6705 -0.4493  0.0292
   45DOPE    HA 5693   5.642   7.111   3.438 -1.6420 -0.9804  0.8404
   45DOPE    HB 5694   5.514   7.005   3.359 -0.2922 -0.7808 -0.4468
   45DOPE    C2 5695   5.475   7.211   3.354  0.9487  0.0960  0.7068
   45DOPE    HS 5696   5.421   7.210   3.257 -1.0413 -1.8356  1.7404
   45DOPE   O21 5697   5.547   7.338   3.362  0.0907 -0.1825 -0.0880
   45DOPE   C21 5698   5.472   7.441   3.336 -0.9547 -0.4188  0.3750
   45DOPE   O22 5699   5.364   7.438   3.276  0.2088 -0.2541 -0.4592
   45DOPE   C22 5700   5.550   7.565   3.383 -0.6626  0.3987 -0.3605
   45DOPE   H2R 5701   5.484   7.653   3.398 -1.2768 -0.3758  1.8781
   45DOPE   H2S 5702   5.618   7.606   3.305 -0.5079  2.5615  0.8481
   45DOPE    C3 5703   5.361   7.199   3.461 -0.5410 -0.0462  0.1235
   45DOPE    HX 5704   5.293   7.116   3.432  0.2266 -0.3941 -0.7451
   45DOPE    HY 5705   5.308   7.296   3.458 -1.5000 -0.5694 -0.1252
   45DOPE   O31 5706   5.410   7.176   3.593  0.2504 -0.0060  0.0642
   45DOPE   C31 5707   5.316   7.153   3.687 -0.7902 -0.2441 -0.9040
   45DOPE   O32 5708   5.195   7.148   3.671 -0.4157 -0.6011 -0.3390
   45DOPE   C32 5709   5.382   7.106   3.816 -0.1603  0.3012 -0.4953
   45DOPE   H2X 5710   5.478   7.064   3.780  0.2461  0.7294  0.0745
   45DOPE   H2Y 5711   5.419   7.193   3.874  0.1588 -0.4062  0.3886
   45DOPE   C23 5712   5.618   7.540   3.518 -0.4056 -0.3003 -0.4167
   45DOPE   H3R 5713   5.684   7.627   3.540 -0.8752  0.1778 -0.8769
   45DOPE   H3S 5714   5.688   7.455   3.508  0.2016  0.3758 -2.3394
   45DOPE   C24 5715   5.507   7.515   3.623 -0.4371 -0.3764  0.3405
   45DOPE   H4R 5716   5.448   7.422   3.611 -3.3323  1.2242  1.1449
   45DOPE   H4S 5717   5.433   7.595   3.602  2.3180  2.4776  0.7778
   45DOPE   C25 5718   5.550   7.521   3.772  0.0328  0.8317  0.5092
   45DOPE   H5R 5719   5.600   7.617   3.796  1.5588  0.3681 -0.6458
   45DOPE   H5S 5720   5.632   7.449   3.793  0.0814 -0.4119 -3.2246
   45DOPE   C26 5721   5.424   7.493   3.851 -0.3243 -0.5545 -0.0540
   45DOPE   H6R 5722   5.369   7.408   3.806  1.0413 -0.9794 -0.9853
   45DOPE   H6S 5723   5.356   7.579   3.834  0.1852  0.6294  3.2405
   45DOPE   C27 5724   5.454   7.477   3.999 -0.1098 -0.1376  0.7075
   45DOPE   H7R 5725   5.529   7.553   4.030  0.6530 -1.3387  1.9469
   45DOPE   H7S 5726   5.497   7.377   4.020 -1.5798 -0.6937  1.1520
   45DOPE   C28 5727   5.336   7.514   4.093  0.1165 -0.1678  0.2984
   45DOPE   H8R 5728   5.317   7.622   4.073  0.8547 -0.1610 -0.4438
   45DOPE   H8S 5729   5.363   7.508   4.200  1.0210  1.4797  0.1992
   45DOPE   C29 5730   5.217   7.430   4.056 -0.6254  0.4344 -0.7061
   45DOPE   H9R 5731   5.161   7.447   3.963  0.2344 -0.2128 -1.3576
   45DOPE  C210 5732   5.163   7.342   4.141 -0.0018  0.3237 -0.4792
   45DOPE  H10R 5733   5.059   7.319   4.113 -0.4080  2.1824 -0.6589
   45DOPE  C211 5734   5.212   7.289   4.271 -0.1696  0.3719 -0.0779
   45DOPE  H11R 5735   5.321   7.302   4.286 -0.3055 -0.9930  2.6305
   45DOPE  H11S 5736   5.196   7.181   4.292  0.0478  0.6161  1.4567
   45DOPE  C212 5737   5.137   7.348   4.391  0.0410 -0.3145 -0.2499
   45DOPE  H12R 5738   5.173   7.299   4.484  0.0593  0.5525  0.2143
   45DOPE  H12S 5739   5.028   7.329   4.382 -0.0705  0.8837 -2.3063
   45DOPE  C213 5740   5.160   7.495   4.404 -0.5958  0.5594  0.4513
   45DOPE  H13R 5741   5.116   7.550   4.319 -1.8908 -0.0187  0.7189
   45DOPE  H13S 5742   5.270   7.511   4.405 -0.3060 -1.0260 -1.1866
   45DOPE  C214 5743   5.104   7.557   4.530 -0.2825  0.5902 -0.1163
   45DOPE  H14R 5744   5.163   7.651   4.542 -2.0149  1.5132  1.8466
   45DOPE  H14S 5745   5.127   7.489   4.614 -1.7301  0.6094  0.3240
   45DOPE  C215 5746   4.956   7.582   4.537  0.3307  0.0097  0.0805
   45DOPE  H15R 5747   4.911   7.481   4.522  0.4028 -0.0606  0.3475
   45DOPE  H15S 5748   4.917   7.660   4.468  1.3019  0.7260  0.3312
   45DOPE  C216 5749   4.917   7.649   4.666 -0.3795 -1.0181 -0.8908
   45DOPE  H16R 5750   4.955   7.753   4.667 -2.0661 -0.3571 -1.2615
   45DOPE  H16S 5751   4.964   7.606   4.757  1.5225  0.1064 -1.2880
   45DOPE  C217 5752   4.767   7.643   4.676 -0.5429  0.0265 -0.0893
   45DOPE  H17R 5753   4.725   7.541   4.694  0.5026 -0.8404 -2.2179
   45DOPE  H17S 5754   4.715   7.669   4.582  0.5770  1.0691 -0.4464
   45DOPE  C218 5755   4.713   7.733   4.782  0.0377  0.3387  0.5253
   45DOPE  H18R 5756   4.728   7.841   4.759 -0.9501  0.2816 -0.4804
   45DOPE  H18S 5757   4.764   7.713   4.879  2.9196 -1.3038 -1.2008
   45DOPE  H18T 5758   4.607   7.731   4.815  0.2397  4.2483  1.9025
   45DOPE   C33 5759   5.302   7.009   3.903 -0.4343  0.0670 -0.0850
   45DOPE   H3X 5760   5.233   6.941   3.849 -1.9257 -0.2416  2.0412
   45DOPE   H3Y 5761   5.238   7.054   3.983 -0.1513  1.3786 -0.5804
   45DOPE   C34 5762   5.402   6.922   3.977  0.2996  0.0304  0.6371
   45DOPE   H4X 5763   5.347   6.842   4.032 -0.4953 -0.9516 -1.4805
   45DOPE   H4Y 5764   5.468   6.864   3.909 -0.0249 -1.0274  1.2027
   45DOPE   C35 5765   5.501   6.993   4.065 -0.3389 -0.0622  0.0849
   45DOPE   H5X 5766   5.464   7.085   4.115  1.0007  2.0948 -2.6458
   45DOPE   H5Y 5767   5.586   7.029   4.003  0.8199 -2.4931  0.1243
   45DOPE   C36 5768   5.555   6.889   4.171  0.0718 -1.0171 -0.5887
   45DOPE   H6X 5769   5.569   6.786   4.132  1.6732 -1.1119  0.1275
   45DOPE   H6Y 5770   5.479   6.896   4.252  1.6049 -0.9551  0.9232
   45DOPE   C37 5771   5.677   6.951   4.243 -0.5116 -0.4121 -0.0003
   45DOPE   H7X 5772   5.658   7.060   4.243 -1.9768 -0.6358 -1.0426
   45DOPE   H7Y 5773   5.687   6.912   4.346  1.9509  2.3023  0.9234
   45DOPE   C38 5774   5.806   6.909   4.164 -0.2430 -0.3322 -0.3553
   45DOPE   H8X 5775   5.872   6.998   4.162  0.8939 -1.1667 -1.4062
   45DOPE   H8Y 5776   5.780   6.899   4.057 -0.8273 -0.6263 -0.1907
   45DOPE   C39 5777   5.876   6.778   4.207  0.3081 -0.5083 -0.1548
   45DOPE   H9X 5778   5.832   6.688   4.161  1.0164 -1.0754  0.2608
   45DOPE  C310 5779   5.998   6.771   4.268 -0.0552  0.9466 -0.2211
   45DOPE  H10X 5780   6.049   6.674   4.271 -1.8998 -0.0425  1.3628
   45DOPE  C311 5781   6.069   6.882   4.330 -0.0912 -0.3113 -0.8344
   45DOPE  H11X 5782   6.157   6.917   4.271 -0.5064 -0.0279 -1.2918
   45DOPE  H11Y 5783   5.998   6.967   4.335  0.1706 -0.0193 -1.7835
   45DOPE  C312 5784   6.107   6.847   4.482  0.3726 -0.0171 -0.2220
   45DOPE  H12X 5785   6.155   6.929   4.539 -0.7198 -0.0295  0.7594
   45DOPE  H12Y 5786   6.174   6.759   4.490 -0.5227 -0.5626  1.9342
   45DOPE  C313 5787   5.979   6.805   4.563  0.3635  0.0288 -0.4396
   45DOPE  H13X 5788   5.895   6.875   4.540  0.3257 -0.2154 -1.0572
   45DOPE  H13Y 5789   5.942   6.705   4.530  2.5493 -0.6033 -1.1224
   45DOPE  C314 5790   5.997   6.796   4.715  0.0557  0.5617 -0.1306
   45DOPE  H14X 5791   6.076   6.721   4.734  0.0710  1.0647  1.9377
   45DOPE  H14Y 5792   5.900   6.767   4.760 -0.2111  0.7201 -0.5861
   45DOPE  C315 5793   6.042   6.924   4.781 -0.5362  0.2396 -0.9784
   45DOPE  H15X 5794   6.135   6.962   4.734 -1.3276 -0.8838 -3.6105
   45DOPE  H15Y 5795   6.062   6.907   4.889  1.9568  0.9145 -1.2720
   45DOPE  C316 5796   5.931   7.025   4.779 -0.1338  0.2395 -0.1195
   45DOPE  H16X 5797   5.840   6.962   4.794 -0.0477  0.0245 -0.4879
   45DOPE  H16Y 5798   5.929   7.067   4.676  0.3265 -0.2153 -0.3204
   45DOPE  C317 5799   5.942   7.134   4.887 -0.4962 -0.5462  0.2356
   45DOPE  H17X 5800   5.930   7.094   4.990  1.5440 -0.9328  0.3483
   45DOPE  H17Y 5801   6.046   7.173   4.885  0.5108 -3.0232  0.7022
   45DOPE  C318 5802   5.834   7.236   4.862  0.4018  0.2021  0.1793
   45DOPE  H18X 5803   5.837   7.316   4.939  0.1884  1.4425 -1.0557
   45DOPE  H18Y 5804   5.850   7.288   4.765 -1.3217 -0.1910 -0.3603
   45DOPE  H18Z 5805   5.732   7.191   4.868  0.1284  0.8737  0.7014
   46DOPE     N 5806   5.193   7.266   2.898  0.2627  0.3165  0.6254
   46DOPE   HN1 5807   5.185   7.191   2.827 -0.7406 -0.2127  1.2803
   46DOPE   HN2 5808   5.134   7.238   2.978 -0.0708 -1.1022 -0.0869
   46DOPE   HN3 5809   5.163   7.361   2.865 -0.1315 -0.1000 -0.2679
   46DOPE   C12 5810   5.327   7.262   2.960  0.2305 -0.4372  0.0031
   46DOPE  H12A 5811   5.316   7.277   3.069  0.7030 -1.7597  0.2426
   46DOPE  H12B 5812   5.387   7.349   2.924  0.0547  0.5043  1.8797
   46DOPE   C11 5813   5.404   7.127   2.941  0.0450 -0.9246 -0.3238
   46DOPE  H11A 5814   5.502   7.140   2.992 -1.1601  0.5636  1.8335
   46DOPE  H11B 5815   5.411   7.116   2.831 -0.9784  1.6023 -0.7267
   46DOPE     P 5816   5.362   6.863   2.968  0.4386  0.1744 -0.1877
   46DOPE   O13 5817   5.495   6.851   2.908 -0.1523  0.0083 -0.1434
   46DOPE   O14 5818   5.250   6.801   2.890 -0.2869  1.1418 -0.2380
   46DOPE   O11 5819   5.373   6.807   3.116 -0.2210  0.0108 -0.6884
   46DOPE   O12 5820   5.327   7.018   2.997  0.3588  0.2777  0.0311
   46DOPE    C1 5821   5.260   6.818   3.210 -0.6080  0.5805 -0.4880
   46DOPE    HA 5822   5.162   6.833   3.160 -0.1514  1.9937 -1.0114
   46DOPE    HB 5823   5.273   6.917   3.260  0.8620  0.2011 -0.0473
   46DOPE    C2 5824   5.265   6.709   3.316  0.4277 -0.4346 -0.1774
   46DOPE    HS 5825   5.185   6.723   3.393  0.2553 -1.5082 -0.1457
   46DOPE   O21 5826   5.401   6.703   3.370  0.4390 -0.0804 -0.3402
   46DOPE   C21 5827   5.411   6.747   3.496 -0.4543  0.3222 -0.3342
   46DOPE   O22 5828   5.317   6.796   3.561  0.3270 -0.3519  0.4772
   46DOPE   C22 5829   5.556   6.734   3.545 -0.1959 -0.4924  0.0328
   46DOPE   H2R 5830   5.624   6.729   3.457 -0.1327  0.2932  0.0287
   46DOPE   H2S 5831   5.578   6.648   3.611 -0.1553  0.4048  1.2106
   46DOPE    C3 5832   5.233   6.569   3.244 -0.1608  0.4133 -0.3032
   46DOPE    HX 5833   5.308   6.547   3.164 -0.8783  1.1407 -1.2064
   46DOPE    HY 5834   5.136   6.576   3.191  0.4221  0.8128 -1.3620
   46DOPE   O31 5835   5.222   6.470   3.340  0.7306 -0.1906 -0.0916
   46DOPE   C31 5836   5.326   6.388   3.364  0.3035  0.2122  0.3716
   46DOPE   O32 5837   5.428   6.390   3.305 -0.6498  0.0961  0.1550
   46DOPE   C32 5838   5.302   6.312   3.494 -0.0244 -0.0569  0.0770
   46DOPE   H2X 5839   5.218   6.365   3.543 -0.3077  0.2168 -0.7005
   46DOPE   H2Y 5840   5.278   6.207   3.465  2.8955 -0.0007 -3.0993
   46DOPE   C23 5841   5.606   6.858   3.632 -1.1321  0.2530  0.0141
   46DOPE   H3R 5842   5.541   6.876   3.720 -0.8153  1.9635 -0.0566
   46DOPE   H3S 5843   5.596   6.945   3.563 -4.5682  0.3152  0.4550
   46DOPE   C24 5844   5.752   6.829   3.674  0.0894 -1.0945 -0.3715
   46DOPE   H4R 5845   5.816   6.824   3.584  1.0905  3.5691 -0.2131
   46DOPE   H4S 5846   5.761   6.742   3.741  0.9622  0.1923  1.2643
   46DOPE   C25 5847   5.805   6.955   3.752 -0.0321 -0.0880 -0.3041
   46DOPE   H5R 5848   5.736   6.963   3.838 -0.6530 -1.4825 -0.6439
   46DOPE   H5S 5849   5.798   7.043   3.684  2.8301  1.7895  1.6015
   46DOPE   C26 5850   5.945   6.933   3.811  0.4311 -0.3444  0.2993
   46DOPE   H6R 5851   6.015   6.908   3.728 -0.6104 -0.8534 -0.4588
   46DOPE   H6S 5852   5.932   6.839   3.869 -0.4574  0.5543  1.6024
   46DOPE   C27 5853   5.994   7.047   3.896  1.1715  0.0431  0.2209
   46DOPE   H7R 5854   5.906   7.065   3.961 -0.3638 -2.7145 -0.9329
   46DOPE   H7S 5855   6.005   7.132   3.825  0.1985 -0.1046 -0.1288
   46DOPE   C28 5856   6.127   7.021   3.975 -0.2248 -0.7787 -0.0495
   46DOPE   H8R 5857   6.111   6.935   4.043 -0.1164 -1.2773 -0.6392
   46DOPE   H8S 5858   6.134   7.107   4.044 -0.4079  0.7280 -1.8222
   46DOPE   C29 5859   6.256   7.006   3.894 -0.2252 -0.0460 -0.3674
   46DOPE   H9R 5860   6.263   7.080   3.812 -0.7488  1.0469  0.5405
   46DOPE  C210 5861   6.358   6.925   3.926 -0.0832  0.1967  0.0671
   46DOPE  H10R 5862   6.454   6.948   3.876 -0.4787  0.9186 -0.3758
   46DOPE  C211 5863   6.355   6.823   4.040 -0.1749  0.0419 -0.3925
   46DOPE  H11R 5864   6.396   6.732   3.990 -0.6102 -0.0889 -0.5114
   46DOPE  H11S 5865   6.250   6.795   4.062 -0.4381  1.1662 -0.1919
   46DOPE  C212 5866   6.438   6.883   4.156 -0.2152 -0.4186 -0.6320
   46DOPE  H12R 5867   6.377   6.963   4.204  1.8371  0.7425  0.1778
   46DOPE  H12S 5868   6.536   6.921   4.119  0.5201 -1.9300 -0.3093
   46DOPE  C213 5869   6.458   6.778   4.260 -0.6138  0.3969 -0.5705
   46DOPE  H13R 5870   6.496   6.687   4.209 -1.5547 -1.1337  1.3157
   46DOPE  H13S 5871   6.364   6.749   4.312 -1.0403 -1.4993 -2.2905
   46DOPE  C214 5872   6.570   6.803   4.366 -0.4076  0.3088 -0.5539
   46DOPE  H14R 5873   6.569   6.905   4.409  1.5913 -0.0743  0.5411
   46DOPE  H14S 5874   6.663   6.786   4.309 -0.4663 -0.9849 -0.3112
   46DOPE  C215 5875   6.574   6.714   4.491  0.5415  0.0764  0.6525
   46DOPE  H15R 5876   6.604   6.611   4.462 -1.3190 -0.0698 -0.9663
   46DOPE  H15S 5877   6.475   6.716   4.540 -0.1867 -0.4999 -0.7548
   46DOPE  C216 5878   6.671   6.769   4.590  0.1530  0.2687 -0.1665
   46DOPE  H16R 5879   6.665   6.711   4.684 -0.3830  0.4341 -0.0965
   46DOPE  H16S 5880   6.667   6.880   4.598  0.7180  0.4259 -1.6939
   46DOPE  C217 5881   6.814   6.740   4.544  0.6656 -0.4491 -0.6218
   46DOPE  H17R 5882   6.832   6.802   4.453  1.1615  1.1825  0.5315
   46DOPE  H17S 5883   6.836   6.634   4.523 -0.3546 -0.6371 -0.7774
   46DOPE  C218 5884   6.909   6.788   4.651 -0.1270  0.1049 -0.1318
   46DOPE  H18R 5885   7.018   6.787   4.632  0.1743  1.6967  1.2780
   46DOPE  H18S 5886   6.901   6.733   4.747  2.9254 -0.8650 -0.3238
   46DOPE  H18T 5887   6.885   6.895   4.673 -2.1423  0.1237 -2.1525
   46DOPE   C33 5888   5.420   6.317   3.590 -0.4127  0.4893  0.5825
   46DOPE   H3X 5889   5.384   6.316   3.695 -0.1619 -0.0581  0.6663
   46DOPE   H3Y 5890   5.478   6.410   3.572  2.2009 -1.2056 -0.4178
   46DOPE   C34 5891   5.519   6.208   3.548  0.0406 -0.2121 -0.0112
   46DOPE   H4X 5892   5.461   6.114   3.531 -4.5573  2.4468 -0.7253
   46DOPE   H4Y 5893   5.566   6.238   3.453 -0.2073  1.0476  0.2491
   46DOPE   C35 5894   5.637   6.198   3.646 -0.3787  0.9244 -0.6996
   46DOPE   H5X 5895   5.609   6.152   3.743 -1.4168  1.9107 -0.5083
   46DOPE   H5Y 5896   5.683   6.299   3.659 -0.4563  0.6479  2.6582
   46DOPE   C36 5897   5.749   6.117   3.581  0.5704  0.2794 -0.6893
   46DOPE   H6X 5898   5.795   6.167   3.493 -0.9965  1.1409 -1.0456
   46DOPE   H6Y 5899   5.710   6.020   3.545 -1.0700  0.2503  1.0210
   46DOPE   C37 5900   5.865   6.097   3.672 -0.0323  0.4246  0.0228
   46DOPE   H7X 5901   5.832   6.040   3.761 -2.1501  2.0211  0.3254
   46DOPE   H7Y 5902   5.941   6.035   3.619  2.1151  1.1968  2.0044
   46DOPE   C38 5903   5.936   6.230   3.729  1.0771 -0.2976 -0.2892
   46DOPE   H8X 5904   5.864   6.291   3.787  1.3233  0.8020 -1.1065
   46DOPE   H8Y 5905   5.960   6.287   3.637 -2.4448 -1.3955 -2.0625
   46DOPE   C39 5906   6.063   6.195   3.802  0.1060 -0.7725  0.8242
   46DOPE   H9X 5907   6.102   6.095   3.778  0.2901 -0.2193 -1.4694
   46DOPE  C310 5908   6.141   6.279   3.871  0.0882 -0.2807  1.2556
   46DOPE  H10X 5909   6.223   6.229   3.925  1.7443 -0.2587 -1.0625
   46DOPE  C311 5910   6.108   6.425   3.899 -0.1174  0.8729 -0.1911
   46DOPE  H11X 5911   6.163   6.502   3.840  0.1969 -0.0485 -1.1138
   46DOPE  H11Y 5912   5.999   6.448   3.891 -0.7872 -2.0947 -0.6647
   46DOPE  C312 5913   6.144   6.456   4.046  0.2976  0.7665 -0.1410
   46DOPE  H12X 5914   6.106   6.558   4.066  1.1072  1.1047 -0.2899
   46DOPE  H12Y 5915   6.255   6.456   4.053  0.3271 -2.9591  3.2423
   46DOPE  C313 5916   6.100   6.354   4.155 -0.1707  0.2991 -0.1781
   46DOPE  H13X 5917   5.990   6.340   4.170  0.0313 -2.7598 -0.8885
   46DOPE  H13Y 5918   6.150   6.257   4.132 -0.2944  0.3243 -0.5682
   46DOPE  C314 5919   6.145   6.395   4.295 -0.1406 -0.2954 -0.6470
   46DOPE  H14X 5920   6.093   6.484   4.336  1.0351 -0.4492  1.3042
   46DOPE  H14Y 5921   6.249   6.433   4.286 -0.1984  0.0716  0.1687
   46DOPE  C315 5922   6.150   6.290   4.399 -0.1632 -0.3161  0.5259
   46DOPE  H15X 5923   6.206   6.330   4.487 -0.2255  1.1260 -0.0743
   46DOPE  H15Y 5924   6.212   6.207   4.358 -0.3278  0.4984 -1.4687
   46DOPE  C316 5925   6.012   6.250   4.450  0.0640  0.2328  0.2044
   46DOPE  H16X 5926   5.947   6.216   4.366 -0.1731 -0.9176  0.8301
   46DOPE  H16Y 5927   5.972   6.344   4.493  2.8407  1.6987 -0.2042
   46DOPE  C317 5928   6.020   6.136   4.558  0.1648 -0.2333 -0.3259
   46DOPE  H17X 5929   6.060   6.043   4.512  0.8594 -0.9665  1.6670
   46DOPE  H17Y 5930   6.096   6.167   4.632 -0.2987 -0.6948  0.3506
   46DOPE  C318 5931   5.877   6.105   4.616  0.1043  0.3326  0.7852
   46DOPE  H18X 5932   5.835   6.026   4.550 -0.7475  1.5094 -0.1097
   46DOPE  H18Y 5933   5.886   6.089   4.726 -0.8157  2.2545  1.1785
   46DOPE  H18Z 5934   5.811   6.194   4.611 -1.4421 -0.8470 -1.9492
   47DOPE     N 5935   3.372   5.192   2.775  0.0666 -0.0569 -0.2880
   47DOPE   HN1 5936   3.417   5.263   2.836  0.8587 -0.7660 -0.0236
   47DOPE   HN2 5937   3.327   5.238   2.693  1.1281  0.5316 -0.5554
   47DOPE   HN3 5938   3.314   5.129   2.835  1.3195 -0.1453  0.8672
   47DOPE   C12 5939   3.497   5.107   2.734 -0.1942  0.8709 -0.0491
   47DOPE  H12A 5940   3.558   5.168   2.663  3.1073 -1.1018  0.8939
   47DOPE  H12B 5941   3.459   5.021   2.676 -1.4116 -0.0637  2.0324
   47DOPE   C11 5942   3.553   5.055   2.865  0.4307  0.3332 -0.5127
   47DOPE  H11A 5943   3.619   5.121   2.925  0.1295 -1.4332  1.9411
   47DOPE  H11B 5944   3.626   4.978   2.830 -0.9416 -0.1607 -2.4854
   47DOPE     P 5945   3.447   4.855   3.001 -0.0254 -0.2134 -0.1356
   47DOPE   O13 5946   3.462   4.770   2.879 -0.2973 -0.5535 -0.2037
   47DOPE   O14 5947   3.325   4.842   3.083  0.2543 -0.5699 -0.6696
   47DOPE   O11 5948   3.580   4.844   3.088  0.1467  0.0472  0.3637
   47DOPE   O12 5949   3.446   5.000   2.945 -0.1758 -0.1779  0.9045
   47DOPE    C1 5950   3.615   4.721   3.158 -0.6461  0.2369 -0.7435
   47DOPE    HA 5951   3.718   4.732   3.198 -0.6663 -0.6559 -0.4236
   47DOPE    HB 5952   3.609   4.621   3.109  0.8012 -0.9347  1.2879
   47DOPE    C2 5953   3.530   4.701   3.288 -0.2057  0.0730  0.4844
   47DOPE    HS 5954   3.423   4.696   3.256 -0.3884  1.5048  0.7976
   47DOPE   O21 5955   3.548   4.809   3.372 -0.2626 -0.3488 -0.1593
   47DOPE   C21 5956   3.444   4.848   3.450 -0.8078  0.1166  0.7410
   47DOPE   O22 5957   3.330   4.812   3.441 -0.3228  0.2726  0.6481
   47DOPE   C22 5958   3.496   4.955   3.543  0.3948  0.5189  0.3627
   47DOPE   H2R 5959   3.431   5.044   3.527 -3.2840 -2.1995 -1.1269
   47DOPE   H2S 5960   3.602   4.978   3.522  0.6874  1.1965  2.3254
   47DOPE    C3 5961   3.554   4.566   3.369 -0.1785  0.0373  0.3335
   47DOPE    HX 5962   3.538   4.478   3.303 -1.7689  0.8985 -0.4849
   47DOPE    HY 5963   3.480   4.560   3.452 -1.7434  1.2456 -0.9130
   47DOPE   O31 5964   3.695   4.574   3.409  0.3812  0.8605 -0.0575
   47DOPE   C31 5965   3.724   4.590   3.540 -0.2890  0.2826 -0.2570
   47DOPE   O32 5966   3.650   4.571   3.633  0.5955  0.0007  0.4567
   47DOPE   C32 5967   3.874   4.630   3.556 -0.2918 -0.7180  0.4851
   47DOPE   H2X 5968   3.914   4.609   3.454 -2.1917 -1.2400 -0.2013
   47DOPE   H2Y 5969   3.870   4.740   3.567 -1.9399 -0.7807  0.8500
   47DOPE   C23 5970   3.493   4.921   3.692 -0.6809  0.5443 -0.2427
   47DOPE   H3R 5971   3.574   4.847   3.707 -0.9035  0.5851  1.4662
   47DOPE   H3S 5972   3.390   4.891   3.720  0.0264  0.4135  2.5465
   47DOPE   C24 5973   3.530   5.048   3.771  0.1660  0.0955 -0.0231
   47DOPE   H4R 5974   3.440   5.113   3.783  0.7844  1.0590 -0.4664
   47DOPE   H4S 5975   3.611   5.104   3.721 -1.8002  4.5929  1.3090
   47DOPE   C25 5976   3.574   5.015   3.911 -0.6325 -0.7497  0.1379
   47DOPE   H5R 5977   3.650   4.941   3.878  0.7046  1.6822 -2.7076
   47DOPE   H5S 5978   3.498   4.963   3.973  0.6307 -2.1664  0.5336
   47DOPE   C26 5979   3.657   5.136   3.964 -0.0310  0.2576  0.0122
   47DOPE   H6R 5980   3.610   5.236   3.962  0.7356  0.6599 -2.7553
   47DOPE   H6S 5981   3.744   5.155   3.897 -0.3498  2.2209  0.1116
   47DOPE   C27 5982   3.703   5.110   4.113 -0.9896  0.0073  0.0223
   47DOPE   H7R 5983   3.776   5.026   4.117 -2.1732 -1.2199 -2.3198
   47DOPE   H7S 5984   3.616   5.088   4.179 -1.7285 -0.9459 -1.2392
   47DOPE   C28 5985   3.756   5.243   4.178  0.0684 -0.1136  0.6439
   47DOPE   H8R 5986   3.768   5.222   4.287 -0.8000 -1.7329  0.4421
   47DOPE   H8S 5987   3.678   5.320   4.160 -0.4820 -0.6583  0.7012
   47DOPE   C29 5988   3.892   5.273   4.118 -0.2199  0.0445 -0.1165
   47DOPE   H9R 5989   3.906   5.255   4.010 -1.6377  0.5928 -0.4133
   47DOPE  C210 5990   4.002   5.286   4.191 -0.1354  0.0108  0.1141
   47DOPE  H10R 5991   4.098   5.319   4.148  0.0773 -0.7614 -0.0153
   47DOPE  C211 5992   4.032   5.263   4.342  0.4757  0.1864 -0.9504
   47DOPE  H11R 5993   3.991   5.168   4.380  2.6409  0.3174  2.1062
   47DOPE  H11S 5994   3.989   5.352   4.391  0.8147  0.0259 -0.3558
   47DOPE  C212 5995   4.186   5.245   4.364  0.3447 -0.0132  0.7568
   47DOPE  H12R 5996   4.242   5.341   4.371 -2.1196  1.4774  1.3784
   47DOPE  H12S 5997   4.227   5.174   4.289 -2.5009  0.2930 -1.2572
   47DOPE  C213 5998   4.201   5.185   4.501  0.7249  0.0393  0.3577
   47DOPE  H13R 5999   4.181   5.076   4.492  1.3072  0.0805 -1.9484
   47DOPE  H13S 6000   4.134   5.242   4.569 -0.1972  0.1205 -0.5920
   47DOPE  C214 6001   4.339   5.201   4.563 -0.5510 -0.2971  0.2738
   47DOPE  H14R 6002   4.368   5.308   4.564 -1.4762  0.0712  4.4304
   47DOPE  H14S 6003   4.412   5.141   4.503 -2.0664 -2.5134  0.5143
   47DOPE  C215 6004   4.343   5.151   4.716  0.4004 -0.1794  0.1129
   47DOPE  H15R 6005   4.316   5.247   4.765  0.8169  0.9661 -1.7858
   47DOPE  H15S 6006   4.446   5.125   4.748  0.2493  0.1386  0.8966
   47DOPE  C216 6007   4.240   5.049   4.762 -0.2650 -0.7448  0.0851
   47DOPE  H16R 6008   4.268   4.946   4.730  1.0204 -0.4521  0.2031
   47DOPE  H16S 6009   4.134   5.068   4.737 -0.1941 -0.2672  0.1439
   47DOPE  C217 6010   4.249   5.051   4.919  0.3886  0.2135  1.1541
   47DOPE  H17R 6011   4.193   5.142   4.949 -0.5610  0.2455 -0.6008
   47DOPE  H17S 6012   4.355   5.053   4.952  0.5965  0.9834  0.4722
   47DOPE  C218 6013   4.160   4.934   4.973 -0.6372 -0.3514  0.3155
   47DOPE  H18R 6014   4.051   4.950   4.957 -0.4473  1.6047  0.7248
   47DOPE  H18S 6015   4.180   4.902   5.077 -1.2058 -2.0247 -0.0562
   47DOPE  H18T 6016   4.196   4.851   4.909 -0.2832 -0.2402  0.3699
   47DOPE   C33 6017   3.954   4.563   3.673  0.4056 -0.8083  0.1191
   47DOPE   H3X 6018   4.056   4.550   3.630  1.4298  2.2358  1.3000
   47DOPE   H3Y 6019   3.916   4.465   3.705 -0.3206 -0.1490  1.3303
   47DOPE   C34 6020   3.962   4.650   3.800  0.4962 -0.2766 -0.0435
   47DOPE   H4X 6021   4.039   4.596   3.857 -0.6631 -3.5293 -1.3174
   47DOPE   H4Y 6022   3.988   4.755   3.774 -0.7996 -0.2010 -1.1507
   47DOPE   C35 6023   3.830   4.652   3.887 -0.2634  0.2203  1.0033
   47DOPE   H5X 6024   3.787   4.554   3.915 -1.0703  0.3418  0.2271
   47DOPE   H5Y 6025   3.744   4.677   3.821  1.2303 -1.0670 -1.5932
   47DOPE   C36 6026   3.838   4.751   4.009  0.8438  0.4626 -0.1869
   47DOPE   H6X 6027   3.732   4.761   4.039  0.8529 -0.2316  0.0812
   47DOPE   H6Y 6028   3.866   4.852   3.972 -1.5225  1.4002  0.3922
   47DOPE   C37 6029   3.925   4.705   4.130 -0.9052 -0.1746 -0.8865
   47DOPE   H7X 6030   3.900   4.604   4.170  0.3033  0.0297  0.5114
   47DOPE   H7Y 6031   4.027   4.689   4.088  0.5451  1.1986  1.8243
   47DOPE   C38 6032   3.943   4.826   4.233  0.4653  0.6191  0.7345
   47DOPE   H8X 6033   3.950   4.914   4.165  0.8613  0.9279  1.1734
   47DOPE   H8Y 6034   4.039   4.827   4.288  1.2499 -2.3748 -0.3964
   47DOPE   C39 6035   3.817   4.824   4.312  0.8486 -0.0296 -0.9716
   47DOPE   H9X 6036   3.736   4.890   4.279  0.9065  1.8586  2.2852
   47DOPE  C310 6037   3.793   4.750   4.419 -0.3495  0.0066  0.0173
   47DOPE  H10X 6038   3.700   4.767   4.474 -1.3476 -3.1703 -0.4746
   47DOPE  C311 6039   3.906   4.673   4.479 -0.0750  0.5150  0.3054
   47DOPE  H11X 6040   3.875   4.577   4.526  0.6625 -0.0291 -0.2896
   47DOPE  H11Y 6041   3.985   4.645   4.406 -1.8476 -0.9946 -1.1675
   47DOPE  C312 6042   3.987   4.739   4.588 -0.0461  0.2101  0.5040
   47DOPE  H12X 6043   3.927   4.780   4.672 -1.0165 -1.8444  0.8737
   47DOPE  H12Y 6044   4.019   4.836   4.543 -1.1302  0.5041  0.3461
   47DOPE  C313 6045   4.106   4.662   4.639  0.0117  0.1091 -0.0589
   47DOPE  H13X 6046   4.145   4.601   4.555  1.0754 -0.9100  1.1418
   47DOPE  H13Y 6047   4.181   4.737   4.672 -1.2301  1.7308 -0.7377
   47DOPE  C314 6048   4.074   4.579   4.769  0.5229  0.3101  0.4249
   47DOPE  H14X 6049   3.994   4.506   4.742 -0.0992  1.6782 -1.7735
   47DOPE  H14Y 6050   4.033   4.651   4.844  1.5700  1.4711 -0.0864
   47DOPE  C315 6051   4.194   4.529   4.841 -0.0783 -0.6624  0.1997
   47DOPE  H15X 6052   4.280   4.598   4.829  0.3641 -0.7408  2.4069
   47DOPE  H15Y 6053   4.228   4.434   4.796 -0.4151 -1.8437  2.2823
   47DOPE  C316 6054   4.180   4.492   4.994 -0.3546  0.0233  0.2677
   47DOPE  H16X 6055   4.267   4.433   5.028  0.8377  0.5109 -1.7357
   47DOPE  H16Y 6056   4.100   4.416   4.985  0.7155 -1.0840 -0.2439
   47DOPE  C317 6057   4.163   4.617   5.080 -0.4227  0.7921  0.5076
   47DOPE  H17X 6058   4.222   4.691   5.022  2.1825 -0.8124  0.9467
   47DOPE  H17Y 6059   4.056   4.645   5.074 -1.0538 -1.7599 -1.9696
   47DOPE  C318 6060   4.246   4.626   5.212  0.3948  0.3271 -0.0719
   47DOPE  H18X 6061   4.194   4.566   5.291  1.3251 -2.9137 -1.7220
   47DOPE  H18Y 6062   4.348   4.584   5.199  1.0949  1.9067  0.1835
   47DOPE  H18Z 6063   4.260   4.733   5.236 -0.6631  0.4959 -0.1799
   48DOPE     N 6064   0.329   0.583   2.889  0.6112 -0.2581 -0.8202
   48DOPE   HN1 6065   0.384   0.501   2.920  0.3856  0.3551  1.4100
   48DOPE   HN2 6066   0.357   0.654   2.960  1.0347 -1.6674  0.4849
   48DOPE   HN3 6067   0.226   0.583   2.903  0.8187  2.6186  2.0926
   48DOPE   C12 6068   0.370   0.629   2.754  0.5514  0.1477 -0.2111
   48DOPE  H12A 6069   0.352   0.738   2.745 -2.9096 -0.3551 -1.0675
   48DOPE  H12B 6070   0.304   0.587   2.676 -1.0740  0.6739  0.8175
   48DOPE   C11 6071   0.520   0.610   2.725  0.0787 -0.1936  0.5622
   48DOPE  H11A 6072   0.564   0.693   2.783  1.4746  1.1754 -2.2763
   48DOPE  H11B 6073   0.535   0.643   2.620 -1.0115 -0.8809  0.1679
   48DOPE     P 6074   0.732   0.461   2.724  0.0306  0.4141  0.2091
   48DOPE   O13 6075   0.774   0.535   2.598 -0.3690  0.8071  0.8139
   48DOPE   O14 6076   0.760   0.314   2.731 -0.1621  0.4438 -0.2187
   48DOPE   O11 6077   0.802   0.529   2.840  0.1045  0.2270  0.1717
   48DOPE   O12 6078   0.574   0.483   2.759 -0.2320 -0.3630 -0.8659
   48DOPE    C1 6079   0.749   0.501   2.970 -0.3440 -0.2295 -1.0904
   48DOPE    HA 6080   0.736   0.392   2.990  1.1450 -0.3189 -0.4235
   48DOPE    HB 6081   0.648   0.545   2.978 -0.1512 -0.1178  3.0150
   48DOPE    C2 6082   0.836   0.560   3.092 -0.5151  0.3372 -0.0200
   48DOPE    HS 6083   0.775   0.545   3.185 -0.9977  2.5901  0.0729
   48DOPE   O21 6084   0.876   0.695   3.084 -0.0969 -0.1741  0.0545
   48DOPE   C21 6085   0.787   0.785   3.115  0.3105  0.3345 -0.4435
   48DOPE   O22 6086   0.671   0.775   3.148  0.0513 -0.3295  0.1918
   48DOPE   C22 6087   0.854   0.927   3.107 -0.1482  0.8743 -0.0643
   48DOPE   H2R 6088   0.777   1.004   3.084 -1.9076 -1.0060 -0.7783
   48DOPE   H2S 6089   0.926   0.920   3.022 -1.4814 -1.3030 -1.1222
   48DOPE    C3 6090   0.965   0.477   3.126  0.0547 -0.8891 -0.2889
   48DOPE    HX 6091   1.046   0.489   3.052 -0.8235 -1.6255 -1.4089
   48DOPE    HY 6092   0.941   0.368   3.124  0.8300 -1.0562 -0.8278
   48DOPE   O31 6093   1.017   0.500   3.262  0.6378 -0.5708 -0.2531
   48DOPE   C31 6094   1.091   0.615   3.284  0.3612 -0.1633 -0.2609
   48DOPE   O32 6095   1.130   0.687   3.196  0.4809 -0.5779 -0.2051
   48DOPE   C32 6096   1.133   0.633   3.435  0.1334 -0.4922  0.1265
   48DOPE   H2X 6097   1.099   0.548   3.497 -0.1453 -0.7730 -0.4010
   48DOPE   H2Y 6098   1.244   0.631   3.438  0.1222 -0.3177  0.9575
   48DOPE   C23 6099   0.921   0.970   3.246 -0.8963 -0.1050 -0.5751
   48DOPE   H3R 6100   1.003   0.896   3.252 -1.0014 -0.6807 -4.0505
   48DOPE   H3S 6101   0.861   0.951   3.338 -0.5552  1.9169  0.1013
   48DOPE   C24 6102   0.975   1.108   3.246 -0.1766  0.2342 -0.1776
   48DOPE   H4R 6103   0.903   1.178   3.199  0.2635  0.1710 -0.9633
   48DOPE   H4S 6104   1.064   1.122   3.180  0.4021  1.0467  0.7510
   48DOPE   C25 6105   1.011   1.166   3.387 -0.6571 -0.6030 -0.2090
   48DOPE   H5R 6106   0.944   1.144   3.473 -0.8820  1.4902  0.2015
   48DOPE   H5S 6107   1.000   1.274   3.363 -3.1232 -0.9937 -1.1401
   48DOPE   C26 6108   1.162   1.143   3.419 -0.1337 -0.1214 -0.0436
   48DOPE   H6R 6109   1.205   1.139   3.317 -0.7193  0.5265 -0.3268
   48DOPE   H6S 6110   1.188   1.046   3.466  1.4517  0.8840  1.2758
   48DOPE   C27 6111   1.216   1.267   3.501  0.1309  0.3268 -0.0468
   48DOPE   H7R 6112   1.167   1.257   3.600 -1.1591  0.4868 -0.6463
   48DOPE   H7S 6113   1.183   1.355   3.442  0.5958  0.1880 -0.5191
   48DOPE   C28 6114   1.373   1.281   3.520 -0.6280  0.0024  0.2945
   48DOPE   H8R 6115   1.400   1.245   3.418 -2.4162 -0.0957 -0.1859
   48DOPE   H8S 6116   1.397   1.203   3.595  2.0129 -1.0019 -1.4365
   48DOPE   C29 6117   1.411   1.425   3.539 -0.8006 -0.2970 -0.7027
   48DOPE   H9R 6118   1.415   1.490   3.450  0.6161 -1.0989 -1.2476
   48DOPE  C210 6119   1.416   1.480   3.663  0.2344 -0.2903 -0.5353
   48DOPE  H10R 6120   1.438   1.588   3.665  2.4124 -0.6797 -1.0743
   48DOPE  C211 6121   1.384   1.416   3.800  0.9425 -0.3013 -0.0957
   48DOPE  H11R 6122   1.467   1.431   3.872  0.5621  0.5603  0.1808
   48DOPE  H11S 6123   1.355   1.310   3.783  1.3421 -0.4655  0.2431
   48DOPE  C212 6124   1.255   1.479   3.864  0.0766  0.3536  0.3884
   48DOPE  H12R 6125   1.176   1.472   3.786 -0.2845  0.4049  0.7432
   48DOPE  H12S 6126   1.267   1.584   3.898  1.4851 -0.0697  1.2897
   48DOPE  C213 6127   1.208   1.398   3.982  0.0314 -0.4238 -0.8649
   48DOPE  H13R 6128   1.289   1.394   4.058  1.2117  1.1001 -1.9772
   48DOPE  H13S 6129   1.189   1.295   3.947 -0.7738 -0.4749 -0.2973
   48DOPE  C214 6130   1.074   1.451   4.042  0.1497  0.1297  0.4654
   48DOPE  H14R 6131   0.994   1.427   3.970  1.6563 -1.9960 -0.5871
   48DOPE  H14S 6132   1.082   1.560   4.062 -0.7539  0.3927 -0.5549
   48DOPE  C215 6133   1.037   1.374   4.173 -0.0794  0.4373  0.2241
   48DOPE  H15R 6134   1.117   1.371   4.250 -1.3651  1.0095  1.6264
   48DOPE  H15S 6135   1.013   1.269   4.144 -0.3779  0.2268  1.1718
   48DOPE  C216 6136   0.927   1.439   4.254  0.2680 -0.3685 -0.2927
   48DOPE  H16R 6137   0.882   1.355   4.310 -0.4825 -0.7791 -1.4877
   48DOPE  H16S 6138   0.848   1.491   4.195  0.1592 -0.2699 -0.0607
   48DOPE  C217 6139   0.970   1.555   4.348 -0.3072  0.4568 -0.0934
   48DOPE  H17R 6140   1.056   1.507   4.400  0.6849  1.0830 -1.1209
   48DOPE  H17S 6141   0.883   1.573   4.415 -1.9272  2.4149 -2.5152
   48DOPE  C218 6142   1.013   1.698   4.301 -0.1857  0.1327  0.6314
   48DOPE  H18R 6143   1.099   1.682   4.231 -2.0267  1.5603 -2.1257
   48DOPE  H18S 6144   1.051   1.765   4.381  3.4495  1.7030 -2.1061
   48DOPE  H18T 6145   0.925   1.752   4.262 -1.0434 -0.9210  1.0601
   48DOPE   C33 6146   1.068   0.759   3.493 -0.0624 -1.0567  0.1056
   48DOPE   H3X 6147   0.960   0.760   3.469 -0.3444  1.8815  1.1262
   48DOPE   H3Y 6148   1.109   0.847   3.439 -0.4942 -2.3368 -2.4478
   48DOPE   C34 6149   1.100   0.779   3.644 -0.2622 -0.5438  0.4785
   48DOPE   H4X 6150   1.043   0.697   3.691  0.1508 -1.3693 -0.4271
   48DOPE   H4Y 6151   1.206   0.756   3.669 -0.1563 -2.3487 -1.3899
   48DOPE   C35 6152   1.040   0.905   3.714 -0.4134 -0.0463  0.0900
   48DOPE   H5X 6153   0.929   0.902   3.708 -0.5470 -0.2244  2.1038
   48DOPE   H5Y 6154   1.069   1.001   3.665 -1.2697  0.8436  1.2894
   48DOPE   C36 6155   1.079   0.919   3.865  0.0955  0.5044  0.1959
   48DOPE   H6X 6156   1.086   0.820   3.914 -0.5588  0.0202 -0.6689
   48DOPE   H6Y 6157   1.000   0.971   3.923  0.9050  1.1844  0.7287
   48DOPE   C37 6158   1.205   0.998   3.887  0.1553 -0.0397  0.6356
   48DOPE   H7X 6159   1.272   0.950   3.812 -3.1994 -0.8770 -2.1257
   48DOPE   H7Y 6160   1.191   1.105   3.858 -0.8239 -0.3829 -0.2192
   48DOPE   C38 6161   1.255   1.001   4.029 -0.0627  0.2816  0.3504
   48DOPE   H8X 6162   1.177   1.054   4.088 -1.5531 -1.3219 -0.1073
   48DOPE   H8Y 6163   1.348   1.061   4.026 -0.2667  0.6118  0.5633
   48DOPE   C39 6164   1.286   0.866   4.086 -0.4687 -0.1712 -0.0180
   48DOPE   H9X 6165   1.243   0.778   4.035  0.2854  0.5446 -1.9730
   48DOPE  C310 6166   1.366   0.846   4.199 -0.0762 -0.4337  0.2816
   48DOPE  H10X 6167   1.380   0.741   4.227 -2.5968 -1.0532 -0.5154
   48DOPE  C311 6168   1.458   0.937   4.271 -0.0887 -0.4600 -0.0386
   48DOPE  H11X 6169   1.558   0.890   4.259  0.2303  0.5410 -1.5341
   48DOPE  H11Y 6170   1.472   1.028   4.210 -1.1625  0.6445  1.2976
   48DOPE  C312 6171   1.417   0.970   4.418 -0.1278 -0.7299  0.6807
   48DOPE  H12X 6172   1.307   0.984   4.410 -0.5435 -3.2523  1.1212
   48DOPE  H12Y 6173   1.468   1.064   4.447  0.5136 -1.3073  1.4452
   48DOPE  C313 6174   1.449   0.867   4.526 -0.6300  0.4722  0.7967
   48DOPE  H13X 6175   1.387   0.783   4.488  0.6116 -0.3939  0.6156
   48DOPE  H13Y 6176   1.556   0.838   4.532 -0.1924  1.7713 -0.1061
   48DOPE  C314 6177   1.396   0.912   4.662  0.2084 -0.9968 -0.2864
   48DOPE  H14X 6178   1.286   0.931   4.660  0.2678 -0.5440  0.3650
   48DOPE  H14Y 6179   1.434   1.012   4.693 -2.2157  0.3684 -1.4112
   48DOPE  C315 6180   1.408   0.798   4.764  0.2515  0.1583 -0.7282
   48DOPE  H15X 6181   1.512   0.761   4.778 -0.5674 -1.4552  1.8612
   48DOPE  H15Y 6182   1.363   0.708   4.716 -0.1790 -0.2757  0.4210
   48DOPE  C316 6183   1.334   0.812   4.899 -0.5211 -0.2465 -0.0917
   48DOPE  H16X 6184   1.312   0.714   4.945  2.0171 -0.6595  0.3575
   48DOPE  H16Y 6185   1.236   0.863   4.889  0.1449  1.0330 -0.3235
   48DOPE  C317 6186   1.418   0.904   4.990  0.0113 -0.2865 -0.9331
   48DOPE  H17X 6187   1.517   0.854   4.989 -0.3765 -1.2028  1.2240
   48DOPE  H17Y 6188   1.428   1.010   4.957 -1.5073  1.4284  3.3730
   48DOPE  C318 6189   1.371   0.915   5.130  0.5945 -0.1844 -0.2000
   48DOPE  H18X 6190   1.265   0.947   5.124  0.7984  0.4979 -0.3088
   48DOPE  H18Y 6191   1.387   0.824   5.192  1.2435  1.9606  3.0423
   48DOPE  H18Z 6192   1.431   0.992   5.184 -0.8112 -1.4978  3.5688
   49DOPE     N 6193   3.182   5.040   3.246  0.0756  0.3876  0.2985
   49DOPE   HN1 6194   3.260   4.982   3.208  0.0117  0.2427  0.3867
   49DOPE   HN2 6195   3.166   5.017   3.346 -0.7119 -1.0467 -0.1292
   49DOPE   HN3 6196   3.098   5.021   3.188  0.6809  0.8154 -0.7463
   49DOPE   C12 6197   3.224   5.179   3.233 -0.1659  0.1199 -0.1118
   49DOPE  H12A 6198   3.325   5.191   3.279  0.2440  0.0431 -0.9747
   49DOPE  H12B 6199   3.150   5.247   3.279 -0.6842  1.4670 -2.7885
   49DOPE   C11 6200   3.249   5.232   3.091  0.0050  0.1880  0.0521
   49DOPE  H11A 6201   3.348   5.194   3.059 -1.2613 -1.9183 -1.6366
   49DOPE  H11B 6202   3.269   5.341   3.095 -0.3233  0.2203  1.2182
   49DOPE     P 6203   3.036   5.301   2.975  0.1154 -0.1188  0.4034
   49DOPE   O13 6204   2.915   5.239   2.916 -0.0978  0.1143  0.3152
   49DOPE   O14 6205   3.092   5.414   2.903 -0.4117 -0.2252  0.2152
   49DOPE   O11 6206   3.004   5.348   3.125 -0.1481  0.3571 -0.3059
   49DOPE   O12 6207   3.150   5.187   2.995 -0.1254  0.2952 -0.1539
   49DOPE    C1 6208   2.978   5.487   3.147 -0.2892 -0.2354  0.4698
   49DOPE    HA 6209   2.883   5.525   3.104 -0.3457  0.3247  1.0730
   49DOPE    HB 6210   3.052   5.558   3.105 -2.1844 -0.0466 -2.9142
   49DOPE    C2 6211   2.970   5.522   3.298 -0.4843 -0.7108 -0.3255
   49DOPE    HS 6212   2.941   5.629   3.296 -0.8271 -0.8032 -0.3854
   49DOPE   O21 6213   3.100   5.495   3.361 -0.0557  0.1801  0.3363
   49DOPE   C21 6214   3.154   5.581   3.438 -0.0937 -0.2037 -0.1897
   49DOPE   O22 6215   3.097   5.683   3.478  0.2978 -0.4676  0.3096
   49DOPE   C22 6216   3.302   5.558   3.463 -0.5334  0.8404  0.1585
   49DOPE   H2R 6217   3.347   5.656   3.488 -0.0084  0.9873 -1.2660
   49DOPE   H2S 6218   3.351   5.513   3.373 -1.9855  1.7707 -1.1594
   49DOPE    C3 6219   2.862   5.434   3.368 -0.0379  0.4135  0.3439
   49DOPE    HX 6220   2.896   5.330   3.381  0.2909  0.6310  1.3652
   49DOPE    HY 6221   2.767   5.433   3.310  0.2566 -0.2116 -0.1359
   49DOPE   O31 6222   2.825   5.499   3.488  0.4589  0.2512 -0.0354
   49DOPE   C31 6223   2.883   5.444   3.598  0.6041  0.4332  0.1193
   49DOPE   O32 6224   2.967   5.356   3.597  0.1917 -0.0479  0.3555
   49DOPE   C32 6225   2.842   5.528   3.714 -0.0556 -0.5844 -0.0201
   49DOPE   H2X 6226   2.913   5.613   3.726  1.3431 -1.8776  1.5085
   49DOPE   H2Y 6227   2.742   5.574   3.707  0.5130  0.7280  0.0627
   49DOPE   C23 6228   3.330   5.456   3.578  0.8427 -0.5502  0.1013
   49DOPE   H3R 6229   3.438   5.438   3.594  0.4948 -2.0387  0.9040
   49DOPE   H3S 6230   3.287   5.355   3.562 -0.7439  0.2036 -0.6481
   49DOPE   C24 6231   3.275   5.505   3.716 -0.2916  0.2342  0.4021
   49DOPE   H4R 6232   3.168   5.532   3.707 -0.7975 -1.7320  0.2087
   49DOPE   H4S 6233   3.342   5.586   3.752 -0.1656  0.2319  0.1808
   49DOPE   C25 6234   3.276   5.400   3.825  0.2001 -0.2422 -0.1466
   49DOPE   H5R 6235   3.375   5.350   3.837  0.3225 -0.3565 -1.5044
   49DOPE   H5S 6236   3.209   5.319   3.790  1.1495 -0.0355 -2.6525
   49DOPE   C26 6237   3.224   5.445   3.965  0.0596 -0.6005 -0.6929
   49DOPE   H6R 6238   3.131   5.505   3.952  0.4321  0.0508 -0.3721
   49DOPE   H6S 6239   3.302   5.515   4.001 -0.7079 -0.1933  0.2082
   49DOPE   C27 6240   3.216   5.337   4.071 -0.0545  0.8615  0.8237
   49DOPE   H7R 6241   3.141   5.258   4.050 -0.8495  1.6614  0.6070
   49DOPE   H7S 6242   3.176   5.394   4.158 -0.2534  1.3095  0.4430
   49DOPE   C28 6243   3.349   5.278   4.127 -0.0182  0.4278 -0.4738
   49DOPE   H8R 6244   3.407   5.363   4.170 -0.4198  1.1658 -1.3795
   49DOPE   H8S 6245   3.412   5.255   4.039 -0.0187  4.0159 -1.5647
   49DOPE   C29 6246   3.324   5.164   4.227  0.0286 -0.4946 -0.5627
   49DOPE   H9R 6247   3.274   5.080   4.177  1.4630 -0.1260 -2.8067
   49DOPE  C210 6248   3.347   5.170   4.364  0.3055 -0.4566  0.0351
   49DOPE  H10R 6249   3.330   5.086   4.432 -0.0065  0.5102  1.1861
   49DOPE  C211 6250   3.378   5.287   4.451 -0.8911 -0.6733  0.0188
   49DOPE  H11R 6251   3.442   5.367   4.407 -0.1287 -0.4947  1.4078
   49DOPE  H11S 6252   3.450   5.260   4.531 -0.0893  3.0384  0.7824
   49DOPE  C212 6253   3.258   5.351   4.525 -1.0032  0.2504 -0.4161
   49DOPE  H12R 6254   3.182   5.410   4.469 -1.5852 -0.3926 -0.3135
   49DOPE  H12S 6255   3.312   5.427   4.586  1.3482 -0.9045 -0.9501
   49DOPE  C213 6256   3.188   5.253   4.617 -0.0853  0.3288  0.6152
   49DOPE  H13R 6257   3.146   5.168   4.558 -1.2471 -0.9981  3.1886
   49DOPE  H13S 6258   3.106   5.302   4.674 -1.9891 -0.2340 -1.4859
   49DOPE  C214 6259   3.275   5.188   4.726 -0.7113 -0.2967  0.1889
   49DOPE  H14R 6260   3.353   5.256   4.767 -0.6538 -0.0832 -0.2761
   49DOPE  H14S 6261   3.331   5.105   4.677  0.8676  1.7294 -1.6038
   49DOPE  C215 6262   3.188   5.134   4.843  0.5544  0.0692  0.0690
   49DOPE  H15R 6263   3.117   5.056   4.808  0.4703  0.1269  0.1128
   49DOPE  H15S 6264   3.122   5.211   4.887 -1.3277 -0.7532 -1.2093
   49DOPE  C216 6265   3.256   5.074   4.969 -0.6484 -0.2008  0.5649
   49DOPE  H16R 6266   3.311   5.155   5.022 -0.6468  0.1226  0.0796
   49DOPE  H16S 6267   3.324   4.997   4.927 -1.7059 -0.8399 -0.0180
   49DOPE  C217 6268   3.154   5.001   5.057 -0.2500  0.1692  0.6361
   49DOPE  H17R 6269   3.109   4.923   4.993  0.9534 -0.9560  1.1397
   49DOPE  H17S 6270   3.075   5.071   5.092 -0.0389 -0.7332  3.1039
   49DOPE  C218 6271   3.218   4.940   5.180  0.2664 -0.1840  0.5550
   49DOPE  H18R 6272   3.125   4.935   5.241 -0.2906  3.7705  0.2436
   49DOPE  H18S 6273   3.288   5.014   5.223  0.4549  0.3296 -0.5866
   49DOPE  H18T 6274   3.272   4.849   5.145  1.2548  1.3980 -2.3808
   49DOPE   C33 6275   2.852   5.459   3.849 -0.4741 -0.1108 -0.8065
   49DOPE   H3X 6276   2.959   5.431   3.858 -0.5264 -0.1060 -0.1311
   49DOPE   H3Y 6277   2.791   5.366   3.851 -0.0777 -0.3648  0.0258
   49DOPE   C34 6278   2.811   5.541   3.968  0.4656  0.1136  0.5423
   49DOPE   H4X 6279   2.872   5.634   3.970  1.1810 -0.3553  1.3248
   49DOPE   H4Y 6280   2.705   5.568   3.952 -0.2720 -1.9798  1.4512
   49DOPE   C35 6281   2.828   5.469   4.103 -0.5331 -0.3060 -0.0362
   49DOPE   H5X 6282   2.920   5.408   4.091 -1.6042 -1.7336 -1.3264
   49DOPE   H5Y 6283   2.752   5.391   4.123  1.0677 -2.2582 -1.3051
   49DOPE   C36 6284   2.839   5.570   4.224  0.1513  0.8517 -0.0750
   49DOPE   H6X 6285   2.737   5.612   4.218 -0.8378 -1.3222  0.3968
   49DOPE   H6Y 6286   2.914   5.650   4.208  0.8502  0.4904  1.2145
   49DOPE   C37 6287   2.867   5.500   4.359 -0.7310 -0.2397 -0.5688
   49DOPE   H7X 6288   2.804   5.410   4.372 -2.5722  1.0170 -0.4325
   49DOPE   H7Y 6289   2.975   5.475   4.352 -0.8270 -0.8082 -0.0599
   49DOPE   C38 6290   2.850   5.593   4.485  0.1184  0.2203  0.1083
   49DOPE   H8X 6291   2.743   5.597   4.513  0.5853 -3.0630  3.2052
   49DOPE   H8Y 6292   2.891   5.692   4.456 -0.0846  0.1596 -0.3834
   49DOPE   C39 6293   2.933   5.545   4.603  0.2318 -0.2761 -0.4182
   49DOPE   H9X 6294   3.027   5.601   4.608 -1.5646  3.0477 -0.7154
   49DOPE  C310 6295   2.883   5.483   4.717 -0.1535 -0.6195  0.1813
   49DOPE  H10X 6296   2.952   5.456   4.799  1.7524 -0.0808 -1.1893
   49DOPE  C311 6297   2.743   5.437   4.735 -0.3051  0.1257  0.5348
   49DOPE  H11X 6298   2.686   5.523   4.777  2.1359  1.9191  0.3968
   49DOPE  H11Y 6299   2.694   5.413   4.639 -0.0227  0.1427  0.3865
   49DOPE  C312 6300   2.729   5.307   4.816  0.2466 -0.3712 -0.4357
   49DOPE  H12X 6301   2.619   5.288   4.823  0.3642 -1.8920 -2.0991
   49DOPE  H12Y 6302   2.756   5.315   4.924  0.7633  4.6646 -0.7129
   49DOPE  C313 6303   2.797   5.192   4.745  0.5046  0.1276 -0.2481
   49DOPE  H13X 6304   2.883   5.234   4.689  1.5839 -0.3256  0.9936
   49DOPE  H13Y 6305   2.842   5.116   4.813 -1.3489 -2.0054 -1.2797
   49DOPE  C314 6306   2.697   5.125   4.650 -0.5006  0.2431  0.2949
   49DOPE  H14X 6307   2.686   5.202   4.571  1.5156  0.8697  0.5712
   49DOPE  H14Y 6308   2.599   5.114   4.703 -2.0643  0.8118 -2.2972
   49DOPE  C315 6309   2.743   4.995   4.579  0.6741  0.1992  0.1193
   49DOPE  H15X 6310   2.658   4.965   4.515  0.4561  2.5972 -0.8093
   49DOPE  H15Y 6311   2.756   4.906   4.644 -3.0152 -1.5209 -1.2166
   49DOPE  C316 6312   2.870   4.998   4.498 -0.1815 -0.4144  0.3772
   49DOPE  H16X 6313   2.893   4.893   4.471 -2.6525 -0.3846 -2.3480
   49DOPE  H16Y 6314   2.954   5.048   4.551 -1.2019  0.5255  1.1446
   49DOPE  C317 6315   2.840   5.064   4.357 -0.0412 -0.1188 -0.1551
   49DOPE  H17X 6316   2.801   4.990   4.285  0.2221  1.1745 -1.6823
   49DOPE  H17Y 6317   2.760   5.138   4.381  0.1856 -0.4527  1.8630
   49DOPE  C318 6318   2.953   5.147   4.297 -0.2707 -0.6315 -0.1914
   49DOPE  H18X 6319   2.988   5.227   4.365  1.3364  0.3132 -2.0347
   49DOPE  H18Y 6320   3.046   5.087   4.284  0.3703  0.3375 -0.1078
   49DOPE  H18Z 6321   2.925   5.205   4.207 -2.1238 -1.8589 -0.4648
   50DOPE     N 6322   0.366   2.747   2.457  0.4703 -0.1824 -0.1801
   50DOPE   HN1 6323   0.427   2.820   2.499 -0.2917  1.3042 -1.5397
   50DOPE   HN2 6324   0.338   2.779   2.362  0.8314 -0.5359 -0.4143
   50DOPE   HN3 6325   0.283   2.744   2.519  0.2234 -2.3960 -0.5181
   50DOPE   C12 6326   0.436   2.612   2.448  0.3083 -0.2860 -0.5132
   50DOPE  H12A 6327   0.534   2.628   2.399 -1.1411  1.6781 -2.9770
   50DOPE  H12B 6328   0.372   2.548   2.384 -2.5425  2.0088 -0.1705
   50DOPE   C11 6329   0.445   2.567   2.600 -0.0923  0.7371  1.2415
   50DOPE  H11A 6330   0.497   2.469   2.607 -0.9385  0.1850  0.0630
   50DOPE  H11B 6331   0.339   2.545   2.622  0.0910 -2.1855 -0.2674
   50DOPE     P 6332   0.565   2.644   2.819  0.0554 -0.1776  0.2526
   50DOPE   O13 6333   0.558   2.772   2.891 -0.1172 -0.9528  0.1860
   50DOPE   O14 6334   0.700   2.590   2.792 -1.1171 -0.1204 -0.3749
   50DOPE   O11 6335   0.468   2.537   2.880  0.2893 -0.7356  0.9225
   50DOPE   O12 6336   0.485   2.667   2.687  0.2166  0.0163 -0.6290
   50DOPE    C1 6337   0.520   2.411   2.932  0.2796 -0.4890 -0.5090
   50DOPE    HA 6338   0.626   2.396   2.902  0.4454  1.1783 -0.8579
   50DOPE    HB 6339   0.457   2.327   2.894 -0.7141 -0.2902  0.6574
   50DOPE    C2 6340   0.519   2.413   3.083 -0.9703 -0.3426  0.1437
   50DOPE    HS 6341   0.593   2.488   3.118 -0.1469 -1.0108 -0.1443
   50DOPE   O21 6342   0.543   2.284   3.139  0.2065 -0.1402 -0.4876
   50DOPE   C21 6343   0.662   2.237   3.122  0.2304 -0.8805  0.2657
   50DOPE   O22 6344   0.755   2.297   3.067  0.1443  0.5967  0.0461
   50DOPE   C22 6345   0.673   2.099   3.180 -0.1863 -0.0816  0.2572
   50DOPE   H2R 6346   0.776   2.057   3.175 -0.8043 -1.9585  1.8989
   50DOPE   H2S 6347   0.609   2.036   3.114 -0.8778  0.4422  0.4201
   50DOPE    C3 6348   0.383   2.459   3.141  0.5393  0.6847  0.1829
   50DOPE    HX 6349   0.314   2.374   3.126  1.4573 -0.0448  0.0040
   50DOPE    HY 6350   0.356   2.548   3.080 -1.7854 -0.5637 -0.7444
   50DOPE   O31 6351   0.413   2.490   3.277  0.1265 -0.5806 -0.0240
   50DOPE   C31 6352   0.384   2.419   3.378  0.5627  0.0753 -0.0275
   50DOPE   O32 6353   0.324   2.313   3.375  0.4569 -0.6116  0.2815
   50DOPE   C32 6354   0.439   2.498   3.497 -0.4991  0.3461  1.2356
   50DOPE   H2X 6355   0.532   2.553   3.470  0.1326 -0.6128  1.3979
   50DOPE   H2Y 6356   0.371   2.582   3.521  0.1173  1.5755 -1.0293
   50DOPE   C23 6357   0.623   2.086   3.324  0.0512 -0.6895  0.1696
   50DOPE   H3R 6358   0.613   1.977   3.346  0.8929 -0.5508  1.3152
   50DOPE   H3S 6359   0.529   2.140   3.347  2.3739  2.9993  1.9744
   50DOPE   C24 6360   0.727   2.129   3.429  0.7541 -0.2575 -0.1701
   50DOPE   H4R 6361   0.818   2.065   3.426  0.2032 -1.0295 -1.2331
   50DOPE   H4S 6362   0.676   2.128   3.527 -0.8462  0.7160 -0.9378
   50DOPE   C25 6363   0.770   2.276   3.402 -0.3902  0.3189 -0.2691
   50DOPE   H5R 6364   0.681   2.340   3.381 -0.0529  0.6766 -0.6331
   50DOPE   H5S 6365   0.837   2.277   3.314  1.0627  1.2536  0.7989
   50DOPE   C26 6366   0.846   2.326   3.526 -0.1829  0.0571  0.0592
   50DOPE   H6R 6367   0.935   2.260   3.539 -0.2658  0.1456  1.2120
   50DOPE   H6S 6368   0.786   2.323   3.620  1.0525 -0.9629  0.8611
   50DOPE   C27 6369   0.897   2.472   3.512 -0.2919 -0.1993  0.1488
   50DOPE   H7R 6370   0.821   2.538   3.464 -0.7883 -0.3384  0.7388
   50DOPE   H7S 6371   0.981   2.457   3.441  1.4615  0.8615  1.9089
   50DOPE   C28 6372   0.953   2.530   3.635 -0.4853 -0.4552 -0.3721
   50DOPE   H8R 6373   1.024   2.462   3.688 -0.4413 -0.3307 -0.2695
   50DOPE   H8S 6374   0.863   2.534   3.700  0.3591  2.4841  0.8120
   50DOPE   C29 6375   1.017   2.665   3.626  0.4205  0.3099  0.9178
   50DOPE   H9R 6376   1.117   2.680   3.581 -0.2132  2.2924  0.0689
   50DOPE  C210 6377   0.960   2.776   3.668 -0.3552  0.4708 -0.1785
   50DOPE  H10R 6378   1.018   2.869   3.674 -0.5166  0.5205  0.7790
   50DOPE  C211 6379   0.817   2.787   3.722 -0.3284 -0.7297 -0.8326
   50DOPE  H11R 6380   0.751   2.710   3.676 -0.9447 -1.4198  1.0918
   50DOPE  H11S 6381   0.781   2.882   3.676  2.3920  1.4039  1.0674
   50DOPE  C212 6382   0.792   2.781   3.872 -0.0347  0.4251 -0.2546
   50DOPE  H12R 6383   0.853   2.854   3.930  0.8801 -1.2914  1.0593
   50DOPE  H12S 6384   0.827   2.684   3.912  1.9878  0.9290 -0.7144
   50DOPE  C213 6385   0.647   2.819   3.906  0.4129  0.0627  0.5235
   50DOPE  H13R 6386   0.587   2.744   3.849  1.8945 -0.9681  0.2666
   50DOPE  H13S 6387   0.622   2.912   3.851  0.1700 -1.2993 -1.8348
   50DOPE  C214 6388   0.610   2.820   4.050  0.4194 -0.4308  0.2044
   50DOPE  H14R 6389   0.650   2.909   4.104 -0.4107  0.4468 -0.6015
   50DOPE  H14S 6390   0.649   2.722   4.085  0.5380 -0.4768 -0.0604
   50DOPE  C215 6391   0.457   2.805   4.060 -0.5839 -0.4423  0.5518
   50DOPE  H15R 6392   0.437   2.713   4.002 -1.5741 -0.6568  1.2017
   50DOPE  H15S 6393   0.401   2.892   4.020 -1.0714 -1.3849 -0.8625
   50DOPE  C216 6394   0.407   2.780   4.200  0.5227  0.8446  0.4250
   50DOPE  H16R 6395   0.427   2.869   4.263  2.6931 -1.9127  4.0889
   50DOPE  H16S 6396   0.463   2.693   4.241  0.6406  0.0011 -1.4313
   50DOPE  C217 6397   0.254   2.747   4.188  0.1613 -0.2475 -0.4055
   50DOPE  H17R 6398   0.207   2.831   4.132  0.1880 -1.3950 -2.2149
   50DOPE  H17S 6399   0.202   2.749   4.287  1.8369  0.1867  0.5025
   50DOPE  C218 6400   0.212   2.604   4.135  0.1877  0.1549 -0.1747
   50DOPE  H18R 6401   0.253   2.520   4.194 -0.3029  0.4239  0.5679
   50DOPE  H18S 6402   0.236   2.600   4.027  1.8653 -0.2657  0.1752
   50DOPE  H18T 6403   0.102   2.606   4.144  0.3107 -0.6667  2.1861
   50DOPE   C33 6404   0.451   2.405   3.620 -0.1784  0.1149 -0.1996
   50DOPE   H3X 6405   0.499   2.309   3.591  0.5046  0.3095  0.2735
   50DOPE   H3Y 6406   0.362   2.358   3.666  0.2927 -0.3699  0.2386
   50DOPE   C34 6407   0.524   2.461   3.744  0.1280 -0.1130  0.2727
   50DOPE   H4X 6408   0.618   2.506   3.703 -0.0571 -0.5418 -0.6643
   50DOPE   H4Y 6409   0.467   2.549   3.781 -2.1690 -2.0467  1.5737
   50DOPE   C35 6410   0.554   2.347   3.852 -0.5973 -0.3313 -0.1946
   50DOPE   H5X 6411   0.612   2.256   3.823 -0.3763 -0.7233  1.3715
   50DOPE   H5Y 6412   0.452   2.329   3.892 -0.4415  1.8032  1.2807
   50DOPE   C36 6413   0.642   2.415   3.965  0.8059 -0.1255 -0.1504
   50DOPE   H6X 6414   0.606   2.518   3.988  3.1278  0.6240  0.3800
   50DOPE   H6Y 6415   0.747   2.424   3.929  0.1454 -0.5219 -2.3611
   50DOPE   C37 6416   0.642   2.338   4.101 -0.4541  0.3898  0.4379
   50DOPE   H7X 6417   0.678   2.235   4.079  0.0452  0.9193 -1.4235
   50DOPE   H7Y 6418   0.726   2.388   4.154  1.1750  0.0551 -1.6784
   50DOPE   C38 6419   0.520   2.359   4.175  0.3409 -0.3757  0.2941
   50DOPE   H8X 6420   0.428   2.315   4.132  0.1813 -0.2000  0.4482
   50DOPE   H8Y 6421   0.501   2.468   4.190 -1.3713 -0.6746  0.5276
   50DOPE   C39 6422   0.537   2.289   4.304  0.3113  0.2114 -0.9805
   50DOPE   H9X 6423   0.525   2.180   4.295 -0.8493  0.0067  1.9375
   50DOPE  C310 6424   0.546   2.341   4.426  0.3843 -0.0777  0.3704
   50DOPE  H10X 6425   0.566   2.260   4.498  0.8865 -1.2884 -1.0878
   50DOPE  C311 6426   0.565   2.489   4.466  0.4206  0.6644  1.3458
   50DOPE  H11X 6427   0.544   2.556   4.380 -1.1790  0.0682  1.2277
   50DOPE  H11Y 6428   0.503   2.509   4.556 -0.8197 -1.4638  1.0265
   50DOPE  C312 6429   0.718   2.518   4.499  0.1402  0.4838 -0.9344
   50DOPE  H12X 6430   0.788   2.460   4.435  0.2393  1.3661 -1.6517
   50DOPE  H12Y 6431   0.722   2.458   4.592 -2.5890 -1.4225 -1.9237
   50DOPE  C313 6432   0.755   2.668   4.528  0.8484 -0.5136  0.1886
   50DOPE  H13X 6433   0.669   2.708   4.586  0.9884  2.5195 -1.5138
   50DOPE  H13Y 6434   0.851   2.668   4.584  0.8343  0.8438  0.2493
   50DOPE  C314 6435   0.784   2.751   4.406  0.0162  0.6932  0.0951
   50DOPE  H14X 6436   0.698   2.748   4.335  0.5524 -3.2205 -0.6145
   50DOPE  H14Y 6437   0.857   2.689   4.351 -1.6235  1.0760 -2.7520
   50DOPE  C315 6438   0.851   2.879   4.444  0.2622  0.3936 -1.0643
   50DOPE  H15X 6439   0.933   2.861   4.517 -1.4099 -0.6420  0.6620
   50DOPE  H15Y 6440   0.779   2.947   4.495  2.4598  1.4975  0.7756
   50DOPE  C316 6441   0.906   2.971   4.333  0.2861 -0.3146 -0.2635
   50DOPE  H16X 6442   0.826   2.983   4.257  0.5626  0.0676 -0.4949
   50DOPE  H16Y 6443   0.981   2.916   4.274  0.8778 -0.0396  0.2189
   50DOPE  C317 6444   0.951   3.109   4.385 -0.0122  0.0104 -0.0126
   50DOPE  H17X 6445   0.975   3.179   4.303  0.4037  1.3942  1.2565
   50DOPE  H17Y 6446   0.873   3.163   4.443  0.2870  0.2645  0.1551
   50DOPE  C318 6447   1.072   3.106   4.479  0.3290  0.0480 -0.5565
   50DOPE  H18X 6448   1.068   3.020   4.550 -0.8463  0.1313 -0.5051
   50DOPE  H18Y 6449   1.168   3.106   4.423 -1.5138  1.1269 -3.9548
   50DOPE  H18Z 6450   1.085   3.200   4.536 -1.2287 -0.0525  0.0153
   51DOPE     N 6451   4.383   6.887   2.493 -0.3673 -0.2001  0.4418
   51DOPE   HN1 6452   4.466   6.827   2.511 -1.2997 -0.6056  4.0830
   51DOPE   HN2 6453   4.329   6.858   2.408  0.7096 -1.9744  0.3128
   51DOPE   HN3 6454   4.412   6.985   2.475 -1.8053  0.1316 -0.2250
   51DOPE   C12 6455   4.267   6.886   2.591 -0.7988 -0.4109 -0.1355
   51DOPE  H12A 6456   4.211   6.792   2.571  0.1109 -1.1289  0.6160
   51DOPE  H12B 6457   4.201   6.970   2.560  0.9635  0.7262 -1.0029
   51DOPE   C11 6458   4.309   6.913   2.734 -0.5448  0.4130  0.0704
   51DOPE  H11A 6459   4.215   6.920   2.793 -1.7431 -1.9489 -1.4112
   51DOPE  H11B 6460   4.359   7.010   2.755 -0.4421  0.4266 -0.2384
   51DOPE     P 6461   4.327   6.679   2.851  0.4314  0.1759  0.0653
   51DOPE   O13 6462   4.423   6.563   2.856 -0.6988  0.5004 -0.2971
   51DOPE   O14 6463   4.190   6.656   2.793 -0.5691 -0.0270 -0.2405
   51DOPE   O11 6464   4.324   6.740   2.988 -0.4857  0.5148  0.2648
   51DOPE   O12 6465   4.390   6.808   2.786  0.4458 -0.5603 -0.2438
   51DOPE    C1 6466   4.451   6.783   3.058  1.1364 -0.2206  0.3618
   51DOPE    HA 6467   4.462   6.893   3.047 -0.3269 -0.0996 -0.0461
   51DOPE    HB 6468   4.541   6.735   3.012  2.2381  0.5796  1.6179
   51DOPE    C2 6469   4.439   6.744   3.208  0.2198  0.3694  0.2068
   51DOPE    HS 6470   4.434   6.633   3.199  1.8355  0.3068 -0.1739
   51DOPE   O21 6471   4.318   6.808   3.253  0.0915  0.2185  0.0982
   51DOPE   C21 6472   4.250   6.738   3.345  0.1391 -0.7969  0.3762
   51DOPE   O22 6473   4.267   6.625   3.374  0.4202  0.4696 -0.1135
   51DOPE   C22 6474   4.126   6.812   3.382  0.2466 -0.0192  0.5614
   51DOPE   H2R 6475   4.045   6.745   3.347 -0.4152  1.9126 -1.9313
   51DOPE   H2S 6476   4.126   6.908   3.327 -0.4101 -0.7221 -0.7063
   51DOPE    C3 6477   4.556   6.799   3.280  0.0561  0.3300 -0.6588
   51DOPE    HX 6478   4.575   6.906   3.254 -1.5267  0.2862 -2.1651
   51DOPE    HY 6479   4.650   6.743   3.259  0.3231  0.4673  0.1175
   51DOPE   O31 6480   4.531   6.799   3.420 -0.0233 -0.1471  0.1768
   51DOPE   C31 6481   4.554   6.684   3.490  0.3035  0.6003 -0.4331
   51DOPE   O32 6482   4.598   6.583   3.440 -0.7460  0.3026  0.0356
   51DOPE   C32 6483   4.517   6.710   3.640  0.3044  0.4141  0.1324
   51DOPE   H2X 6484   4.576   6.799   3.672  0.0617  0.4240  0.5609
   51DOPE   H2Y 6485   4.417   6.758   3.628  0.6066  1.2590  0.8440
   51DOPE   C23 6486   4.129   6.849   3.526  0.6511  0.1993 -0.1323
   51DOPE   H3R 6487   4.064   6.936   3.550 -0.7096 -1.0588  0.9274
   51DOPE   H3S 6488   4.230   6.868   3.567  1.1618 -2.8735  0.2557
   51DOPE   C24 6489   4.068   6.732   3.607 -0.1522  0.1612 -0.3676
   51DOPE   H4R 6490   4.102   6.631   3.575  1.7745  0.6961 -0.0770
   51DOPE   H4S 6491   3.958   6.733   3.591 -0.2036 -2.0658 -0.5469
   51DOPE   C25 6492   4.101   6.756   3.755 -0.2610 -0.3676 -0.7187
   51DOPE   H5R 6493   4.075   6.859   3.788  2.1267 -0.3176  1.3187
   51DOPE   H5S 6494   4.210   6.744   3.771 -0.5319 -3.2002 -0.4945
   51DOPE   C26 6495   4.030   6.645   3.824 -0.2216  0.1753 -0.0254
   51DOPE   H6R 6496   4.068   6.545   3.793 -1.0959  0.1442 -1.0695
   51DOPE   H6S 6497   3.923   6.639   3.791 -0.3190  1.4873  0.0075
   51DOPE   C27 6498   4.019   6.664   3.978  0.2437 -0.5231 -0.2461
   51DOPE   H7R 6499   3.978   6.766   3.994  1.0949 -0.3237  0.7002
   51DOPE   H7S 6500   4.119   6.668   4.024  0.7827  1.0399 -1.4738
   51DOPE   C28 6501   3.927   6.558   4.050 -0.4581  0.6200  0.0923
   51DOPE   H8R 6502   3.821   6.549   4.018 -1.1068 -1.0944  2.3958
   51DOPE   H8S 6503   3.919   6.594   4.155 -0.3139 -0.4919  0.5025
   51DOPE   C29 6504   3.990   6.418   4.039  0.2865  0.1415 -0.1435
   51DOPE   H9R 6505   3.996   6.381   3.936 -1.9946 -0.6092 -0.0560
   51DOPE  C210 6506   4.047   6.349   4.139 -0.8991 -0.3324  0.1341
   51DOPE  H10R 6507   4.098   6.258   4.102 -0.7691  0.2662 -1.2131
   51DOPE  C211 6508   4.055   6.383   4.281 -0.2272 -0.5520 -0.2906
   51DOPE  H11R 6509   4.023   6.298   4.345 -0.1166 -0.3306  0.0653
   51DOPE  H11S 6510   3.988   6.465   4.313 -1.6443 -1.6292 -0.3936
   51DOPE  C212 6511   4.184   6.436   4.341  0.0115 -0.0183 -0.1945
   51DOPE  H12R 6512   4.263   6.363   4.311  0.8608  1.4386 -1.6533
   51DOPE  H12S 6513   4.174   6.436   4.451  2.0754 -1.0572  0.0340
   51DOPE  C213 6514   4.235   6.584   4.307  0.0171  0.5886 -0.0432
   51DOPE  H13R 6515   4.176   6.664   4.357 -3.8884 -1.3264 -1.2037
   51DOPE  H13S 6516   4.228   6.595   4.197  0.0716 -2.8633 -0.4989
   51DOPE  C214 6517   4.380   6.605   4.350 -0.5017 -0.3100  0.0205
   51DOPE  H14R 6518   4.441   6.533   4.292 -0.1066  1.6895 -2.1780
   51DOPE  H14S 6519   4.386   6.576   4.457 -1.8112  1.9027  0.7654
   51DOPE  C215 6520   4.441   6.748   4.325  1.2785 -0.2107 -0.2930
   51DOPE  H15R 6521   4.360   6.820   4.350  1.9029  0.2767  0.3571
   51DOPE  H15S 6522   4.441   6.752   4.214 -1.8283 -1.1647 -0.4324
   51DOPE  C216 6523   4.571   6.779   4.397 -0.3618 -0.4538  0.3300
   51DOPE  H16R 6524   4.603   6.880   4.365 -1.3087  0.1918  1.3522
   51DOPE  H16S 6525   4.643   6.712   4.345 -1.3029 -0.9734 -0.3428
   51DOPE  C217 6526   4.569   6.759   4.546 -0.0058 -0.4210 -0.2646
   51DOPE  H17R 6527   4.521   6.665   4.578  2.1066 -1.3003  0.5188
   51DOPE  H17S 6528   4.497   6.839   4.573  0.2037 -0.2952 -0.0685
   51DOPE  C218 6529   4.715   6.762   4.611 -0.4358  0.1647  0.1894
   51DOPE  H18R 6530   4.712   6.827   4.701  1.9708  1.6523 -0.7169
   51DOPE  H18S 6531   4.787   6.802   4.537  1.0975 -1.9772  0.4361
   51DOPE  H18T 6532   4.738   6.657   4.640 -3.4273 -0.5382  0.3597
   51DOPE   C33 6533   4.527   6.588   3.737 -0.0181 -0.0418 -0.4425
   51DOPE   H3X 6534   4.485   6.615   3.836 -1.6581 -0.9940 -0.8397
   51DOPE   H3Y 6535   4.633   6.557   3.750  0.7747  1.9512 -1.5441
   51DOPE   C34 6536   4.434   6.477   3.698  0.3577  0.1778  0.0381
   51DOPE   H4X 6537   4.335   6.509   3.660 -0.9824 -3.0853  0.4512
   51DOPE   H4Y 6538   4.475   6.423   3.611 -2.4718 -1.3925 -0.4499
   51DOPE   C35 6539   4.415   6.365   3.808  0.0069 -0.1437  0.9309
   51DOPE   H5X 6540   4.357   6.408   3.892 -0.4400 -1.0698  1.1040
   51DOPE   H5Y 6541   4.517   6.330   3.835 -1.4340 -2.6179  3.7825
   51DOPE   C36 6542   4.357   6.245   3.736 -0.7365  0.4199  0.5653
   51DOPE   H6X 6543   4.393   6.249   3.631  0.6658  3.6963  1.0555
   51DOPE   H6Y 6544   4.248   6.264   3.746 -0.6599  1.0557  0.1786
   51DOPE   C37 6545   4.392   6.124   3.827 -0.5233 -0.0861 -0.2889
   51DOPE   H7X 6546   4.381   6.028   3.773  1.6758 -1.1686  1.0693
   51DOPE   H7Y 6547   4.499   6.135   3.854 -0.8100  0.3332  0.7495
   51DOPE   C38 6548   4.294   6.131   3.946  0.3283  0.1292  0.2752
   51DOPE   H8X 6549   4.189   6.136   3.909 -0.0176 -1.0848  0.9940
   51DOPE   H8Y 6550   4.311   6.221   4.009 -1.0670  2.2489 -2.1799
   51DOPE   C39 6551   4.301   6.006   4.031  0.3025  0.5950  0.3764
   51DOPE   H9X 6552   4.302   5.913   3.972 -2.2752  0.5318  0.2839
   51DOPE  C310 6553   4.321   5.994   4.160  0.0807  0.0444 -0.6336
   51DOPE  H10X 6554   4.334   5.892   4.200 -0.4680  0.1760 -0.1087
   51DOPE  C311 6555   4.345   6.102   4.268  0.1079  0.3286  0.3229
   51DOPE  H11X 6556   4.395   6.187   4.217 -2.2335  1.6049  0.0419
   51DOPE  H11Y 6557   4.249   6.131   4.315  0.8491  0.3890  1.8781
   51DOPE  C312 6558   4.442   6.058   4.380 -0.4415 -0.0195  0.1887
   51DOPE  H12X 6559   4.543   6.048   4.334 -0.9343 -1.8190 -0.6195
   51DOPE  H12Y 6560   4.418   5.956   4.416 -2.0328  0.3230  0.1977
   51DOPE  C313 6561   4.463   6.158   4.499  0.2723 -0.0414  0.3506
   51DOPE  H13X 6562   4.533   6.115   4.574 -0.3540 -1.2708  0.2413
   51DOPE  H13Y 6563   4.496   6.259   4.466  0.0892 -0.3626 -0.8490
   51DOPE  C314 6564   4.332   6.189   4.571 -0.2829  0.3328  0.0482
   51DOPE  H14X 6565   4.289   6.087   4.580 -3.5772  1.4584 -1.4974
   51DOPE  H14Y 6566   4.259   6.259   4.525 -1.0403 -1.3069 -1.3383
   51DOPE  C315 6567   4.347   6.241   4.715 -0.1571 -0.9746 -0.0984
   51DOPE  H15X 6568   4.401   6.156   4.763  0.2080  0.8070  2.9722
   51DOPE  H15Y 6569   4.244   6.244   4.757  0.0879 -1.4706  0.5584
   51DOPE  C316 6570   4.446   6.359   4.731  0.3865 -0.0433  0.7048
   51DOPE  H16X 6571   4.426   6.449   4.668 -0.5213 -1.3445 -0.9396
   51DOPE  H16Y 6572   4.539   6.311   4.693 -0.1913  0.0079 -0.8626
   51DOPE  C317 6573   4.478   6.395   4.877 -0.4946 -0.1257  0.3085
   51DOPE  H17X 6574   4.394   6.443   4.930  1.0885  1.6352  1.3592
   51DOPE  H17Y 6575   4.500   6.302   4.934 -0.8471  0.4558  1.4130
   51DOPE  C318 6576   4.597   6.488   4.874 -0.0675 -0.2032  0.4972
   51DOPE  H18X 6577   4.682   6.457   4.809 -1.2208  0.3957 -1.3721
   51DOPE  H18Y 6578   4.557   6.586   4.843  1.1578 -0.0621 -0.6975
   51DOPE  H18Z 6579   4.636   6.494   4.978  1.0152 -0.0902  0.0856
   52DOPE     N 6580   7.201   2.893   3.209  0.7881  0.1271 -0.5944
   52DOPE   HN1 6581   7.191   2.944   3.299 -0.1321 -1.1737  0.0767
   52DOPE   HN2 6582   7.302   2.909   3.191  1.1066  1.5516  1.8766
   52DOPE   HN3 6583   7.134   2.926   3.137  0.3355  0.6794  0.0596
   52DOPE   C12 6584   7.177   2.744   3.225  0.1035  0.3740  0.3322
   52DOPE  H12A 6585   7.194   2.690   3.130 -0.2485 -0.2919  0.6447
   52DOPE  H12B 6586   7.068   2.732   3.246  0.4013 -1.2934  1.0832
   52DOPE   C11 6587   7.269   2.680   3.331  0.2077 -0.3891 -0.3123
   52DOPE  H11A 6588   7.246   2.723   3.431  0.1179 -1.4986  0.1515
   52DOPE  H11B 6589   7.372   2.716   3.311 -0.3913  1.6402 -0.0128
   52DOPE     P 6590   7.146   2.465   3.411 -0.6026 -0.1614  0.2406
   52DOPE   O13 6591   7.200   2.354   3.492  0.5278 -0.1393 -0.8492
   52DOPE   O14 6592   7.050   2.422   3.308  0.0644 -0.1879  0.0354
   52DOPE   O11 6593   7.080   2.573   3.510  0.0951 -0.1079  0.0749
   52DOPE   O12 6594   7.265   2.539   3.338  0.1418 -0.3109 -0.1524
   52DOPE    C1 6595   6.939   2.571   3.528 -0.3003  0.1098 -0.0487
   52DOPE    HA 6596   6.886   2.477   3.502  0.0026 -0.6338  1.8191
   52DOPE    HB 6597   6.896   2.658   3.474  0.0948  0.9963  1.0173
   52DOPE    C2 6598   6.890   2.581   3.673  0.3808 -0.4341 -0.0261
   52DOPE    HS 6599   6.913   2.679   3.720 -2.2806 -0.5333  1.7106
   52DOPE   O21 6600   6.943   2.478   3.752  0.2419 -0.1564  0.4825
   52DOPE   C21 6601   7.013   2.507   3.860  0.4689  0.5783 -0.2564
   52DOPE   O22 6602   7.039   2.620   3.891 -0.0975 -0.8435  0.3927
   52DOPE   C22 6603   7.065   2.389   3.933  0.1505 -0.1159  0.1355
   52DOPE   H2R 6604   7.173   2.392   3.957  0.3751 -0.7608 -0.7290
   52DOPE   H2S 6605   7.051   2.302   3.864 -3.2563  0.2386  0.1857
   52DOPE    C3 6606   6.731   2.567   3.678  0.4952 -0.0045 -0.3189
   52DOPE    HX 6607   6.720   2.460   3.649  1.2906 -0.9387  2.5057
   52DOPE    HY 6608   6.683   2.630   3.600  1.1925  0.0860 -0.6865
   52DOPE   O31 6609   6.672   2.590   3.804 -0.4137 -0.1899 -0.1317
   52DOPE   C31 6610   6.640   2.715   3.842  0.8361  0.1348 -0.3983
   52DOPE   O32 6611   6.655   2.818   3.775 -0.3524  0.6812  0.2401
   52DOPE   C32 6612   6.574   2.710   3.983  0.2185 -0.6384 -0.4943
   52DOPE   H2X 6613   6.486   2.647   3.956  1.1287 -2.4275  0.4897
   52DOPE   H2Y 6614   6.641   2.658   4.055 -1.3834  0.8879  2.3139
   52DOPE   C23 6615   6.995   2.364   4.069  0.1123 -0.0289 -0.4194
   52DOPE   H3R 6616   7.000   2.253   4.073  0.8863 -0.0082 -0.6507
   52DOPE   H3S 6617   6.887   2.381   4.051  0.2784  0.3679 -1.1177
   52DOPE   C24 6618   7.059   2.431   4.199  0.0187 -0.7465  0.1489
   52DOPE   H4R 6619   7.079   2.540   4.186  0.2451 -0.9518 -1.5105
   52DOPE   H4S 6620   7.162   2.393   4.215  0.3111 -1.0248 -1.9894
   52DOPE   C25 6621   6.956   2.403   4.312 -0.5522  0.4740  0.1014
   52DOPE   H5R 6622   6.933   2.295   4.302  0.0407  0.1980  1.5178
   52DOPE   H5S 6623   6.859   2.456   4.297 -1.7167 -1.5372  0.0692
   52DOPE   C26 6624   7.005   2.424   4.454  0.1780 -0.5580 -0.1306
   52DOPE   H6R 6625   7.043   2.526   4.476 -1.1835 -0.5512  2.7242
   52DOPE   H6S 6626   7.095   2.364   4.479  1.9881  2.4622  1.0027
   52DOPE   C27 6627   6.896   2.397   4.562  0.0937 -0.3306  0.4202
   52DOPE   H7R 6628   6.861   2.294   4.540  1.1649  0.0550 -3.9235
   52DOPE   H7S 6629   6.814   2.470   4.544  1.1033  0.8571  0.5168
   52DOPE   C28 6630   6.939   2.431   4.707  0.1849 -0.4410  0.8119
   52DOPE   H8R 6631   6.963   2.539   4.717  1.0242 -0.4513 -0.8490
   52DOPE   H8S 6632   7.026   2.367   4.733  0.7180  0.3862  1.1193
   52DOPE   C29 6633   6.834   2.410   4.809 -0.3072  0.1726  0.1144
   52DOPE   H9R 6634   6.744   2.355   4.778 -0.0608 -0.5152  0.6117
   52DOPE  C210 6635   6.840   2.473   4.926 -0.4826  0.7469 -0.1883
   52DOPE  H10R 6636   6.747   2.480   4.984  0.4829  0.8464  1.4011
   52DOPE  C211 6637   6.950   2.561   4.983 -0.2148 -0.3796 -0.2126
   52DOPE  H11R 6638   6.901   2.659   4.996 -0.1727 -0.3820 -0.0323
   52DOPE  H11S 6639   7.036   2.571   4.913  0.2122  2.0418  0.5690
   52DOPE  C212 6640   7.005   2.505   5.119 -0.1500 -1.2830 -0.2111
   52DOPE  H12R 6641   7.054   2.409   5.091  2.3444 -0.2652  0.4114
   52DOPE  H12S 6642   6.928   2.479   5.194  0.8193  0.0572  1.2997
   52DOPE  C213 6643   7.106   2.605   5.188 -0.2024 -0.0433 -0.3984
   52DOPE  H13R 6644   7.044   2.693   5.217 -0.4226 -0.2833 -0.1424
   52DOPE  H13S 6645   7.191   2.643   5.126  0.9767 -0.9073  0.6244
   52DOPE  C214 6646   7.166   2.554   5.322 -0.6480  0.8049 -0.3330
   52DOPE  H14R 6647   7.247   2.480   5.301  1.7119  2.5472  1.8605
   52DOPE  H14S 6648   7.090   2.492   5.373  0.7486  0.6539  1.7112
   52DOPE  C215 6649   7.233   2.662   5.404  0.0935 -0.3568  0.2656
   52DOPE  H15R 6650   7.174   2.739   5.458  1.4619 -0.4682  2.0214
   52DOPE  H15S 6651   7.304   2.708   5.332 -1.0788  1.4356  0.1919
   52DOPE  C216 6652   7.330   2.605   5.511 -0.3169 -0.1413 -0.3357
   52DOPE  H16R 6653   7.400   2.541   5.453  0.0584 -1.9358  1.9946
   52DOPE  H16S 6654   7.272   2.544   5.584  2.0425 -0.0066  1.7615
   52DOPE  C217 6655   7.403   2.713   5.587 -0.3254  0.3848 -0.5753
   52DOPE  H17R 6656   7.422   2.665   5.685  1.8955  0.3337 -0.9899
   52DOPE  H17S 6657   7.332   2.795   5.611  0.6485  2.1031 -3.1322
   52DOPE  C218 6658   7.531   2.764   5.517  0.4662  0.1005  0.1019
   52DOPE  H18R 6659   7.602   2.680   5.501  0.0822 -0.0617 -0.8578
   52DOPE  H18S 6660   7.508   2.807   5.417  0.0470 -1.4225 -0.4774
   52DOPE  H18T 6661   7.585   2.841   5.576  1.8742  0.8536 -2.0277
   52DOPE   C33 6662   6.529   2.846   4.034 -0.1032 -0.4273 -0.0187
   52DOPE   H3X 6663   6.480   2.911   3.959  0.3280 -0.4562 -0.3329
   52DOPE   H3Y 6664   6.624   2.902   4.051  0.5724 -0.7711 -2.3929
   52DOPE   C34 6665   6.436   2.840   4.153 -0.8234 -0.4014 -0.1083
   52DOPE   H4X 6666   6.421   2.946   4.181  2.6010 -0.0711  1.0378
   52DOPE   H4Y 6667   6.337   2.796   4.129 -1.0207  0.0336 -0.0946
   52DOPE   C35 6668   6.496   2.762   4.274 -0.0746 -1.0837  0.0595
   52DOPE   H5X 6669   6.511   2.653   4.256  0.2842 -0.8872 -0.9184
   52DOPE   H5Y 6670   6.424   2.766   4.359  1.7874 -0.0525  1.6573
   52DOPE   C36 6671   6.629   2.822   4.329  0.1500 -0.3562 -0.8503
   52DOPE   H6X 6672   6.639   2.932   4.319  0.0695 -0.4610 -2.2862
   52DOPE   H6Y 6673   6.703   2.783   4.257 -1.0128 -2.9120 -0.7519
   52DOPE   C37 6674   6.660   2.773   4.467  0.1485 -0.4715  0.2249
   52DOPE   H7X 6675   6.590   2.812   4.544 -1.1931 -0.7555 -0.8263
   52DOPE   H7Y 6676   6.652   2.662   4.468  3.3551 -0.7962  0.2632
   52DOPE   C38 6677   6.810   2.775   4.509 -1.4075 -0.7448 -0.1341
   52DOPE   H8X 6678   6.871   2.714   4.438  0.4170 -0.1508  0.8673
   52DOPE   H8Y 6679   6.828   2.719   4.603  2.6129  0.0641 -0.2536
   52DOPE   C39 6680   6.870   2.912   4.520  0.1959 -0.1395  0.4226
   52DOPE   H9X 6681   6.913   2.960   4.431 -1.3323  2.1217  0.8123
   52DOPE  C310 6682   6.874   2.990   4.636  0.1914  0.4919  0.3273
   52DOPE  H10X 6683   6.921   3.087   4.614 -1.1870  0.2813 -4.7564
   52DOPE  C311 6684   6.813   2.955   4.773  0.1692  0.5680 -0.2213
   52DOPE  H11X 6685   6.716   2.905   4.757 -1.2478  3.0187  0.1709
   52DOPE  H11Y 6686   6.881   2.894   4.836  0.5481  0.6531 -0.5409
   52DOPE  C312 6687   6.778   3.079   4.858  0.0018  0.2618 -0.2087
   52DOPE  H12X 6688   6.705   3.144   4.804 -0.8096 -1.1548 -0.8786
   52DOPE  H12Y 6689   6.877   3.127   4.870  1.1548 -1.7006 -1.3361
   52DOPE  C313 6690   6.718   3.044   4.991 -0.2174  0.0201 -0.3935
   52DOPE  H13X 6691   6.636   2.979   4.956  0.6631 -1.0531 -0.4952
   52DOPE  H13Y 6692   6.787   2.979   5.048 -0.4971 -0.2995 -0.4196
   52DOPE  C314 6693   6.690   3.162   5.076 -0.7175 -0.3412  0.3035
   52DOPE  H14X 6694   6.627   3.232   5.017 -1.7183 -1.1382  0.4068
   52DOPE  H14Y 6695   6.779   3.223   5.100 -1.3135  0.1384  1.3204
   52DOPE  C315 6696   6.614   3.126   5.204 -0.1934 -0.1554 -0.0009
   52DOPE  H15X 6697   6.681   3.062   5.266  2.0503  1.6648 -0.4039
   52DOPE  H15Y 6698   6.523   3.066   5.182 -0.6084  0.8578 -1.0999
   52DOPE  C316 6699   6.570   3.248   5.292 -0.2331  0.2767  0.0877
   52DOPE  H16X 6700   6.646   3.329   5.288 -1.8108  1.7632 -2.9164
   52DOPE  H16Y 6701   6.561   3.223   5.400 -1.7551  1.2773  0.2153
   52DOPE  C317 6702   6.435   3.307   5.255  0.6488  0.7562  0.0439
   52DOPE  H17X 6703   6.449   3.337   5.148  0.4322 -0.3133 -0.2931
   52DOPE  H17Y 6704   6.349   3.236   5.257  1.1828  0.1184  1.2018
   52DOPE  C318 6705   6.389   3.431   5.336 -0.7453 -0.8118 -0.3564
   52DOPE  H18X 6706   6.373   3.414   5.445  0.6960 -0.3022 -0.0431
   52DOPE  H18Y 6707   6.460   3.514   5.320  2.4628 -3.1653  0.5939
   52DOPE  H18Z 6708   6.285   3.466   5.317 -1.1582 -1.2369  1.0015
   53DOPE     N 6709   7.310   5.584   2.997  0.1448  0.1358  0.5948
   53DOPE   HN1 6710   7.316   5.541   3.091  1.8733  0.5519  0.7121
   53DOPE   HN2 6711   7.266   5.677   3.007 -1.2331 -0.4044 -0.1707
   53DOPE   HN3 6712   7.251   5.527   2.932  0.6383  1.3292 -0.9828
   53DOPE   C12 6713   7.445   5.597   2.937 -0.7330 -0.1878  0.2315
   53DOPE  H12A 6714   7.430   5.624   2.830 -2.0234 -1.5407  0.0360
   53DOPE  H12B 6715   7.487   5.494   2.935 -3.1844 -1.2672  0.6741
   53DOPE   C11 6716   7.531   5.690   3.022  0.3211 -0.4217 -0.0859
   53DOPE  H11A 6717   7.495   5.795   3.029 -0.5921 -0.8417  2.0797
   53DOPE  H11B 6718   7.627   5.692   2.966 -0.0113 -2.8123 -0.8698
   53DOPE     P 6719   7.662   5.621   3.242 -0.1953 -0.4140 -0.0236
   53DOPE   O13 6720   7.735   5.746   3.262 -0.5838  0.2515  0.6619
   53DOPE   O14 6721   7.739   5.498   3.208 -0.2152 -0.4828  0.8213
   53DOPE   O11 6722   7.597   5.594   3.389 -0.1260 -0.5427 -0.3377
   53DOPE   O12 6723   7.535   5.648   3.157 -0.5518  0.3322  0.3884
   53DOPE    C1 6724   7.474   5.655   3.425 -0.3201  0.7572 -0.4035
   53DOPE    HA 6725   7.448   5.607   3.521 -0.4439 -1.4255 -1.4712
   53DOPE    HB 6726   7.391   5.627   3.356  0.3090  0.2347 -0.9602
   53DOPE    C2 6727   7.482   5.810   3.460 -0.0963 -0.0811 -0.8707
   53DOPE    HS 6728   7.494   5.856   3.360  0.3632  2.4815  0.2644
   53DOPE   O21 6729   7.596   5.835   3.545 -0.6496  0.3090  0.0278
   53DOPE   C21 6730   7.640   5.962   3.543  0.3261 -0.1415  0.3381
   53DOPE   O22 6731   7.593   6.049   3.468 -0.7893  0.1569  0.0162
   53DOPE   C22 6732   7.735   5.981   3.661  0.3819 -0.2607 -0.2524
   53DOPE   H2R 6733   7.839   5.985   3.621  0.7368  1.8384  0.7101
   53DOPE   H2S 6734   7.718   5.895   3.729 -2.1635  1.6242  1.7276
   53DOPE    C3 6735   7.347   5.870   3.516 -0.8929 -0.9361 -0.7135
   53DOPE    HX 6736   7.262   5.825   3.461 -0.5063 -2.1946 -0.3171
   53DOPE    HY 6737   7.344   5.980   3.501 -2.5490 -0.9405 -0.5783
   53DOPE   O31 6738   7.317   5.829   3.653 -0.1104  0.5747  0.4603
   53DOPE   C31 6739   7.214   5.894   3.704 -0.8953  0.0355 -0.8454
   53DOPE   O32 6740   7.168   6.000   3.665  0.5314  0.0251 -0.1616
   53DOPE   C32 6741   7.178   5.826   3.842 -0.2096  0.1488  0.1474
   53DOPE   H2X 6742   7.117   5.740   3.807  1.0132 -0.5017 -0.4526
   53DOPE   H2Y 6743   7.271   5.784   3.885 -0.0490 -1.3722 -1.5461
   53DOPE   C23 6744   7.699   6.105   3.743 -0.2353  0.0711  0.3070
   53DOPE   H3R 6745   7.589   6.117   3.749 -0.3145  1.4413 -2.2698
   53DOPE   H3S 6746   7.738   6.199   3.698 -0.8717  0.4622  0.5585
   53DOPE   C24 6747   7.755   6.095   3.888 -0.3941  0.2779  0.0924
   53DOPE   H4R 6748   7.689   6.018   3.933 -0.0396 -0.9157 -1.3653
   53DOPE   H4S 6749   7.741   6.191   3.942 -0.8980 -0.1040  0.6595
   53DOPE   C25 6750   7.902   6.053   3.898  0.1106  0.5873 -0.3091
   53DOPE   H5R 6751   7.918   5.948   3.866 -0.3641 -0.0385  1.3551
   53DOPE   H5S 6752   7.918   6.057   4.008 -0.7946  1.9815 -0.1964
   53DOPE   C26 6753   8.002   6.129   3.819  0.5211 -0.0534 -0.0741
   53DOPE   H6R 6754   8.004   6.237   3.844 -2.7215  0.2212 -0.5377
   53DOPE   H6S 6755   7.986   6.119   3.709 -1.1112  0.0364  0.1227
   53DOPE   C27 6756   8.138   6.072   3.856 -0.1341 -0.1832 -0.3140
   53DOPE   H7R 6757   8.147   5.962   3.841  2.7668  0.0161 -0.5870
   53DOPE   H7S 6758   8.166   6.093   3.962  2.0212 -3.7306 -0.0056
   53DOPE   C28 6759   8.247   6.132   3.760  0.3772 -0.4445 -0.8472
   53DOPE   H8R 6760   8.211   6.237   3.753 -3.3167 -1.5131  0.1326
   53DOPE   H8S 6761   8.218   6.090   3.662  0.3017  1.3008 -1.6054
   53DOPE   C29 6762   8.395   6.117   3.786  0.1626  0.3323 -0.0576
   53DOPE   H9R 6763   8.454   6.172   3.712  0.6036 -1.0292 -0.7619
   53DOPE  C210 6764   8.469   6.050   3.873 -0.3409  0.1483  0.2975
   53DOPE  H10R 6765   8.577   6.054   3.850  0.2442 -1.0765  2.4967
   53DOPE  C211 6766   8.440   5.970   3.995  0.1947 -0.8507  0.6702
   53DOPE  H11R 6767   8.487   5.871   3.978  1.1682 -0.8186  2.8043
   53DOPE  H11S 6768   8.329   5.960   4.002  0.0181 -2.3058 -2.4378
   53DOPE  C212 6769   8.500   6.030   4.126 -0.0862  0.0774  0.8354
   53DOPE  H12R 6770   8.456   6.130   4.145  0.7419  0.7819 -0.7393
   53DOPE  H12S 6771   8.609   6.046   4.112  0.0072 -0.3872  1.0082
   53DOPE  C213 6772   8.492   5.931   4.244  0.1642 -0.0033  0.2648
   53DOPE  H13R 6773   8.565   5.851   4.216  0.5847  0.9902 -1.6437
   53DOPE  H13S 6774   8.391   5.888   4.260 -0.6048  1.6270 -0.0931
   53DOPE  C214 6775   8.545   5.995   4.376  0.3039  0.2972  0.2023
   53DOPE  H14R 6776   8.476   6.080   4.397 -0.9476 -0.6197 -0.0630
   53DOPE  H14S 6777   8.644   6.041   4.356  1.1002 -1.9645 -1.5413
   53DOPE  C215 6778   8.541   5.900   4.501  0.0866  0.4115  0.0086
   53DOPE  H15R 6779   8.606   5.812   4.485 -0.0052  0.5357 -1.0865
   53DOPE  H15S 6780   8.435   5.876   4.524 -0.1244  1.1556 -0.1455
   53DOPE  C216 6781   8.597   5.967   4.627  0.2282 -0.4768 -0.9020
   53DOPE  H16R 6782   8.586   5.903   4.716 -1.0688  0.9976  0.0459
   53DOPE  H16S 6783   8.552   6.068   4.634  0.1848 -0.5008 -0.8402
   53DOPE  C217 6784   8.748   6.000   4.610  0.5542 -0.0966 -0.0483
   53DOPE  H17R 6785   8.776   6.063   4.523  0.5076 -0.9881 -0.7270
   53DOPE  H17S 6786   8.788   5.897   4.595 -0.8395 -0.6108 -0.4789
   53DOPE  C218 6787   8.805   6.065   4.738  0.3489 -0.1497  0.5033
   53DOPE  H18R 6788   8.756   6.162   4.761 -0.2365 -0.2749 -0.1835
   53DOPE  H18S 6789   8.914   6.087   4.730 -0.1030  2.1353  0.0741
   53DOPE  H18T 6790   8.786   5.999   4.825 -1.8746 -1.6601 -1.0244
   53DOPE   C33 6791   7.101   5.911   3.946 -0.7910  0.6210  0.6916
   53DOPE   H3X 6792   7.005   5.941   3.900 -1.0438  0.8494  1.3641
   53DOPE   H3Y 6793   7.154   6.003   3.977 -1.4348  1.5133 -0.7592
   53DOPE   C34 6794   7.077   5.821   4.070 -0.2320  0.1371 -0.1808
   53DOPE   H4X 6795   7.177   5.802   4.115 -0.9209 -0.7262  1.0613
   53DOPE   H4Y 6796   7.032   5.895   4.139 -3.1705 -1.7539  0.1038
   53DOPE   C35 6797   6.991   5.694   4.059  0.2671  0.6114  0.1696
   53DOPE   H5X 6798   7.029   5.626   4.138  1.1663 -0.2598 -0.9826
   53DOPE   H5Y 6799   7.019   5.645   3.964 -0.2561  1.9437 -0.6911
   53DOPE   C36 6800   6.839   5.709   4.083 -0.0091  0.3027 -0.2839
   53DOPE   H6X 6801   6.805   5.801   4.031 -0.2879  1.1337  1.3055
   53DOPE   H6Y 6802   6.812   5.724   4.190 -2.6880 -2.3904 -0.4476
   53DOPE   C37 6803   6.765   5.590   4.034  0.3135 -0.1069  1.1776
   53DOPE   H7X 6804   6.762   5.601   3.924 -0.0830 -3.0313  0.8020
   53DOPE   H7Y 6805   6.821   5.498   4.064 -2.8767 -2.4831  0.4111
   53DOPE   C38 6806   6.623   5.573   4.100 -0.3536 -0.2322 -0.2184
   53DOPE   H8X 6807   6.627   5.588   4.210  0.7087  3.5672 -0.6032
   53DOPE   H8Y 6808   6.588   5.469   4.084  0.5920 -0.3287 -1.9529
   53DOPE   C39 6809   6.510   5.655   4.029  0.2796 -0.0174  0.3110
   53DOPE   H9X 6810   6.482   5.619   3.929 -1.5737 -2.2511  1.5508
   53DOPE  C310 6811   6.460   5.773   4.084  0.4377 -0.5329  0.5083
   53DOPE  H10X 6812   6.380   5.827   4.031 -0.8133 -1.4192  1.4401
   53DOPE  C311 6813   6.487   5.827   4.227 -0.1218  0.2335  0.1106
   53DOPE  H11X 6814   6.596   5.818   4.246 -0.3665 -1.2673  0.9632
   53DOPE  H11Y 6815   6.467   5.936   4.221 -0.2050  0.2106 -0.0297
   53DOPE  C312 6816   6.402   5.779   4.345 -0.3170 -0.3062 -0.1747
   53DOPE  H12X 6817   6.425   5.674   4.370 -2.2121 -0.4172  1.2975
   53DOPE  H12Y 6818   6.295   5.788   4.319 -0.1662  0.6603 -0.5486
   53DOPE  C313 6819   6.419   5.866   4.468 -0.7022 -0.1263  0.3260
   53DOPE  H13X 6820   6.526   5.889   4.488 -1.0844  0.8862  1.3235
   53DOPE  H13Y 6821   6.364   5.962   4.456 -2.1880 -0.5794  2.8734
   53DOPE  C314 6822   6.360   5.804   4.589 -0.7103 -0.1983 -0.2038
   53DOPE  H14X 6823   6.381   5.869   4.676  1.1632 -1.5026  0.3919
   53DOPE  H14Y 6824   6.411   5.706   4.605  0.0479  0.0152 -1.2278
   53DOPE  C315 6825   6.210   5.772   4.591  0.0957 -0.1884  0.2728
   53DOPE  H15X 6826   6.177   5.722   4.497  0.3839  0.2113 -0.0442
   53DOPE  H15Y 6827   6.167   5.873   4.571  2.7963  1.0105  0.1282
   53DOPE  C316 6828   6.165   5.722   4.728  0.3190 -0.4278  0.4128
   53DOPE  H16X 6829   6.062   5.756   4.754  0.7085 -0.3258  1.9005
   53DOPE  H16Y 6830   6.229   5.756   4.812  0.5306  0.8599 -0.2484
   53DOPE  C317 6831   6.169   5.572   4.722  0.0825  0.8525 -0.0069
   53DOPE  H17X 6832   6.102   5.521   4.649  1.5077 -0.9450 -0.1324
   53DOPE  H17Y 6833   6.269   5.539   4.686  0.3761  1.6926  0.0222
   53DOPE  C318 6834   6.150   5.504   4.854  0.3300  0.6255  0.0347
   53DOPE  H18X 6835   6.043   5.502   4.884 -0.3434  0.0175 -2.2387
   53DOPE  H18Y 6836   6.167   5.395   4.838 -1.5044  0.3718 -0.4257
   53DOPE  H18Z 6837   6.216   5.541   4.935  0.4384 -0.1038  0.2958
   54DOPE     N 6838   7.475   2.405   3.208 -0.0401  0.2581  0.1487
   54DOPE   HN1 6839   7.410   2.474   3.249  1.1880  1.6301 -0.1242
   54DOPE   HN2 6840   7.429   2.323   3.162  2.5690 -1.5169  0.4679
   54DOPE   HN3 6841   7.538   2.374   3.285 -2.2439  1.2697  2.5019
   54DOPE   C12 6842   7.564   2.473   3.113 -0.3185 -0.3782 -0.3300
   54DOPE  H12A 6843   7.504   2.525   3.035  0.5479  0.6871 -0.3134
   54DOPE  H12B 6844   7.641   2.400   3.082  0.8448 -0.7307  3.0072
   54DOPE   C11 6845   7.652   2.587   3.191 -0.0353 -0.6193 -0.0757
   54DOPE  H11A 6846   7.732   2.627   3.125  0.2969  1.4246  1.4937
   54DOPE  H11B 6847   7.698   2.544   3.282 -1.6010 -0.5407  0.7830
   54DOPE     P 6848   7.594   2.851   3.205  0.1258  0.0209 -0.2463
   54DOPE   O13 6849   7.464   2.918   3.198 -0.2357  0.4652  0.4495
   54DOPE   O14 6850   7.696   2.876   3.102  0.1956  0.6600 -0.0348
   54DOPE   O11 6851   7.659   2.900   3.345  0.5946  0.0776  0.0824
   54DOPE   O12 6852   7.575   2.693   3.230 -0.9398 -0.6094 -0.1818
   54DOPE    C1 6853   7.584   2.884   3.466 -0.4147 -0.0928 -0.2253
   54DOPE    HA 6854   7.474   2.890   3.447 -0.3092  2.4972 -0.2929
   54DOPE    HB 6855   7.613   2.961   3.540  0.2903 -0.1898 -0.4004
   54DOPE    C2 6856   7.616   2.748   3.537  0.7391  0.1267 -0.1174
   54DOPE    HS 6857   7.543   2.674   3.497 -0.1534  0.1344  1.4025
   54DOPE   O21 6858   7.590   2.765   3.680  0.1578 -0.2338 -0.5136
   54DOPE   C21 6859   7.497   2.687   3.737  0.2218 -0.1937  0.3681
   54DOPE   O22 6860   7.466   2.580   3.700 -0.7270 -0.4816  0.4213
   54DOPE   C22 6861   7.457   2.758   3.861  0.3603 -0.0966 -0.8875
   54DOPE   H2R 6862   7.358   2.715   3.886  0.7494 -0.5231 -0.0546
   54DOPE   H2S 6863   7.446   2.865   3.834  0.1866 -0.6250 -3.1256
   54DOPE    C3 6864   7.763   2.705   3.525  0.1757 -0.3652  0.8139
   54DOPE    HX 6865   7.836   2.788   3.517  0.1186 -0.4761 -1.9277
   54DOPE    HY 6866   7.775   2.656   3.426 -1.2572  1.6283 -0.4395
   54DOPE   O31 6867   7.797   2.619   3.633 -0.4975 -0.1937  0.1896
   54DOPE   C31 6868   7.755   2.499   3.629  0.5914  0.6377  0.6808
   54DOPE   O32 6869   7.699   2.440   3.534  0.1359 -0.1997  0.3174
   54DOPE   C32 6870   7.782   2.429   3.769 -0.2552 -0.2043  0.4356
   54DOPE   H2X 6871   7.880   2.471   3.799  0.1393  1.0941 -2.3519
   54DOPE   H2Y 6872   7.696   2.462   3.832 -1.9412  1.9129 -2.7386
   54DOPE   C23 6873   7.550   2.722   3.976  0.6270 -0.2563 -0.3030
   54DOPE   H3R 6874   7.543   2.819   4.030 -1.9935 -0.4603 -0.1662
   54DOPE   H3S 6875   7.649   2.719   3.925  0.3816 -1.6422 -0.7279
   54DOPE   C24 6876   7.499   2.605   4.062 -0.1949 -1.1133  0.0348
   54DOPE   H4R 6877   7.584   2.562   4.119  0.3731 -0.1087 -0.0240
   54DOPE   H4S 6878   7.464   2.520   3.998  0.6140 -2.0190  0.7758
   54DOPE   C25 6879   7.381   2.642   4.153 -0.5507  0.5612  0.1761
   54DOPE   H5R 6880   7.309   2.559   4.135 -0.3984  0.1434  1.4637
   54DOPE   H5S 6881   7.336   2.739   4.121  1.4774  1.0094 -1.5918
   54DOPE   C26 6882   7.429   2.627   4.302 -0.4161 -0.3666 -0.1691
   54DOPE   H6R 6883   7.459   2.525   4.335  0.4582  0.3667  1.4436
   54DOPE   H6S 6884   7.342   2.655   4.366  0.9217  0.3730  1.4088
   54DOPE   C27 6885   7.534   2.728   4.354  0.3722  0.2711  0.0101
   54DOPE   H7R 6886   7.480   2.825   4.349 -1.4602 -0.7665 -2.9776
   54DOPE   H7S 6887   7.621   2.730   4.285  0.4020  0.1495  0.0434
   54DOPE   C28 6888   7.591   2.702   4.498 -0.9828  0.0942  0.1858
   54DOPE   H8R 6889   7.642   2.603   4.491 -1.1844 -0.1908  2.1677
   54DOPE   H8S 6890   7.511   2.684   4.574 -0.3295  0.7860  1.0609
   54DOPE   C29 6891   7.671   2.815   4.549 -0.4994  0.2598  0.0276
   54DOPE   H9R 6892   7.614   2.909   4.556  1.5032  1.7225 -2.0591
   54DOPE  C210 6893   7.795   2.810   4.582 -0.1726 -0.0160  0.0587
   54DOPE  H10R 6894   7.849   2.902   4.609 -2.9995  1.1106  2.4072
   54DOPE  C211 6895   7.884   2.693   4.557 -0.1871 -0.2167  0.1618
   54DOPE  H11R 6896   7.986   2.735   4.541 -1.2102  1.9009 -1.2732
   54DOPE  H11S 6897   7.859   2.638   4.465  0.5240 -1.1976  0.5332
   54DOPE  C212 6898   7.887   2.582   4.661 -0.7218  0.1833 -0.5332
   54DOPE  H12R 6899   7.959   2.507   4.622  0.0557  1.0716 -0.8373
   54DOPE  H12S 6900   7.789   2.533   4.680 -0.4375  0.0865  0.7600
   54DOPE  C213 6901   7.936   2.628   4.801  0.1457 -0.2700  0.0967
   54DOPE  H13R 6902   7.870   2.705   4.847 -1.0874 -0.4720 -1.2518
   54DOPE  H13S 6903   8.032   2.682   4.803  0.3363 -0.6140  0.3021
   54DOPE  C214 6904   7.976   2.511   4.894 -0.0736  0.5248  0.1966
   54DOPE  H14R 6905   8.056   2.451   4.845  0.2986  1.2883 -0.1512
   54DOPE  H14S 6906   7.891   2.445   4.920  0.2032 -0.6633 -1.7229
   54DOPE  C215 6907   8.037   2.552   5.032  0.6131  0.0509  0.1773
   54DOPE  H15R 6908   7.970   2.630   5.074 -0.6014 -0.4399 -0.7671
   54DOPE  H15S 6909   8.135   2.603   5.027  0.3099  0.9793  2.5251
   54DOPE  C216 6910   8.018   2.431   5.128 -0.0586  0.7122  0.0991
   54DOPE  H16R 6911   8.100   2.360   5.101  1.2205  2.4684 -0.8455
   54DOPE  H16S 6912   7.914   2.393   5.118 -0.2398  1.3611 -0.5387
   54DOPE  C217 6913   8.051   2.466   5.276 -0.3453  0.4769  0.1529
   54DOPE  H17R 6914   7.983   2.541   5.322  0.9574  0.0851  2.9388
   54DOPE  H17S 6915   8.154   2.507   5.282 -0.7124  1.3686  0.4818
   54DOPE  C218 6916   8.060   2.341   5.363  0.3320  0.6214 -0.2322
   54DOPE  H18R 6917   7.974   2.274   5.338 -0.6767  1.8508 -0.1415
   54DOPE  H18S 6918   8.052   2.364   5.472 -0.0879  0.7057 -0.2768
   54DOPE  H18T 6919   8.150   2.277   5.354  0.0484 -0.0410  1.3314
   54DOPE   C33 6920   7.788   2.279   3.755 -0.3232 -0.3034  0.3387
   54DOPE   H3X 6921   7.859   2.265   3.670  0.5399 -0.2618  1.0426
   54DOPE   H3Y 6922   7.688   2.248   3.718 -0.7826  0.2967  1.0316
   54DOPE   C34 6923   7.820   2.207   3.886 -0.0362 -0.4471 -0.1200
   54DOPE   H4X 6924   7.804   2.099   3.865 -0.5895 -0.3451 -0.2298
   54DOPE   H4Y 6925   7.925   2.215   3.921 -0.5383  1.7311  1.0754
   54DOPE   C35 6926   7.722   2.241   4.003 -0.4881 -0.9859  0.7049
   54DOPE   H5X 6927   7.615   2.243   3.973 -0.1068 -0.5253 -0.7366
   54DOPE   H5Y 6928   7.752   2.344   4.032  1.9781 -1.5269  0.3246
   54DOPE   C36 6929   7.740   2.157   4.132 -0.3345 -0.3155  0.7636
   54DOPE   H6X 6930   7.721   2.052   4.101 -1.1452 -0.1025  0.5059
   54DOPE   H6Y 6931   7.654   2.184   4.198 -2.4152 -1.8766 -1.1484
   54DOPE   C37 6932   7.875   2.179   4.203  0.6915  0.4106  0.6022
   54DOPE   H7X 6933   7.952   2.160   4.125  0.2769  0.6865  0.1172
   54DOPE   H7Y 6934   7.889   2.288   4.223  0.1515  0.8056 -1.0034
   54DOPE   C38 6935   7.903   2.090   4.324 -0.1095 -0.0310 -0.0288
   54DOPE   H8X 6936   8.013   2.095   4.338 -0.0278 -0.3357 -0.5332
   54DOPE   H8Y 6937   7.879   1.990   4.282 -2.9000  0.6952 -0.3584
   54DOPE   C39 6938   7.814   2.113   4.444  0.3693 -0.4760  0.7280
   54DOPE   H9X 6939   7.710   2.133   4.411  0.5841 -2.1930 -1.2350
   54DOPE  C310 6940   7.844   2.101   4.576 -0.0017  0.8291 -0.4803
   54DOPE  H10X 6941   7.776   2.150   4.647 -1.1968 -0.5530 -0.6283
   54DOPE  C311 6942   7.977   2.072   4.632 -0.5665 -0.4420  0.2981
   54DOPE  H11X 6943   7.973   1.977   4.689  1.8880 -1.2126 -0.6765
   54DOPE  H11Y 6944   8.050   2.048   4.552  0.8506 -0.5444  1.5864
   54DOPE  C312 6945   8.049   2.175   4.726  0.7109  0.6877  0.3838
   54DOPE  H12X 6946   7.975   2.224   4.793  0.2322 -1.1436  1.2583
   54DOPE  H12Y 6947   8.084   2.255   4.656 -0.1681  0.5140 -0.2666
   54DOPE  C313 6948   8.161   2.117   4.808  0.2402  0.0284  0.4505
   54DOPE  H13X 6949   8.114   2.048   4.881 -1.5398  0.6083 -0.1159
   54DOPE  H13Y 6950   8.225   2.061   4.736 -1.9134 -0.9536 -0.7699
   54DOPE  C314 6951   8.244   2.228   4.890 -0.4295 -0.0688  0.9322
   54DOPE  H14X 6952   8.159   2.282   4.936 -0.2368  0.3512  0.8007
   54DOPE  H14Y 6953   8.305   2.297   4.828 -1.1533 -0.4203 -0.2100
   54DOPE  C315 6954   8.339   2.166   5.002 -0.5860 -0.1691  0.1103
   54DOPE  H15X 6955   8.435   2.127   4.962  0.3153 -0.3126  2.2321
   54DOPE  H15Y 6956   8.290   2.080   5.052  1.0137 -1.4049 -0.3552
   54DOPE  C316 6957   8.377   2.267   5.110  0.3822 -0.1011 -0.0996
   54DOPE  H16X 6958   8.285   2.292   5.168  1.1638 -1.0613  1.6091
   54DOPE  H16Y 6959   8.418   2.358   5.060  3.2853 -0.6773  1.0633
   54DOPE  C317 6960   8.472   2.217   5.214 -0.5327  0.6853 -0.6653
   54DOPE  H17X 6961   8.431   2.127   5.264 -0.3249  0.6828 -0.4983
   54DOPE  H17Y 6962   8.575   2.197   5.178  0.3668 -1.3978  2.5944
   54DOPE  C318 6963   8.484   2.322   5.327  0.2198  0.5034 -0.8257
   54DOPE  H18X 6964   8.491   2.420   5.275 -1.0065 -0.3861 -2.7803
   54DOPE  H18Y 6965   8.394   2.314   5.392  0.0421 -1.9466 -1.2704
   54DOPE  H18Z 6966   8.581   2.312   5.380  0.6683 -0.2102 -1.7623
   55DOPE     N 6967   2.089   3.876   3.469 -0.7561 -0.7512  0.6479
   55DOPE   HN1 6968   2.076   3.856   3.368 -1.3570  1.1840  0.2979
   55DOPE   HN2 6969   2.095   3.979   3.465  1.3162 -0.8399  0.4150
   55DOPE   HN3 6970   2.186   3.841   3.484 -1.0683 -1.8024  0.3515
   55DOPE   C12 6971   2.002   3.797   3.558  0.2244  0.9255 -0.2250
   55DOPE  H12A 6972   1.898   3.809   3.521 -1.0548 -1.5581  2.1962
   55DOPE  H12B 6973   2.014   3.832   3.663  2.7592  0.4099 -0.2562
   55DOPE   C11 6974   2.052   3.646   3.561 -0.0439 -0.2554  0.3327
   55DOPE  H11A 6975   1.983   3.579   3.616  0.2910  0.0763  1.1645
   55DOPE  H11B 6976   2.148   3.657   3.616 -0.4684 -1.4835  1.3450
   55DOPE     P 6977   2.189   3.561   3.352 -0.0523 -0.2215 -0.0377
   55DOPE   O13 6978   2.258   3.686   3.316 -0.2244  0.0430 -0.4840
   55DOPE   O14 6979   2.159   3.473   3.236  0.1323 -0.0866 -0.0031
   55DOPE   O11 6980   2.282   3.485   3.460  0.0286 -0.0718 -0.5592
   55DOPE   O12 6981   2.059   3.596   3.425  0.8625 -0.1530 -0.1037
   55DOPE    C1 6982   2.255   3.348   3.497  0.6815 -0.1901 -0.1722
   55DOPE    HA 6983   2.334   3.283   3.454  0.9199  1.3483 -2.2206
   55DOPE    HB 6984   2.154   3.315   3.464 -0.8303 -1.9273  5.1776
   55DOPE    C2 6985   2.242   3.333   3.649 -0.5112 -0.1358 -0.3238
   55DOPE    HS 6986   2.161   3.394   3.694 -0.2771 -0.0396 -0.0276
   55DOPE   O21 6987   2.375   3.370   3.707 -0.3894 -0.7253  0.9353
   55DOPE   C21 6988   2.369   3.427   3.827  0.4367  0.0974 -0.6341
   55DOPE   O22 6989   2.266   3.456   3.885  0.1537  0.4334 -0.3546
   55DOPE   C22 6990   2.512   3.453   3.883 -0.1614  0.6898 -0.6851
   55DOPE   H2R 6991   2.558   3.530   3.817 -0.8737  2.3779  0.7074
   55DOPE   H2S 6992   2.565   3.357   3.866  0.7402  0.5970  2.0877
   55DOPE    C3 6993   2.215   3.187   3.683  0.3695 -0.6883  0.5268
   55DOPE    HX 6994   2.282   3.118   3.626 -0.5258 -0.7457 -0.4900
   55DOPE    HY 6995   2.112   3.166   3.646  0.0767 -1.1430  1.5708
   55DOPE   O31 6996   2.214   3.145   3.816 -0.2049 -0.7358 -0.4025
   55DOPE   C31 6997   2.118   3.187   3.892  0.1360 -0.7828 -0.6069
   55DOPE   O32 6998   2.022   3.258   3.862 -0.1759 -0.0522 -0.1140
   55DOPE   C32 6999   2.143   3.141   4.032 -0.1211  0.4305 -0.7500
   55DOPE   H2X 7000   2.100   3.038   4.033  1.9346 -0.4850 -0.7578
   55DOPE   H2Y 7001   2.250   3.142   4.062 -0.3206 -1.0612  0.1566
   55DOPE   C23 7002   2.519   3.497   4.030 -0.1382 -0.2476  0.6313
   55DOPE   H3R 7003   2.483   3.413   4.093 -0.4722  1.3851  2.7361
   55DOPE   H3S 7004   2.455   3.587   4.037  1.0691  0.6974 -0.0602
   55DOPE   C24 7005   2.655   3.538   4.072 -0.1892  0.0944 -0.5393
   55DOPE   H4R 7006   2.652   3.537   4.183  0.0058 -2.2833 -0.5052
   55DOPE   H4S 7007   2.680   3.643   4.045 -0.0995 -0.1027 -1.2198
   55DOPE   C25 7008   2.765   3.435   4.038  0.2704  0.3065 -0.5514
   55DOPE   H5R 7009   2.778   3.420   3.929  0.9356  1.9697 -0.7277
   55DOPE   H5S 7010   2.742   3.338   4.086  0.9609  0.4279  0.0401
   55DOPE   C26 7011   2.895   3.485   4.096  0.2547 -0.2270 -0.0598
   55DOPE   H6R 7012   2.886   3.522   4.200  0.6348  2.1960 -0.8253
   55DOPE   H6S 7013   2.931   3.571   4.036  2.8113 -0.9219  0.3800
   55DOPE   C27 7014   3.006   3.379   4.080 -0.0305  0.1001  0.3631
   55DOPE   H7R 7015   3.010   3.337   3.978  0.7240 -3.4211  1.7046
   55DOPE   H7S 7016   2.971   3.291   4.138 -1.3838 -1.2516 -2.3240
   55DOPE   C28 7017   3.153   3.414   4.128 -0.3023 -0.3431  0.1860
   55DOPE   H8R 7018   3.196   3.493   4.062 -1.0325 -0.7393 -0.7918
   55DOPE   H8S 7019   3.224   3.329   4.118  0.8555  0.6845 -0.7198
   55DOPE   C29 7020   3.149   3.454   4.275  0.3012 -0.8310  0.2483
   55DOPE   H9R 7021   3.102   3.552   4.295 -0.4150 -0.6584 -2.0493
   55DOPE  C210 7022   3.208   3.385   4.377  0.1791  0.1640  0.5649
   55DOPE  H10R 7023   3.194   3.416   4.482 -0.3328 -2.2292  1.2688
   55DOPE  C211 7024   3.289   3.257   4.365 -0.1537  0.1282 -0.6542
   55DOPE  H11R 7025   3.287   3.210   4.264 -0.3383 -0.4624 -0.3758
   55DOPE  H11S 7026   3.261   3.184   4.443  2.5935 -1.5081 -1.0774
   55DOPE  C212 7027   3.442   3.283   4.386  0.2047 -0.2969  0.0789
   55DOPE  H12R 7028   3.473   3.378   4.338  1.1023  0.0805  1.3478
   55DOPE  H12S 7029   3.500   3.195   4.350 -1.1695 -1.2361  0.0822
   55DOPE  C213 7030   3.476   3.310   4.540  0.3983  1.0395  0.0261
   55DOPE  H13R 7031   3.428   3.231   4.603  2.5631  0.4890  1.1011
   55DOPE  H13S 7032   3.420   3.399   4.574  0.5704  0.7518  1.1305
   55DOPE  C214 7033   3.624   3.327   4.564  0.1293 -0.4963  0.6455
   55DOPE  H14R 7034   3.658   3.419   4.512  0.3585  0.7490  2.8567
   55DOPE  H14S 7035   3.673   3.239   4.518  1.2591 -0.0110  0.8838
   55DOPE  C215 7036   3.659   3.361   4.707  0.5736 -0.5898 -0.2326
   55DOPE  H15R 7037   3.614   3.456   4.745 -0.3975 -2.0406  2.5611
   55DOPE  H15S 7038   3.769   3.370   4.697  0.4966 -1.5200 -2.5732
   55DOPE  C216 7039   3.616   3.253   4.809  0.4394  0.1459  0.5491
   55DOPE  H16R 7040   3.508   3.230   4.797  0.7065  0.0944 -2.3773
   55DOPE  H16S 7041   3.631   3.302   4.908  1.6268 -1.3939  1.1728
   55DOPE  C217 7042   3.697   3.129   4.803 -0.1024 -0.1822 -0.0991
   55DOPE  H17R 7043   3.796   3.167   4.767 -1.4721  0.1663 -3.9231
   55DOPE  H17S 7044   3.659   3.063   4.723 -1.0306 -2.2154  1.9304
   55DOPE  C218 7045   3.699   3.058   4.935  0.3748 -0.1516 -0.1214
   55DOPE  H18R 7046   3.594   3.026   4.949 -0.0918  1.0879 -0.6096
   55DOPE  H18S 7047   3.738   3.120   5.018 -0.7384 -1.2762  1.2800
   55DOPE  H18T 7048   3.765   2.968   4.928 -1.1797 -1.2192 -2.5780
   55DOPE   C33 7049   2.078   3.222   4.153  0.1242 -0.0660  0.3046
   55DOPE   H3X 7050   2.045   3.153   4.234 -0.5849 -0.1365 -0.0367
   55DOPE   H3Y 7051   1.991   3.281   4.119 -0.3201 -1.7919 -1.7759
   55DOPE   C34 7052   2.174   3.328   4.208  0.0817 -0.1805  0.3043
   55DOPE   H4X 7053   2.275   3.282   4.219 -0.0853 -0.7242 -0.3329
   55DOPE   H4Y 7054   2.179   3.418   4.142 -1.1617  2.5273  3.6294
   55DOPE   C35 7055   2.117   3.384   4.340 -1.1362 -0.8192 -0.4001
   55DOPE   H5X 7056   2.126   3.306   4.419 -0.4096 -0.9973 -0.6543
   55DOPE   H5Y 7057   2.008   3.406   4.334 -0.9638 -0.2766 -2.0375
   55DOPE   C36 7058   2.189   3.517   4.386  0.1097 -0.7431  0.3667
   55DOPE   H6X 7059   2.296   3.503   4.357  0.1869 -0.9268  0.7334
   55DOPE   H6Y 7060   2.207   3.528   4.495  0.5581 -3.5285  0.6408
   55DOPE   C37 7061   2.130   3.643   4.313  0.4973 -0.5260 -0.6597
   55DOPE   H7X 7062   2.121   3.608   4.208  1.8955 -1.6882 -0.4196
   55DOPE   H7Y 7063   2.032   3.657   4.364  2.1703  2.3321  2.1318
   55DOPE   C38 7064   2.209   3.776   4.309  0.0641  0.3575 -0.0096
   55DOPE   H8X 7065   2.299   3.749   4.249  1.1594 -1.2090  2.1765
   55DOPE   H8Y 7066   2.238   3.800   4.413  0.1293 -2.5449  0.7273
   55DOPE   C39 7067   2.129   3.886   4.247 -0.8075 -0.2862 -0.1075
   55DOPE   H9X 7068   2.048   3.856   4.180 -0.7956  0.8837 -0.6703
   55DOPE  C310 7069   2.140   4.019   4.275 -0.4317  0.4153  0.3647
   55DOPE  H10X 7070   2.076   4.091   4.221  1.1726 -0.0180 -2.3133
   55DOPE  C311 7071   2.234   4.086   4.367 -0.0901 -0.4234 -0.3864
   55DOPE  H11X 7072   2.269   4.024   4.452 -1.0237  0.3046  0.5555
   55DOPE  H11Y 7073   2.320   4.102   4.298 -0.1665 -0.5402 -0.5112
   55DOPE  C312 7074   2.196   4.230   4.427  0.2897  0.3029 -0.0514
   55DOPE  H12X 7075   2.185   4.311   4.352 -2.7956  0.1319  0.0798
   55DOPE  H12Y 7076   2.282   4.255   4.493  1.5027 -0.1164 -1.4131
   55DOPE  C313 7077   2.064   4.228   4.506 -0.2147 -0.9851  0.1581
   55DOPE  H13X 7078   1.981   4.208   4.436 -0.3992  2.0236 -0.6254
   55DOPE  H13Y 7079   2.070   4.138   4.571 -1.0588 -1.7010 -0.7319
   55DOPE  C314 7080   2.005   4.350   4.588  0.2227  0.4682  0.5806
   55DOPE  H14X 7081   1.912   4.306   4.630 -0.1535  0.5465 -0.1590
   55DOPE  H14Y 7082   1.967   4.434   4.526  0.2812  0.4227  0.4825
   55DOPE  C315 7083   2.095   4.390   4.705  0.6486  0.0500  0.3259
   55DOPE  H15X 7084   2.179   4.452   4.668  1.4995 -0.2214  1.7139
   55DOPE  H15Y 7085   2.137   4.310   4.771 -1.7777 -0.8697  0.8801
   55DOPE  C316 7086   2.022   4.477   4.815  0.2280 -0.0473  0.5582
   55DOPE  H16X 7087   1.941   4.420   4.863 -0.7733  0.3199 -0.6364
   55DOPE  H16Y 7088   1.976   4.563   4.761 -0.0564  0.5740  1.7752
   55DOPE  C317 7089   2.108   4.541   4.924 -0.4203  0.3278 -0.1223
   55DOPE  H17X 7090   2.173   4.462   4.966 -1.9398 -1.0171 -0.2183
   55DOPE  H17Y 7091   2.178   4.609   4.872  0.0591 -1.1827 -1.5292
   55DOPE  C318 7092   2.029   4.608   5.035  0.8600  0.4258 -0.3371
   55DOPE  H18X 7093   2.085   4.641   5.124 -3.2164  0.8921  2.3274
   55DOPE  H18Y 7094   1.982   4.706   5.009 -2.3420 -0.7729  0.5085
   55DOPE  H18Z 7095   1.946   4.542   5.066 -0.0383  1.3379 -0.7292
   56DOPE     N 7096   2.552   4.191   3.389  0.7677 -0.1372  0.3454
   56DOPE   HN1 7097   2.535   4.126   3.469  1.8581 -1.4173 -0.4138
   56DOPE   HN2 7098   2.503   4.151   3.307 -0.8126  0.6016  0.8834
   56DOPE   HN3 7099   2.656   4.198   3.392  0.7426  0.3473  0.1083
   56DOPE   C12 7100   2.504   4.330   3.395 -0.5323 -0.2726  0.4338
   56DOPE  H12A 7101   2.515   4.371   3.292  1.3039 -0.7594  0.4084
   56DOPE  H12B 7102   2.576   4.394   3.451 -0.6801  2.0311 -1.8248
   56DOPE   C11 7103   2.356   4.351   3.427 -0.0390 -0.2678 -0.3881
   56DOPE  H11A 7104   2.286   4.316   3.348 -1.3499  0.7633  0.2739
   56DOPE  H11B 7105   2.342   4.460   3.445 -0.3228 -0.4748  0.7184
   56DOPE     P 7106   2.179   4.205   3.554 -0.0644  0.3710  0.3931
   56DOPE   O13 7107   2.193   4.110   3.667  0.3624  0.1414 -0.3490
   56DOPE   O14 7108   2.141   4.146   3.425 -1.0280  0.0413  0.0373
   56DOPE   O11 7109   2.079   4.316   3.598  0.2437  0.2354 -0.7003
   56DOPE   O12 7110   2.321   4.279   3.545  0.2024  0.4855  0.8652
   56DOPE    C1 7111   2.111   4.432   3.680  0.3456 -0.0917 -0.0152
   56DOPE    HA 7112   2.032   4.507   3.657  1.1880  1.4784  1.9252
   56DOPE    HB 7113   2.211   4.473   3.653  0.4068 -0.7360 -0.8219
   56DOPE    C2 7114   2.107   4.413   3.827 -0.3556  1.0632 -0.8252
   56DOPE    HS 7115   2.165   4.324   3.861 -2.1101 -0.1210 -0.8102
   56DOPE   O21 7116   1.968   4.393   3.868 -0.3766  0.2551 -1.0946
   56DOPE   C21 7117   1.949   4.307   3.967  0.7333  0.3897  0.1872
   56DOPE   O22 7118   2.030   4.264   4.043 -0.6287  0.0867 -0.0861
   56DOPE   C22 7119   1.801   4.257   3.972  0.5830  0.2427  0.4405
   56DOPE   H2R 7120   1.781   4.173   3.902  0.2306  0.4663  0.2730
   56DOPE   H2S 7121   1.733   4.336   3.933 -1.1578 -0.7056  1.4267
   56DOPE    C3 7122   2.162   4.544   3.887  0.2190 -0.1702 -0.0314
   56DOPE    HX 7123   2.102   4.617   3.828  0.1816 -0.1620  0.0167
   56DOPE    HY 7124   2.265   4.572   3.857 -0.1314  1.2740  0.0153
   56DOPE   O31 7125   2.132   4.565   4.027 -0.1380 -0.0846 -0.1194
   56DOPE   C31 7126   2.226   4.532   4.111  0.0911 -0.4872 -0.9532
   56DOPE   O32 7127   2.320   4.462   4.102 -0.1114 -0.0356 -0.4014
   56DOPE   C32 7128   2.190   4.591   4.246 -0.1020  0.0902 -0.7252
   56DOPE   H2X 7129   2.103   4.659   4.239 -1.6115 -1.7201 -0.4140
   56DOPE   H2Y 7130   2.168   4.507   4.316  2.8069  0.0948  0.3080
   56DOPE   C23 7131   1.757   4.217   4.118  0.4994  0.3020 -0.0790
   56DOPE   H3R 7132   1.823   4.147   4.174  0.8993  0.8540  0.1468
   56DOPE   H3S 7133   1.661   4.162   4.107  0.2552  0.5812  0.6067
   56DOPE   C24 7134   1.727   4.339   4.202 -0.4312 -0.5006 -0.9010
   56DOPE   H4R 7135   1.657   4.409   4.153  0.7821  1.3155 -0.1442
   56DOPE   H4S 7136   1.825   4.390   4.220 -1.1900  0.7358 -0.1588
   56DOPE   C25 7137   1.682   4.288   4.342  0.2024  0.0773 -0.2284
   56DOPE   H5R 7138   1.759   4.222   4.387 -1.1046 -1.7099 -0.5158
   56DOPE   H5S 7139   1.593   4.223   4.326  0.1545  0.0455  0.1701
   56DOPE   C26 7140   1.650   4.410   4.438  0.5459 -0.4867 -0.1458
   56DOPE   H6R 7141   1.604   4.496   4.383 -2.1434 -0.7269  1.5455
   56DOPE   H6S 7142   1.743   4.459   4.475  0.0007  1.6356 -1.3590
   56DOPE   C27 7143   1.570   4.371   4.562 -0.2405  0.3843 -0.3672
   56DOPE   H7R 7144   1.581   4.435   4.652 -0.6564 -2.0584  1.4973
   56DOPE   H7S 7145   1.603   4.269   4.589  3.1706  0.8268 -2.2319
   56DOPE   C28 7146   1.421   4.365   4.524  0.1943 -0.4469 -1.0341
   56DOPE   H8R 7147   1.419   4.324   4.421 -1.1896  0.6099 -1.4577
   56DOPE   H8S 7148   1.375   4.466   4.520  2.2632  0.5208 -1.9126
   56DOPE   C29 7149   1.354   4.269   4.623 -0.3961  0.5102  0.3678
   56DOPE   H9R 7150   1.392   4.277   4.726  1.8077  1.6340 -0.4688
   56DOPE  C210 7151   1.281   4.164   4.591  0.1468 -0.3520  0.2875
   56DOPE  H10R 7152   1.227   4.101   4.663 -0.5520 -0.3165 -0.2017
   56DOPE  C211 7153   1.235   4.127   4.452  0.0045 -0.6562 -0.5753
   56DOPE  H11R 7154   1.247   4.017   4.444  0.0390 -0.5573 -2.1516
   56DOPE  H11S 7155   1.306   4.168   4.376  0.7382  2.5989  1.6368
   56DOPE  C212 7156   1.083   4.163   4.412 -0.2907 -0.3002  0.6554
   56DOPE  H12R 7157   1.059   4.108   4.319  1.0329  0.7643 -0.3468
   56DOPE  H12S 7158   1.066   4.270   4.388  0.6415 -0.4977 -0.9943
   56DOPE  C213 7159   0.983   4.112   4.519 -0.0168  0.3448  0.4487
   56DOPE  H13R 7160   0.989   4.184   4.603 -1.4725  0.2163  0.6974
   56DOPE  H13S 7161   1.013   4.015   4.564 -0.0993  0.9132  1.7789
   56DOPE  C214 7162   0.832   4.100   4.476  0.2034 -0.2610 -0.2058
   56DOPE  H14R 7163   0.763   4.097   4.562  0.8273  2.5399  0.4896
   56DOPE  H14S 7164   0.809   4.014   4.409 -0.3848 -0.4672  0.2549
   56DOPE  C215 7165   0.784   4.230   4.399 -0.9026  0.5065  0.0239
   56DOPE  H15R 7166   0.813   4.213   4.293  1.2480  1.9337  0.3246
   56DOPE  H15S 7167   0.841   4.314   4.443 -1.8363  0.8711  0.5482
   56DOPE  C216 7168   0.632   4.238   4.412  0.3776  0.8513  0.0750
   56DOPE  H16R 7169   0.608   4.317   4.338 -0.3093 -1.2530 -2.1063
   56DOPE  H16S 7170   0.599   4.278   4.511 -3.3127 -1.5103  0.0125
   56DOPE  C217 7171   0.555   4.107   4.398  0.0071 -0.1802  0.0587
   56DOPE  H17R 7172   0.560   4.036   4.483 -0.1872  0.9476  1.0465
   56DOPE  H17S 7173   0.608   4.060   4.313 -1.5401 -0.5686 -0.7340
   56DOPE  C218 7174   0.413   4.135   4.370 -0.3569  0.1859 -0.3967
   56DOPE  H18R 7175   0.409   4.166   4.263  2.7037 -1.1070 -0.9899
   56DOPE  H18S 7176   0.371   4.222   4.424  0.2310  1.7892 -2.3804
   56DOPE  H18T 7177   0.342   4.051   4.385  0.2858 -0.6491 -1.8226
   56DOPE   C33 7178   2.313   4.666   4.299 -0.0776 -0.1193 -0.3090
   56DOPE   H3X 7179   2.339   4.751   4.233 -1.4015  0.4141 -0.1703
   56DOPE   H3Y 7180   2.399   4.596   4.307 -0.6950 -0.6831  3.1965
   56DOPE   C34 7181   2.297   4.721   4.442 -0.2736  0.2771 -0.2393
   56DOPE   H4X 7182   2.201   4.776   4.448 -0.5105  0.0706 -1.7257
   56DOPE   H4Y 7183   2.278   4.645   4.521  1.5681  0.9327  0.8935
   56DOPE   C35 7184   2.419   4.799   4.491 -0.4473  0.1943 -1.0110
   56DOPE   H5X 7185   2.447   4.880   4.421 -0.3263 -0.6707 -2.0001
   56DOPE   H5Y 7186   2.509   4.735   4.483 -1.0752 -0.8740  0.1300
   56DOPE   C36 7187   2.405   4.863   4.636  0.3650 -0.2783  0.0795
   56DOPE   H6X 7188   2.302   4.883   4.673 -0.6924 -1.4247 -2.0441
   56DOPE   H6Y 7189   2.458   4.960   4.625 -0.3916  0.0575 -0.7561
   56DOPE   C37 7190   2.480   4.776   4.738  0.3758  0.4673 -0.3328
   56DOPE   H7X 7191   2.437   4.675   4.754  2.2864 -0.1741  1.2135
   56DOPE   H7Y 7192   2.582   4.748   4.702  0.9834  0.5900  1.2114
   56DOPE   C38 7193   2.501   4.833   4.878  0.1489 -0.9163 -0.5140
   56DOPE   H8X 7194   2.559   4.928   4.873 -0.5765 -0.4863 -0.8321
   56DOPE   H8Y 7195   2.561   4.760   4.936  0.6537 -1.1957 -1.3770
   56DOPE   C39 7196   2.370   4.845   4.961  0.0688  0.4727  0.3506
   56DOPE   H9X 7197   2.324   4.746   4.977 -0.7757  0.7669 -0.1762
   56DOPE  C310 7198   2.329   4.950   5.029  0.3156 -0.2129 -0.4882
   56DOPE  H10X 7199   2.227   4.944   5.071  0.5509  0.4061  0.1838
   56DOPE  C311 7200   2.395   5.084   5.047  0.4915 -0.0084  0.8326
   56DOPE  H11X 7201   2.474   5.103   4.971  1.5424  0.1764  1.9393
   56DOPE  H11Y 7202   2.320   5.159   5.014  1.3423  0.1764 -0.7715
   56DOPE  C312 7203   2.433   5.120   5.189 -0.5997  0.1406 -0.3050
   56DOPE  H12X 7204   2.522   5.057   5.210 -1.0025 -1.1830 -2.3249
   56DOPE  H12Y 7205   2.345   5.084   5.246 -1.3569  0.6684 -1.1105
   56DOPE  C313 7206   2.437   5.267   5.217 -0.3669  0.2396 -0.9124
   56DOPE  H13X 7207   2.504   5.316   5.144  0.3181 -0.0614 -0.4986
   56DOPE  H13Y 7208   2.336   5.300   5.185  0.1181  1.1784 -1.5211
   56DOPE  C314 7209   2.465   5.307   5.363 -0.4098 -0.6191  0.1050
   56DOPE  H14X 7210   2.562   5.263   5.391  0.4433  1.3553  0.4504
   56DOPE  H14Y 7211   2.390   5.262   5.431 -0.1467 -1.7680 -0.3472
   56DOPE  C315 7212   2.474   5.459   5.379  0.7810  0.1086 -0.0043
   56DOPE  H15X 7213   2.378   5.507   5.350  0.3796 -0.1336  0.8921
   56DOPE  H15Y 7214   2.561   5.495   5.321  1.2199 -1.1264 -0.1480
   56DOPE  C316 7215   2.504   5.501   5.525  0.1212 -0.3554 -0.4739
   56DOPE  H16X 7216   2.498   5.612   5.520  0.0130 -0.1546  2.4600
   56DOPE  H16Y 7217   2.610   5.478   5.549 -0.0615 -0.6860  0.0414
   56DOPE  C317 7218   2.410   5.454   5.635 -0.2650  0.4154  0.7981
   56DOPE  H17X 7219   2.304   5.450   5.603  0.0941  0.6808 -0.4599
   56DOPE  H17Y 7220   2.430   5.348   5.660 -1.7147  0.1073  0.6928
   56DOPE  C318 7221   2.427   5.538   5.759  0.0460 -0.1737 -0.2883
   56DOPE  H18X 7222   2.347   5.511   5.831  1.2380 -1.2235  0.6855
   56DOPE  H18Y 7223   2.523   5.512   5.808  0.0815  1.8359  0.8022
   56DOPE  H18Z 7224   2.418   5.647   5.740  0.2552 -0.0090  0.5363
   57DOPE     N 7225   2.376   2.363   2.961 -0.3829  0.9778  0.2228
   57DOPE   HN1 7226   2.447   2.436   2.984 -1.1617  1.2340  2.0121
   57DOPE   HN2 7227   2.389   2.336   2.862 -1.7044 -0.2467  0.3468
   57DOPE   HN3 7228   2.282   2.407   2.970 -0.0178  2.3602 -1.9798
   57DOPE   C12 7229   2.387   2.252   3.062  0.0820  0.2279 -0.6791
   57DOPE  H12A 7230   2.494   2.228   3.079  0.0257 -0.2059 -0.9271
   57DOPE  H12B 7231   2.333   2.162   3.027  1.7946 -1.3902  0.6830
   57DOPE   C11 7232   2.317   2.296   3.191  0.8481 -0.0536 -0.0056
   57DOPE  H11A 7233   2.368   2.386   3.232  1.2423 -1.6797  3.5094
   57DOPE  H11B 7234   2.326   2.218   3.270 -0.0541 -0.8108 -0.6390
   57DOPE     P 7235   2.107   2.456   3.156  0.0635 -0.1993  0.6926
   57DOPE   O13 7236   2.143   2.497   3.023  0.5637 -0.2252 -0.1771
   57DOPE   O14 7237   2.147   2.540   3.267 -0.2461 -0.5860 -0.4798
   57DOPE   O11 7238   1.952   2.424   3.156  0.5029  0.5397 -0.6065
   57DOPE   O12 7239   2.174   2.311   3.172  0.0331  0.1424  0.0115
   57DOPE    C1 7240   1.904   2.306   3.214 -0.5646  0.3109  0.7168
   57DOPE    HA 7241   1.951   2.210   3.181 -0.6293 -0.3993  2.5831
   57DOPE    HB 7242   1.807   2.289   3.162  0.9643 -0.8877 -1.9808
   57DOPE    C2 7243   1.871   2.316   3.365  0.3477  0.1226 -0.2803
   57DOPE    HS 7244   1.810   2.408   3.377  1.8616  1.5151 -2.6371
   57DOPE   O21 7245   1.995   2.323   3.443 -0.1978  0.5677 -0.1198
   57DOPE   C21 7246   2.017   2.420   3.524 -0.5547  0.7267  0.3353
   57DOPE   O22 7247   1.936   2.509   3.555  0.8947  0.1885 -0.5180
   57DOPE   C22 7248   2.149   2.394   3.596  0.8197 -0.6428  0.1264
   57DOPE   H2R 7249   2.196   2.494   3.610 -0.8533  0.1324  0.4640
   57DOPE   H2S 7250   2.217   2.341   3.527  1.9190  0.7017  0.1443
   57DOPE    C3 7251   1.782   2.196   3.416 -0.1284  0.2986 -0.4438
   57DOPE    HX 7252   1.846   2.106   3.400  1.2584  1.3582 -1.0381
   57DOPE    HY 7253   1.690   2.161   3.364  0.1831 -1.9216  0.3714
   57DOPE   O31 7254   1.756   2.205   3.554 -0.0653  0.3057 -0.3923
   57DOPE   C31 7255   1.643   2.272   3.583 -1.1246 -0.0637 -0.5502
   57DOPE   O32 7256   1.577   2.341   3.512 -0.7715 -0.4332  0.3450
   57DOPE   C32 7257   1.608   2.246   3.731 -0.0082 -0.2387  0.0663
   57DOPE   H2X 7258   1.647   2.324   3.801  2.2861 -1.1400 -0.1047
   57DOPE   H2Y 7259   1.498   2.235   3.740  0.1909 -0.8911  2.4750
   57DOPE   C23 7260   2.141   2.309   3.729 -1.1963 -0.0662  0.3591
   57DOPE   H3R 7261   2.111   2.203   3.713 -1.2215 -0.2894  1.7990
   57DOPE   H3S 7262   2.060   2.362   3.784 -1.2982  1.4771 -1.1978
   57DOPE   C24 7263   2.278   2.312   3.802 -0.3410 -0.1391  0.1774
   57DOPE   H4R 7264   2.325   2.413   3.808  1.2764 -0.4949 -3.7862
   57DOPE   H4S 7265   2.350   2.251   3.743  1.1551  0.2512  1.4889
   57DOPE   C25 7266   2.263   2.259   3.949 -0.3105  0.0901  0.1949
   57DOPE   H5R 7267   2.363   2.229   3.988 -1.2055 -0.0195  2.5767
   57DOPE   H5S 7268   2.188   2.177   3.959  0.5612 -0.6409  1.0161
   57DOPE   C26 7269   2.219   2.369   4.050  0.1117  0.6824 -0.5197
   57DOPE   H6R 7270   2.144   2.430   3.994 -2.6233 -3.3580 -1.7055
   57DOPE   H6S 7271   2.310   2.430   4.072 -0.5946  2.0432 -1.2412
   57DOPE   C27 7272   2.166   2.323   4.187 -0.6433 -0.8400  0.5257
   57DOPE   H7R 7273   2.242   2.257   4.233  0.4404 -1.7244 -2.2943
   57DOPE   H7S 7274   2.087   2.247   4.171 -0.0060 -1.4380  0.1677
   57DOPE   C28 7275   2.122   2.442   4.278 -0.7181 -0.0236  0.0894
   57DOPE   H8R 7276   2.081   2.403   4.374  0.1098 -1.5326 -0.1378
   57DOPE   H8S 7277   2.035   2.489   4.228 -0.1818  1.1539  0.2287
   57DOPE   C29 7278   2.231   2.547   4.308  0.5354  0.3932 -0.3300
   57DOPE   H9R 7279   2.260   2.611   4.222  1.2226  1.7544  0.8764
   57DOPE  C210 7280   2.281   2.582   4.425 -0.0110 -0.0976  0.1062
   57DOPE  H10R 7281   2.350   2.666   4.439 -1.6714  1.3504  0.0463
   57DOPE  C211 7282   2.254   2.503   4.555  0.7378  0.4475  0.0013
   57DOPE  H11R 7283   2.261   2.395   4.530 -0.3240 -0.0378  1.6087
   57DOPE  H11S 7284   2.146   2.512   4.579  1.0808  1.4576  1.2440
   57DOPE  C212 7285   2.337   2.543   4.675  0.0218  0.1228 -0.8828
   57DOPE  H12R 7286   2.322   2.653   4.681  3.1456  0.5505  1.4279
   57DOPE  H12S 7287   2.443   2.536   4.644  0.2151  0.1198 -0.2362
   57DOPE  C213 7288   2.310   2.477   4.813 -0.3813  0.2176  0.4380
   57DOPE  H13R 7289   2.317   2.367   4.806  1.0951  0.3799 -0.9573
   57DOPE  H13S 7290   2.210   2.501   4.856  0.2447 -0.9625  2.7341
   57DOPE  C214 7291   2.410   2.520   4.918 -0.7790 -0.4410 -0.4795
   57DOPE  H14R 7292   2.432   2.629   4.911 -1.2417 -0.3698 -0.9386
   57DOPE  H14S 7293   2.508   2.475   4.893 -0.1655 -0.2424  1.4228
   57DOPE  C215 7294   2.370   2.472   5.056  0.2605 -0.2709 -0.3667
   57DOPE  H15R 7295   2.371   2.362   5.045  0.9181 -0.3763  0.6178
   57DOPE  H15S 7296   2.270   2.517   5.076 -0.0902 -0.3554 -1.8138
   57DOPE  C216 7297   2.478   2.523   5.164 -0.1432 -0.2610 -0.4136
   57DOPE  H16R 7298   2.498   2.631   5.147 -0.6242 -0.2600 -0.9790
   57DOPE  H16S 7299   2.566   2.461   5.139 -1.5778 -1.6691 -2.2303
   57DOPE  C217 7300   2.439   2.504   5.313  0.2843 -0.2184 -0.0610
   57DOPE  H17R 7301   2.524   2.544   5.372  0.3094 -0.3509 -0.0078
   57DOPE  H17S 7302   2.431   2.394   5.330  0.1293 -0.2145 -0.1081
   57DOPE  C218 7303   2.307   2.566   5.355  0.1698 -1.0311 -0.4457
   57DOPE  H18R 7304   2.304   2.567   5.466  0.9399  0.5950 -0.4140
   57DOPE  H18S 7305   2.217   2.521   5.307 -1.0274  0.5194  0.2755
   57DOPE  H18T 7306   2.307   2.673   5.326 -1.5641 -1.2938 -1.5607
   57DOPE   C33 7307   1.672   2.114   3.782  0.3846 -0.1242  0.1181
   57DOPE   H3X 7308   1.782   2.125   3.790  0.2269  0.4986  1.7585
   57DOPE   H3Y 7309   1.648   2.024   3.721 -0.7656  0.5872 -0.5177
   57DOPE   C34 7310   1.620   2.087   3.922  0.7130  0.2674 -0.0711
   57DOPE   H4X 7311   1.509   2.097   3.923  0.7292  0.4987  1.0047
   57DOPE   H4Y 7312   1.644   1.981   3.947 -1.7237 -0.4555 -0.4783
   57DOPE   C35 7313   1.678   2.168   4.033 -0.2342  0.6901 -1.0028
   57DOPE   H5X 7314   1.625   2.134   4.124 -1.0576  1.1326 -1.3110
   57DOPE   H5Y 7315   1.655   2.275   4.014 -0.4595  1.1729  1.6003
   57DOPE   C36 7316   1.833   2.176   4.048  0.0529  0.7050 -0.6450
   57DOPE   H6X 7317   1.854   2.242   4.135  3.9278 -0.1013 -0.7959
   57DOPE   H6Y 7318   1.889   2.214   3.961  0.9990 -0.7360 -0.7022
   57DOPE   C37 7319   1.901   2.041   4.075  0.9801  0.0071  0.1860
   57DOPE   H7X 7320   1.891   1.971   3.990  0.6555 -1.3601  1.3225
   57DOPE   H7Y 7321   2.010   2.059   4.062  1.2892 -1.9185 -0.1523
   57DOPE   C38 7322   1.865   1.978   4.208  0.2494 -0.1636 -0.1617
   57DOPE   H8X 7323   1.894   1.871   4.204 -0.5613 -0.3950 -0.0120
   57DOPE   H8Y 7324   1.754   1.980   4.209  0.2425  1.5881 -0.7917
   57DOPE   C39 7325   1.921   2.036   4.341 -0.0733  0.6522  1.1420
   57DOPE   H9X 7326   1.977   2.130   4.332 -0.8724  1.2519  2.2209
   57DOPE  C310 7327   1.941   1.966   4.454 -0.0335  0.0944  1.0356
   57DOPE  H10X 7328   1.976   2.013   4.547  1.7994  2.5252 -0.7296
   57DOPE  C311 7329   1.914   1.817   4.478  0.4685  0.5027  0.2274
   57DOPE  H11X 7330   1.847   1.774   4.400  0.5126 -0.3869  0.6687
   57DOPE  H11Y 7331   2.008   1.760   4.463  0.6137  0.6739  0.4803
   57DOPE  C312 7332   1.854   1.782   4.614 -0.0159  0.0360  0.2852
   57DOPE  H12X 7333   1.935   1.808   4.686 -1.3821  0.2266  1.8185
   57DOPE  H12Y 7334   1.837   1.673   4.626  1.3565 -0.1791  0.4457
   57DOPE  C313 7335   1.723   1.858   4.649 -0.6077 -0.7727 -0.3257
   57DOPE  H13X 7336   1.703   1.963   4.619 -1.8794 -0.4380  1.5459
   57DOPE  H13Y 7337   1.646   1.805   4.590 -2.1447  1.2533 -0.2406
   57DOPE  C314 7338   1.687   1.853   4.796  0.0955  0.2790 -0.8176
   57DOPE  H14X 7339   1.648   1.753   4.824 -4.1483  2.1102  0.7790
   57DOPE  H14Y 7340   1.599   1.915   4.824 -0.2325 -0.1751 -0.8256
   57DOPE  C315 7341   1.803   1.884   4.894 -0.5983  0.0692 -0.0274
   57DOPE  H15X 7342   1.855   1.978   4.863 -0.6703 -0.0420 -0.4840
   57DOPE  H15Y 7343   1.887   1.812   4.892  1.3615  2.2373 -2.1656
   57DOPE  C316 7344   1.751   1.907   5.038  0.3329 -0.5656  0.1258
   57DOPE  H16X 7345   1.690   1.817   5.059  0.7586 -0.7088  0.7591
   57DOPE  H16Y 7346   1.683   1.993   5.017 -0.8429 -1.6094 -0.4494
   57DOPE  C317 7347   1.856   1.940   5.148 -0.1547  0.1563  0.4794
   57DOPE  H17X 7348   1.937   1.865   5.133 -0.9548 -0.2664 -2.4741
   57DOPE  H17Y 7349   1.895   2.043   5.130 -0.8257  0.0593 -2.0466
   57DOPE  C318 7350   1.791   1.935   5.280  0.2704  0.2090 -0.2044
   57DOPE  H18X 7351   1.763   1.829   5.294  0.9098  0.2230  1.4956
   57DOPE  H18Y 7352   1.853   1.957   5.370  1.0106  0.0227 -0.6638
   57DOPE  H18Z 7353   1.702   2.002   5.282 -1.3814 -1.9012  1.5343
   58DOPE     N 7354   1.612   3.553   3.494  0.2045  0.2211 -0.8356
   58DOPE   HN1 7355   1.640   3.613   3.574  0.0816 -1.3258  0.4234
   58DOPE   HN2 7356   1.569   3.467   3.533 -0.5606  0.9746  0.0310
   58DOPE   HN3 7357   1.698   3.506   3.459  0.2780 -2.6088  2.5200
   58DOPE   C12 7358   1.533   3.611   3.383  0.1871  0.4747 -0.1547
   58DOPE  H12A 7359   1.444   3.642   3.441 -0.6300 -0.1063 -1.0564
   58DOPE  H12B 7360   1.518   3.534   3.304  0.1962  0.0934  0.2148
   58DOPE   C11 7361   1.592   3.743   3.336  0.3548 -0.6130  0.6399
   58DOPE  H11A 7362   1.538   3.776   3.245  2.3521  3.6706  0.7578
   58DOPE  H11B 7363   1.690   3.715   3.292  1.0115  0.6760  1.2259
   58DOPE     P 7364   1.625   3.992   3.407 -0.3901 -0.3414 -0.1043
   58DOPE   O13 7365   1.664   4.006   3.265 -0.3870 -0.3935 -0.5971
   58DOPE   O14 7366   1.729   4.021   3.504 -0.3905 -0.2559 -0.2708
   58DOPE   O11 7367   1.493   4.074   3.423 -0.2938  0.2693  0.3521
   58DOPE   O12 7368   1.586   3.839   3.433  0.1167 -0.4978 -0.5678
   58DOPE    C1 7369   1.373   4.013   3.467 -0.4678  0.5086 -0.5655
   58DOPE    HA 7370   1.355   3.917   3.413  0.8033  0.1295 -0.3236
   58DOPE    HB 7371   1.286   4.070   3.428 -0.0077  1.0485 -0.8144
   58DOPE    C2 7372   1.352   3.996   3.617 -0.2406  0.5199 -0.6536
   58DOPE    HS 7373   1.247   4.023   3.642 -0.0129  1.4781 -0.7091
   58DOPE   O21 7374   1.444   4.078   3.691 -0.6222  0.0562 -0.6007
   58DOPE   C21 7375   1.397   4.205   3.701 -0.6242 -0.5848 -0.8159
   58DOPE   O22 7376   1.299   4.248   3.651 -0.0003  0.3237  0.0127
   58DOPE   C22 7377   1.492   4.285   3.780  0.3204  0.5077 -0.0171
   58DOPE   H2R 7378   1.550   4.363   3.725  0.7105 -1.1843 -2.1064
   58DOPE   H2S 7379   1.578   4.226   3.820 -1.3917 -1.8730  0.3559
   58DOPE    C3 7380   1.365   3.847   3.666 -0.0018  0.0080 -0.1704
   58DOPE    HX 7381   1.474   3.833   3.674  0.1641  0.0937 -1.7959
   58DOPE    HY 7382   1.334   3.779   3.583 -4.3362  0.7157  0.6343
   58DOPE   O31 7383   1.286   3.834   3.781 -0.8848 -0.2401  0.5164
   58DOPE   C31 7384   1.334   3.876   3.899 -0.3589  0.0937 -0.1750
   58DOPE   O32 7385   1.448   3.900   3.922  0.2931 -0.1449  0.3490
   58DOPE   C32 7386   1.221   3.902   3.993 -0.1495 -0.3278 -0.4055
   58DOPE   H2X 7387   1.196   4.010   3.981  0.1233 -0.1359  0.6169
   58DOPE   H2Y 7388   1.125   3.852   3.970  0.0176 -1.3253  0.9219
   58DOPE   C23 7389   1.413   4.361   3.891  0.1557  0.1910 -0.0030
   58DOPE   H3R 7390   1.343   4.431   3.840  0.4763 -0.2927 -1.1222
   58DOPE   H3S 7391   1.480   4.421   3.956 -0.7885 -0.8748  2.0569
   58DOPE   C24 7392   1.355   4.258   3.993 -0.0945  0.1730  0.2063
   58DOPE   H4R 7393   1.424   4.235   4.077 -0.5140 -0.8180  0.2975
   58DOPE   H4S 7394   1.339   4.155   3.955  1.8897 -0.5953  1.3102
   58DOPE   C25 7395   1.223   4.306   4.054 -0.7128 -0.4470  0.7092
   58DOPE   H5R 7396   1.191   4.238   4.136  0.4627  1.2418  2.6499
   58DOPE   H5S 7397   1.144   4.318   3.978  1.5034  2.7231 -1.3221
   58DOPE   C26 7398   1.233   4.439   4.133 -0.0650  0.2816  0.0447
   58DOPE   H6R 7399   1.267   4.517   4.061 -0.8401 -1.5157 -2.3836
   58DOPE   H6S 7400   1.299   4.434   4.222 -1.0171 -0.0315  0.7462
   58DOPE   C27 7401   1.092   4.495   4.184 -0.3780  0.1308 -0.2056
   58DOPE   H7R 7402   1.045   4.416   4.246  0.0427 -0.2603 -0.3757
   58DOPE   H7S 7403   1.024   4.511   4.098  0.2249  1.2412 -0.4845
   58DOPE   C28 7404   1.108   4.631   4.257  0.0505  0.4881 -0.1620
   58DOPE   H8R 7405   1.002   4.662   4.265 -0.9713 -2.2938 -1.4306
   58DOPE   H8S 7406   1.168   4.689   4.184  2.5768 -0.8714  0.7016
   58DOPE   C29 7407   1.183   4.625   4.388  0.0247 -0.3812 -0.0502
   58DOPE   H9R 7408   1.275   4.565   4.387 -0.3646 -0.9807 -0.3713
   58DOPE  C210 7409   1.131   4.663   4.513 -0.0418 -0.2784  0.6600
   58DOPE  H10R 7410   1.183   4.645   4.608  1.6972  2.5455  0.3670
   58DOPE  C211 7411   0.991   4.708   4.526 -0.0724 -0.0848 -0.4660
   58DOPE  H11R 7412   0.949   4.743   4.430 -0.9431  0.7929  0.2081
   58DOPE  H11S 7413   0.976   4.793   4.596  1.5212 -0.8669  0.8877
   58DOPE  C212 7414   0.917   4.587   4.582 -0.3235 -0.2333 -0.6306
   58DOPE  H12R 7415   0.928   4.502   4.511 -2.0082 -0.4100 -0.7296
   58DOPE  H12S 7416   0.807   4.604   4.593 -0.0784  0.9483  0.2345
   58DOPE  C213 7417   0.955   4.533   4.718  0.5101 -0.2183  0.1115
   58DOPE  H13R 7418   0.959   4.614   4.793  2.9277 -0.2484  0.1122
   58DOPE  H13S 7419   1.060   4.497   4.726 -0.1484 -2.2681  0.1194
   58DOPE  C214 7420   0.875   4.410   4.757 -0.3965 -0.5341  0.2354
   58DOPE  H14R 7421   0.910   4.328   4.690 -0.9496  0.2356 -1.0358
   58DOPE  H14S 7422   0.767   4.438   4.754 -0.1410  0.5766  0.9568
   58DOPE  C215 7423   0.899   4.353   4.899  0.4301  0.5477 -0.2860
   58DOPE  H15R 7424   0.812   4.288   4.924  0.7963 -0.8886 -2.4590
   58DOPE  H15S 7425   0.899   4.435   4.974 -0.0735  0.8349 -0.5917
   58DOPE  C216 7426   1.022   4.255   4.922 -0.2269  0.1099 -0.3709
   58DOPE  H16R 7427   1.051   4.206   4.827  1.5234 -0.8966  0.6396
   58DOPE  H16S 7428   0.991   4.172   4.989  1.2298  0.2818  0.5691
   58DOPE  C217 7429   1.149   4.328   4.970 -0.2109 -0.2077 -0.3132
   58DOPE  H17R 7430   1.153   4.423   4.913  1.7980 -0.4755 -0.6616
   58DOPE  H17S 7431   1.244   4.273   4.957 -0.2691 -0.5785  0.7473
   58DOPE  C218 7432   1.127   4.357   5.116 -0.4451 -0.1733 -0.0604
   58DOPE  H18R 7433   1.219   4.401   5.160 -0.5887  1.3893 -1.2605
   58DOPE  H18S 7434   1.112   4.255   5.159  0.8875 -0.3722 -0.0150
   58DOPE  H18T 7435   1.044   4.426   5.141  1.6170  2.6991 -0.6300
   58DOPE   C33 7436   1.264   3.861   4.141  0.0400 -0.2156  0.3363
   58DOPE   H3X 7437   1.191   3.890   4.219 -0.8186  0.0197 -0.5235
   58DOPE   H3Y 7438   1.353   3.923   4.161 -0.2015  0.2452  0.0027
   58DOPE   C34 7439   1.285   3.711   4.156  0.5767  0.1098  0.2293
   58DOPE   H4X 7440   1.359   3.667   4.086  0.8638  0.1347  0.5120
   58DOPE   H4Y 7441   1.326   3.690   4.257 -1.5048  1.3367  1.4018
   58DOPE   C35 7442   1.162   3.622   4.150  0.2728  0.4710 -0.1610
   58DOPE   H5X 7443   1.107   3.639   4.055  0.2391  0.3551 -0.1631
   58DOPE   H5Y 7444   1.097   3.644   4.238 -0.2541  0.3488 -0.5106
   58DOPE   C36 7445   1.183   3.470   4.165  0.4456  0.5864  0.1098
   58DOPE   H6X 7446   1.083   3.422   4.171 -0.0712  1.6048 -0.1144
   58DOPE   H6Y 7447   1.236   3.442   4.259 -0.2966 -0.9146  0.1180
   58DOPE   C37 7448   1.257   3.397   4.051 -0.1611 -0.0686  0.0284
   58DOPE   H7X 7449   1.203   3.418   3.955  2.3446  0.2338 -1.3951
   58DOPE   H7Y 7450   1.354   3.449   4.040 -0.7502  1.4803  1.7340
   58DOPE   C38 7451   1.276   3.256   4.077  0.3330 -0.4621 -0.3789
   58DOPE   H8X 7452   1.176   3.223   4.113 -0.6152  0.0076 -2.4408
   58DOPE   H8Y 7453   1.339   3.257   4.168 -1.2617 -0.6923  0.7753
   58DOPE   C39 7454   1.342   3.155   3.983  0.2048 -0.2004  0.0038
   58DOPE   H9X 7455   1.409   3.202   3.909 -0.4659  0.7714 -0.0083
   58DOPE  C310 7456   1.301   3.026   3.959  0.0644  0.3074  0.5161
   58DOPE  H10X 7457   1.365   2.960   3.899 -2.2493  0.3731 -2.2293
   58DOPE  C311 7458   1.184   2.942   4.011 -0.5464  0.4233  0.0492
   58DOPE  H11X 7459   1.107   3.001   4.065  0.0745  1.0698  0.2392
   58DOPE  H11Y 7460   1.148   2.886   3.922 -0.2423  0.1225  0.1132
   58DOPE  C312 7461   1.232   2.835   4.110 -0.2247  0.3855 -0.3379
   58DOPE  H12X 7462   1.279   2.751   4.055 -1.6453  1.0840 -2.7467
   58DOPE  H12Y 7463   1.144   2.785   4.157  0.8502 -2.2918 -1.0004
   58DOPE  C313 7464   1.321   2.883   4.215  0.9096  0.3067  0.1330
   58DOPE  H13X 7465   1.425   2.889   4.177  1.1423 -0.3112  0.6533
   58DOPE  H13Y 7466   1.295   2.988   4.241 -1.5430 -0.2997  0.3958
   58DOPE  C314 7467   1.290   2.803   4.347 -0.2928 -0.2297  0.9569
   58DOPE  H14X 7468   1.307   2.695   4.332  2.6223  0.4666 -1.6673
   58DOPE  H14Y 7469   1.185   2.816   4.384  0.0746 -1.2958  2.4838
   58DOPE  C315 7470   1.389   2.852   4.452  0.2105 -0.3974  0.3089
   58DOPE  H15X 7471   1.348   2.950   4.483 -1.6768 -0.7758 -0.8275
   58DOPE  H15Y 7472   1.492   2.872   4.416 -0.2647  1.0191 -0.3287
   58DOPE  C316 7473   1.398   2.755   4.569  0.3727  0.2445  0.1860
   58DOPE  H16X 7474   1.476   2.783   4.643  1.1059 -0.5832 -0.2421
   58DOPE  H16Y 7475   1.430   2.654   4.536  1.1421  0.3944  0.4409
   58DOPE  C317 7476   1.270   2.737   4.647 -0.9033  0.0397 -0.0672
   58DOPE  H17X 7477   1.297   2.754   4.753  2.0245 -1.9003 -0.3703
   58DOPE  H17Y 7478   1.194   2.809   4.610  0.4950  0.6318 -1.9080
   58DOPE  C318 7479   1.217   2.591   4.645  0.3994  0.5555  0.2815
   58DOPE  H18X 7480   1.186   2.570   4.540  0.6627  1.6427 -0.0301
   58DOPE  H18Y 7481   1.305   2.531   4.677 -1.3496 -1.2028  2.0987
   58DOPE  H18Z 7482   1.135   2.578   4.718 -1.3655 -1.9129 -1.9250
   59DOPE     N 7483   0.530   1.403   2.393  0.3003  0.1562 -0.6978
   59DOPE   HN1 7484   0.616   1.398   2.335  0.8684 -1.6063  0.2349
   59DOPE   HN2 7485   0.504   1.316   2.444  1.9378 -0.5575 -0.9929
   59DOPE   HN3 7486   0.444   1.422   2.339  0.0885  0.9293 -0.1014
   59DOPE   C12 7487   0.549   1.508   2.501  0.4276  0.3259  1.1088
   59DOPE  H12A 7488   0.575   1.609   2.462 -0.2191  0.2483  0.4760
   59DOPE  H12B 7489   0.629   1.466   2.566  0.2791  0.4227  1.3536
   59DOPE   C11 7490   0.416   1.521   2.579 -0.1906  0.0041  0.8473
   59DOPE  H11A 7491   0.416   1.428   2.639 -0.8794 -0.2786  0.4176
   59DOPE  H11B 7492   0.328   1.530   2.512 -0.3004  1.1645  1.1093
   59DOPE     P 7493   0.309   1.639   2.780 -0.0318 -0.2491  0.2298
   59DOPE   O13 7494   0.181   1.621   2.711  0.2588  0.1452  0.6645
   59DOPE   O14 7495   0.318   1.755   2.871  0.0171 -0.1320 -0.0127
   59DOPE   O11 7496   0.339   1.506   2.857  0.3620  0.2739  0.0668
   59DOPE   O12 7497   0.418   1.639   2.663 -0.0639  0.2280  0.0634
   59DOPE    C1 7498   0.459   1.498   2.934  0.1369  0.0359 -0.1401
   59DOPE    HA 7499   0.489   1.582   3.000  0.9426 -0.0965 -0.3377
   59DOPE    HB 7500   0.553   1.485   2.877  0.7212  0.9589  0.5755
   59DOPE    C2 7501   0.435   1.392   3.042 -0.0094  0.4755  0.1466
   59DOPE    HS 7502   0.381   1.302   3.006 -0.3768  0.8323 -0.2111
   59DOPE   O21 7503   0.367   1.465   3.144  0.0629  0.9237 -0.3453
   59DOPE   C21 7504   0.249   1.407   3.191 -0.4285 -0.3516 -0.7515
   59DOPE   O22 7505   0.198   1.302   3.156 -0.1650  0.6877  0.3685
   59DOPE   C22 7506   0.204   1.493   3.313 -0.2296  0.4755  0.1457
   59DOPE   H2R 7507   0.094   1.481   3.314 -0.3438  1.4266 -0.3881
   59DOPE   H2S 7508   0.231   1.599   3.299 -2.2854  0.9606 -0.4791
   59DOPE    C3 7509   0.573   1.338   3.099 -0.0613 -0.1920 -0.4740
   59DOPE    HX 7510   0.638   1.422   3.132  0.2915 -1.0358  1.0907
   59DOPE    HY 7511   0.630   1.284   3.020  0.8606 -2.7291  1.7818
   59DOPE   O31 7512   0.557   1.244   3.209  0.5207  0.1903  0.1480
   59DOPE   C31 7513   0.518   1.122   3.175  0.5476  0.7135 -0.0171
   59DOPE   O32 7514   0.496   1.078   3.067 -0.0375  0.1541  0.0467
   59DOPE   C32 7515   0.484   1.038   3.297 -0.3248 -0.4128  0.0623
   59DOPE   H2X 7516   0.377   1.014   3.283  0.1826 -2.7630 -0.3011
   59DOPE   H2Y 7517   0.530   0.937   3.285  0.6367  0.1715 -1.5074
   59DOPE   C23 7518   0.260   1.442   3.447  0.3950  0.4956 -0.4633
   59DOPE   H3R 7519   0.231   1.518   3.523  0.3597 -0.7827  0.8395
   59DOPE   H3S 7520   0.370   1.433   3.453  0.5386  2.0368 -0.2863
   59DOPE   C24 7521   0.184   1.313   3.493 -0.8082  0.1874  0.2164
   59DOPE   H4R 7522   0.196   1.237   3.413  1.1566 -0.8259  1.3865
   59DOPE   H4S 7523   0.080   1.351   3.500 -0.0899  2.2555  0.3387
   59DOPE   C25 7524   0.229   1.263   3.631  0.0526  0.2086  0.1560
   59DOPE   H5R 7525   0.229   1.344   3.707 -0.7537  1.6637 -1.3229
   59DOPE   H5S 7526   0.333   1.226   3.619 -0.4238 -1.3433  0.6793
   59DOPE   C26 7527   0.143   1.152   3.676 -0.3678  0.8826  0.1355
   59DOPE   H6R 7528   0.161   1.069   3.605  1.7027  1.8492 -0.5459
   59DOPE   H6S 7529   0.037   1.178   3.654 -0.9078 -1.2589  0.0269
   59DOPE   C27 7530   0.153   1.121   3.831 -0.5053  0.6585  0.3405
   59DOPE   H7R 7531   0.135   1.213   3.890  0.4701 -0.2429  2.1468
   59DOPE   H7S 7532   0.255   1.083   3.855 -1.3774 -1.6984  0.5942
   59DOPE   C28 7533   0.060   1.004   3.871  0.2364 -0.2666 -0.9513
   59DOPE   H8R 7534  -0.045   1.031   3.845 -0.1293 -1.3692 -0.6729
   59DOPE   H8S 7535   0.079   0.984   3.978  0.0483  1.2322 -0.6167
   59DOPE   C29 7536   0.104   0.887   3.796  0.1277 -0.2261 -0.1176
   59DOPE   H9R 7537   0.093   0.895   3.686 -0.8706  2.1955  0.0951
   59DOPE  C210 7538   0.165   0.778   3.843  0.1148 -0.2748  0.5819
   59DOPE  H10R 7539   0.200   0.709   3.764 -2.0770  1.3140 -1.9594
   59DOPE  C211 7540   0.193   0.738   3.988  0.0269 -0.3865  0.5347
   59DOPE  H11R 7541   0.171   0.630   4.003 -0.8894 -0.2226  0.4239
   59DOPE  H11S 7542   0.133   0.801   4.057  1.0766  0.3480  0.8053
   59DOPE  C212 7543   0.339   0.760   4.023  0.2553  0.2783 -0.4441
   59DOPE  H12R 7544   0.360   0.869   4.025 -1.8115  0.7691 -1.9029
   59DOPE  H12S 7545   0.397   0.710   3.942  2.4443  1.3326  0.3951
   59DOPE  C213 7546   0.384   0.681   4.150  0.3747  0.7517 -0.2374
   59DOPE  H13R 7547   0.471   0.733   4.195  1.8792 -0.7907 -1.2557
   59DOPE  H13S 7548   0.424   0.585   4.112  2.1963  1.7000 -0.8281
   59DOPE  C214 7549   0.279   0.651   4.251 -0.0462  0.2719  0.3055
   59DOPE  H14R 7550   0.220   0.566   4.212  2.1523 -0.0029 -2.8005
   59DOPE  H14S 7551   0.216   0.741   4.270  0.7518  0.6483  1.2511
   59DOPE  C215 7552   0.343   0.603   4.387  0.2727  0.1655 -0.5626
   59DOPE  H15R 7553   0.422   0.531   4.356  0.5199 -0.2350  0.9133
   59DOPE  H15S 7554   0.259   0.560   4.446 -0.9318  3.5662  0.3994
   59DOPE  C216 7555   0.397   0.717   4.476 -0.1643 -0.5806 -0.6485
   59DOPE  H16R 7556   0.323   0.800   4.484  0.1885 -0.3759  0.8651
   59DOPE  H16S 7557   0.477   0.776   4.426 -0.3882  0.2988 -0.0001
   59DOPE  C217 7558   0.441   0.671   4.619 -0.0597  0.0487 -0.3057
   59DOPE  H17R 7559   0.533   0.611   4.606 -1.1702 -1.1501 -3.4958
   59DOPE  H17S 7560   0.362   0.603   4.655 -0.6472 -0.1482 -1.9073
   59DOPE  C218 7561   0.478   0.776   4.718  0.9849 -0.0880 -0.7932
   59DOPE  H18R 7562   0.394   0.846   4.737  0.9801 -0.3859  0.3282
   59DOPE  H18S 7563   0.568   0.831   4.683  2.8441  0.0037  3.4405
   59DOPE  H18T 7564   0.513   0.722   4.809  0.5071 -1.2314 -1.2704
   59DOPE   C33 7565   0.511   1.100   3.434  0.5230  0.8119 -0.8439
   59DOPE   H3X 7566   0.444   1.188   3.449 -0.3739 -0.2375  1.9451
   59DOPE   H3Y 7567   0.613   1.142   3.449  0.3275  1.5196 -1.3810
   59DOPE   C34 7568   0.480   1.000   3.544 -0.0619 -0.4493 -0.6358
   59DOPE   H4X 7569   0.468   1.058   3.638 -0.4381  0.6453 -1.3400
   59DOPE   H4Y 7570   0.384   0.956   3.511 -1.3328  2.4620 -1.0915
   59DOPE   C35 7571   0.593   0.894   3.559  1.2843 -0.1906  0.2223
   59DOPE   H5X 7572   0.689   0.938   3.593  0.7513  1.1457  0.0363
   59DOPE   H5Y 7573   0.618   0.847   3.461 -0.1432  0.5359 -0.5266
   59DOPE   C36 7574   0.557   0.787   3.660 -0.6133 -0.0134 -0.1263
   59DOPE   H6X 7575   0.463   0.733   3.638 -0.1971 -0.3635 -1.0895
   59DOPE   H6Y 7576   0.536   0.834   3.759  0.2947 -0.7104  0.4230
   59DOPE   C37 7577   0.679   0.692   3.686  0.5820  0.2095  0.5202
   59DOPE   H7X 7578   0.725   0.656   3.591 -1.1373  0.6041 -0.5151
   59DOPE   H7Y 7579   0.755   0.739   3.752  0.1603 -0.3200  1.4010
   59DOPE   C38 7580   0.630   0.557   3.739 -0.9663 -0.2218  0.1540
   59DOPE   H8X 7581   0.551   0.522   3.670  0.2291 -1.3447 -0.6933
   59DOPE   H8Y 7582   0.574   0.576   3.833 -1.6440  1.4216 -0.5347
   59DOPE   C39 7583   0.743   0.452   3.746  0.1096  0.2995 -0.1135
   59DOPE   H9X 7584   0.797   0.438   3.651  2.2818  1.1421  0.9220
   59DOPE  C310 7585   0.803   0.406   3.856  0.0692  0.4204  0.0078
   59DOPE  H10X 7586   0.900   0.353   3.847  0.1533  0.4655  0.6464
   59DOPE  C311 7587   0.756   0.436   3.998  0.2524  0.7578 -0.5216
   59DOPE  H11X 7588   0.655   0.483   4.001 -0.5167 -0.3633 -3.8272
   59DOPE  H11Y 7589   0.749   0.343   4.057 -0.5415  0.4385 -1.1062
   59DOPE  C312 7590   0.851   0.537   4.064  0.0821 -0.6392  0.0264
   59DOPE  H12X 7591   0.831   0.630   4.007  2.5820  1.7491  2.7322
   59DOPE  H12Y 7592   0.954   0.505   4.038  0.2097 -1.0186  0.9652
   59DOPE  C313 7593   0.831   0.559   4.214  0.1900 -0.0863  0.5772
   59DOPE  H13X 7594   0.723   0.545   4.231  0.1623 -2.4317 -1.0538
   59DOPE  H13Y 7595   0.884   0.479   4.271 -2.0882 -1.3836  0.9638
   59DOPE  C314 7596   0.870   0.698   4.261  0.3695 -0.6915 -0.2717
   59DOPE  H14X 7597   0.789   0.773   4.249 -0.0757 -0.7082  2.1725
   59DOPE  H14Y 7598   0.950   0.740   4.196 -1.9464  0.8840 -2.3033
   59DOPE  C315 7599   0.918   0.693   4.410  0.2045  0.3749  0.6712
   59DOPE  H15X 7600   1.011   0.631   4.404 -0.2223 -0.1203 -2.2313
   59DOPE  H15Y 7601   0.836   0.637   4.460  0.0469  0.7632  0.8494
   59DOPE  C316 7602   0.938   0.835   4.465  0.7384  0.3680  0.0105
   59DOPE  H16X 7603   0.983   0.812   4.564 -0.0470  0.4919  0.4017
   59DOPE  H16Y 7604   0.840   0.888   4.475 -0.7672 -2.0644 -0.9618
   59DOPE  C317 7605   1.034   0.915   4.374  0.9202 -0.1316  0.1727
   59DOPE  H17X 7606   1.133   0.864   4.373 -0.2563 -2.5446 -0.0277
   59DOPE  H17Y 7607   1.001   0.926   4.268 -1.6403 -0.6253  0.8562
   59DOPE  C318 7608   1.051   1.061   4.429  0.4784 -0.2855  0.4845
   59DOPE  H18X 7609   0.969   1.131   4.403  0.1805 -0.7376  0.1810
   59DOPE  H18Y 7610   1.070   1.071   4.538  0.8923  2.6504  0.2096
   59DOPE  H18Z 7611   1.140   1.103   4.379 -1.2848 -0.3755 -3.0148
   60DOPE     N 7612   2.932   4.980   2.847  0.4804 -0.8231  0.2849
   60DOPE   HN1 7613   2.919   5.081   2.866  3.0868 -0.6063  1.3129
   60DOPE   HN2 7614   2.966   4.922   2.926  0.0763 -0.4082  0.7672
   60DOPE   HN3 7615   3.001   4.964   2.770  1.2271 -0.7816  0.9376
   60DOPE   C12 7616   2.796   4.914   2.817 -0.1903 -0.6659 -0.3120
   60DOPE  H12A 7617   2.816   4.808   2.791  1.0574 -0.2834 -0.9856
   60DOPE  H12B 7618   2.748   4.972   2.736  1.3776  2.3496  0.7835
   60DOPE   C11 7619   2.707   4.905   2.942  0.3739 -0.4481  0.2340
   60DOPE  H11A 7620   2.613   4.865   2.899 -0.1416  1.3073 -0.3673
   60DOPE  H11B 7621   2.671   5.006   2.973 -1.6936 -1.2657  0.6431
   60DOPE     P 7622   2.828   4.901   3.172  0.7045  0.2308  0.0908
   60DOPE   O13 7623   2.946   4.972   3.118 -0.4968 -0.2033  0.4369
   60DOPE   O14 7624   2.854   4.793   3.273  0.5265  0.1289 -0.3319
   60DOPE   O11 7625   2.728   5.006   3.233 -0.3499  0.0682 -0.0649
   60DOPE   O12 7626   2.754   4.830   3.047  0.0038  0.7325  0.0667
   60DOPE    C1 7627   2.591   4.954   3.263 -0.7302 -0.0760  0.1264
   60DOPE    HA 7628   2.594   4.849   3.301  0.2100  0.2076  0.9014
   60DOPE    HB 7629   2.531   4.967   3.170  2.4434  1.7556 -1.8593
   60DOPE    C2 7630   2.514   5.043   3.365  0.8693 -1.1103  0.0065
   60DOPE    HS 7631   2.416   4.995   3.384  0.1616  0.7277  1.3579
   60DOPE   O21 7632   2.503   5.180   3.315 -0.2302 -0.7652  0.1438
   60DOPE   C21 7633   2.378   5.222   3.297 -0.3863  0.2923  0.1370
   60DOPE   O22 7634   2.278   5.163   3.333 -0.1804  0.6784 -0.0192
   60DOPE   C22 7635   2.382   5.361   3.230  0.6541  0.3032 -0.7293
   60DOPE   H2R 7636   2.421   5.336   3.129 -2.0661 -1.4993 -1.4371
   60DOPE   H2S 7637   2.457   5.419   3.286 -1.0518  1.9598 -0.0791
   60DOPE    C3 7638   2.583   5.039   3.507 -0.3844  0.0172 -0.6036
   60DOPE    HX 7639   2.684   5.083   3.491  0.3626 -1.6499 -0.6697
   60DOPE    HY 7640   2.609   4.936   3.538 -1.6778  0.2109  1.3068
   60DOPE   O31 7641   2.502   5.094   3.612  0.1877 -0.2599 -0.2002
   60DOPE   C31 7642   2.519   5.228   3.633  0.7093  0.5259 -0.5117
   60DOPE   O32 7643   2.612   5.296   3.597  0.0776  0.0746 -0.0176
   60DOPE   C32 7644   2.404   5.278   3.722 -0.0237  0.5848  0.5710
   60DOPE   H2X 7645   2.337   5.318   3.644  1.3114 -0.4958 -1.2148
   60DOPE   H2Y 7646   2.357   5.185   3.760  1.8136 -1.7785 -2.4620
   60DOPE   C23 7647   2.242   5.428   3.234 -0.0793 -0.0140 -0.9362
   60DOPE   H3R 7648   2.158   5.358   3.216 -0.2271 -0.0187 -0.2402
   60DOPE   H3S 7649   2.240   5.495   3.145  1.7326  0.9649 -0.3096
   60DOPE   C24 7650   2.218   5.518   3.361 -0.1559  0.7588 -0.3247
   60DOPE   H4R 7651   2.299   5.593   3.361  1.4000 -0.7881  2.1718
   60DOPE   H4S 7652   2.235   5.449   3.446  0.0352 -1.9621 -2.4144
   60DOPE   C25 7653   2.076   5.564   3.351  0.4567 -0.2148  0.4319
   60DOPE   H5R 7654   2.006   5.479   3.340 -0.0550  0.0652  1.4920
   60DOPE   H5S 7655   2.070   5.623   3.256  0.9556 -0.3193  0.3333
   60DOPE   C26 7656   2.031   5.637   3.479  0.4086  0.3245  0.0684
   60DOPE   H6R 7657   1.932   5.685   3.464  0.7504  1.7245  1.8724
   60DOPE   H6S 7658   2.103   5.721   3.494 -0.0127  1.6366 -4.0078
   60DOPE   C27 7659   2.025   5.546   3.609 -0.6137 -0.4380  1.0381
   60DOPE   H7R 7660   2.127   5.505   3.624 -0.7679 -1.0989  0.3511
   60DOPE   H7S 7661   1.947   5.468   3.603  0.1162 -1.1437  0.2629
   60DOPE   C28 7662   2.002   5.621   3.740 -0.1549 -0.2356  0.3968
   60DOPE   H8R 7663   1.916   5.690   3.742 -1.1002 -1.3374 -0.5212
   60DOPE   H8S 7664   2.088   5.691   3.743 -0.7241  0.4412  0.9470
   60DOPE   C29 7665   1.993   5.542   3.860  0.0933  0.4019 -0.2557
   60DOPE   H9R 7666   2.073   5.469   3.883  0.2130  1.4005  3.1422
   60DOPE  C210 7667   1.901   5.550   3.958  0.6406  0.1689 -0.2820
   60DOPE  H10R 7668   1.912   5.495   4.053 -0.8374  0.4605  0.0916
   60DOPE  C211 7669   1.781   5.645   3.966 -0.2005  0.0600 -0.1479
   60DOPE  H11R 7670   1.707   5.598   4.034  1.0836 -0.0168  1.2617
   60DOPE  H11S 7671   1.732   5.658   3.868  1.1511  1.7571 -0.6628
   60DOPE  C212 7672   1.811   5.787   4.028 -0.4603  0.3839 -0.2044
   60DOPE  H12R 7673   1.715   5.842   4.041  0.0530  1.1124  0.6512
   60DOPE  H12S 7674   1.874   5.843   3.956 -2.1473  0.6849 -1.5252
   60DOPE  C213 7675   1.876   5.797   4.167 -0.1008  0.2645  0.1531
   60DOPE  H13R 7676   1.982   5.767   4.157  0.3001  1.5530  0.3668
   60DOPE  H13S 7677   1.817   5.726   4.230 -1.9533  0.0053 -1.7555
   60DOPE  C214 7678   1.858   5.940   4.228  0.0012  0.2794  0.1815
   60DOPE  H14R 7679   1.757   5.979   4.200 -1.0078 -1.5278  1.1012
   60DOPE  H14S 7680   1.943   5.998   4.185  2.4063 -1.5769  2.1574
   60DOPE  C215 7681   1.887   5.947   4.378  0.3612 -0.0112 -0.3210
   60DOPE  H15R 7682   1.998   5.944   4.386  0.4853  2.9997  0.0207
   60DOPE  H15S 7683   1.835   5.872   4.442 -0.1413  0.2193 -0.4555
   60DOPE  C216 7684   1.833   6.085   4.438  0.6949 -0.1887 -0.2744
   60DOPE  H16R 7685   1.723   6.082   4.422  0.3449  2.2510  1.1250
   60DOPE  H16S 7686   1.867   6.178   4.388  3.4769 -0.0377  1.6586
   60DOPE  C217 7687   1.864   6.105   4.589  0.3685 -0.3728 -0.1766
   60DOPE  H17R 7688   1.974   6.101   4.604  0.0784 -2.4793  1.9711
   60DOPE  H17S 7689   1.829   6.012   4.639  1.0162  0.5981  2.2317
   60DOPE  C218 7690   1.789   6.226   4.654  0.7818 -0.8194 -0.2955
   60DOPE  H18R 7691   1.826   6.230   4.759  1.0685 -1.1483 -0.3786
   60DOPE  H18S 7692   1.680   6.207   4.658  0.2778  1.8198  3.0539
   60DOPE  H18T 7693   1.829   6.314   4.599  0.2803  0.5215  1.4201
   60DOPE   C33 7694   2.447   5.391   3.818  0.1211  0.8056 -0.7053
   60DOPE   H3X 7695   2.471   5.485   3.764 -0.8373  0.9186 -0.9557
   60DOPE   H3Y 7696   2.543   5.356   3.862 -0.5291 -1.1834 -0.7548
   60DOPE   C34 7697   2.345   5.417   3.928  0.8303 -0.2874 -0.8664
   60DOPE   H4X 7698   2.256   5.471   3.889  1.0620  0.0893 -0.8853
   60DOPE   H4Y 7699   2.313   5.314   3.954 -0.6083  0.1021 -1.0139
   60DOPE   C35 7700   2.402   5.486   4.051  0.2453 -0.2327 -0.7661
   60DOPE   H5X 7701   2.439   5.587   4.023 -1.0196  0.4043 -0.1807
   60DOPE   H5Y 7702   2.481   5.420   4.094  0.2560  0.2106 -0.0857
   60DOPE   C36 7703   2.299   5.520   4.167  0.1628 -0.0816 -1.1691
   60DOPE   H6X 7704   2.248   5.430   4.208 -2.7073  0.3529 -3.4345
   60DOPE   H6Y 7705   2.214   5.578   4.125 -0.5569  0.0792  0.4295
   60DOPE   C37 7706   2.383   5.581   4.279 -0.1425  0.3880 -0.4946
   60DOPE   H7X 7707   2.472   5.517   4.296 -0.7363 -0.2707  0.1629
   60DOPE   H7Y 7708   2.421   5.682   4.254 -1.7604  0.7304 -1.6806
   60DOPE   C38 7709   2.299   5.597   4.409  0.0043 -0.3838 -0.2983
   60DOPE   H8X 7710   2.256   5.496   4.422  1.6330 -0.9505  1.1579
   60DOPE   H8Y 7711   2.223   5.674   4.387  0.3455  0.6225  1.8337
   60DOPE   C39 7712   2.388   5.638   4.528 -0.1163  0.1383  0.2438
   60DOPE   H9X 7713   2.450   5.560   4.574  1.6015  2.1070  1.4757
   60DOPE  C310 7714   2.412   5.762   4.575  0.4081 -0.5372  0.5335
   60DOPE  H10X 7715   2.480   5.765   4.660  0.5004  1.3840  0.4308
   60DOPE  C311 7716   2.347   5.893   4.530  0.0088 -0.4206  0.1688
   60DOPE  H11X 7717   2.277   5.871   4.446  0.3484  1.2416 -0.6050
   60DOPE  H11Y 7718   2.287   5.948   4.606 -2.1901  0.9608 -2.3708
   60DOPE  C312 7719   2.458   5.991   4.491 -0.5663 -0.1285  0.0865
   60DOPE  H12X 7720   2.524   6.009   4.579  0.8902 -0.0056 -0.9979
   60DOPE  H12Y 7721   2.405   6.084   4.462 -0.2755 -0.2243 -0.7700
   60DOPE  C313 7722   2.535   5.949   4.366  0.4489 -0.3428 -0.1157
   60DOPE  H13X 7723   2.592   5.854   4.381  0.0687 -0.9438 -2.0827
   60DOPE  H13Y 7724   2.467   5.921   4.283  0.0301 -2.3976  0.8500
   60DOPE  C314 7725   2.631   6.063   4.330 -0.1047  0.3267  0.4931
   60DOPE  H14X 7726   2.674   6.122   4.414 -1.1401 -0.1956  1.3987
   60DOPE  H14Y 7727   2.571   6.137   4.273 -0.6685  0.0179  0.6773
   60DOPE  C315 7728   2.735   6.009   4.235 -0.5496  0.7310 -0.1201
   60DOPE  H15X 7729   2.763   5.908   4.273 -5.8629 -1.3485 -0.7587
   60DOPE  H15Y 7730   2.817   6.082   4.249 -1.0657  1.1607  0.7101
   60DOPE  C316 7731   2.683   6.009   4.092  0.0107  0.2459  0.0132
   60DOPE  H16X 7732   2.704   6.107   4.043  0.6593  0.7451  1.2268
   60DOPE  H16Y 7733   2.576   5.980   4.093  0.6814 -2.4973  0.5561
   60DOPE  C317 7734   2.763   5.900   4.014 -0.1152 -0.3840 -0.1243
   60DOPE  H17X 7735   2.873   5.901   4.029 -0.1324 -0.3697 -0.0017
   60DOPE  H17Y 7736   2.727   5.801   4.049 -2.7412  1.6872  3.7379
   60DOPE  C318 7737   2.742   5.917   3.862 -0.1020 -0.2063 -0.1044
   60DOPE  H18X 7738   2.642   5.885   3.827  0.6771 -2.9920  0.0237
   60DOPE  H18Y 7739   2.762   6.024   3.839 -0.8341 -0.0598 -0.0806
   60DOPE  H18Z 7740   2.814   5.851   3.810 -3.1686 -4.7501  0.8758
   6123SM     N 7741   3.912   2.787   7.583  0.2689 -0.3851  0.4157
   6123SM   C15 7742   3.810   2.844   7.683 -0.3443 -0.1826  0.6366
   6123SM  H15A 7743   3.872   2.870   7.768 -0.9799  1.8083  0.5536
   6123SM  H15B 7744   3.737   2.767   7.700 -0.2943 -0.7006 -1.2705
   6123SM  H15C 7745   3.770   2.941   7.658 -0.0487 -0.6357 -1.8903
   6123SM   C14 7746   4.012   2.899   7.571 -0.3036 -0.2764 -0.1807
   6123SM  H14A 7747   4.108   2.858   7.540  0.7290  1.4504  0.5960
   6123SM  H14B 7748   4.027   2.952   7.664 -2.1110  0.3692 -0.2298
   6123SM  H14C 7749   3.989   2.969   7.492  0.5702  1.0238  0.6790
   6123SM   C13 7750   3.975   2.669   7.651 -0.4136  0.0651 -0.0141
   6123SM  H13A 7751   4.050   2.629   7.585  0.9010 -0.0999  1.5138
   6123SM  H13B 7752   3.893   2.603   7.674  0.0815  0.2601  2.6436
   6123SM  H13C 7753   4.020   2.700   7.745  0.9779 -0.5277 -0.4568
   6123SM   C12 7754   3.841   2.745   7.456 -0.0576 -0.0720  0.6134
   6123SM  H12A 7755   3.768   2.818   7.425  1.4258  1.2445  0.0770
   6123SM  H12B 7756   3.772   2.669   7.489  1.3960 -0.7647  2.2149
   6123SM   C11 7757   3.917   2.689   7.335 -0.1614  0.4393 -0.0583
   6123SM  H11A 7758   3.854   2.655   7.249  0.7461 -0.1551 -0.4997
   6123SM  H11B 7759   3.970   2.596   7.366  1.7324  1.6821  0.5720
   6123SM     P 7760   4.139   2.743   7.204 -0.0298 -0.3810 -0.2650
   6123SM   O13 7761   4.243   2.852   7.220 -0.2695  0.7304 -0.6531
   6123SM   O14 7762   4.184   2.609   7.248 -0.3251  0.0364  0.6745
   6123SM   O11 7763   4.082   2.741   7.057  0.2302  0.2220 -0.1641
   6123SM   O12 7764   4.013   2.781   7.291 -0.3792 -0.1082  0.9259
   6123SM   C1S 7765   4.009   2.864   7.016  0.1559 -0.4233 -0.5329
   6123SM   H1S 7766   4.067   2.956   7.039  1.7843 -1.5716  0.1658
   6123SM   H1T 7767   3.914   2.859   7.073  1.0575 -2.1621  0.9510
   6123SM    NF 7768   3.906   2.975   6.834 -0.6550 -0.7331 -0.0791
   6123SM   HNF 7769   3.807   2.974   6.837 -0.6871 -0.4007 -0.7826
   6123SM   C2S 7770   3.974   2.855   6.866  0.6221  0.7398  0.2437
   6123SM   H2S 7771   4.069   2.837   6.810  0.3074  2.8943 -1.1102
   6123SM   C3S 7772   3.880   2.731   6.834  0.5198 -0.2422 -0.0840
   6123SM   H3S 7773   3.790   2.734   6.900  1.1461  0.7109  0.7531
   6123SM    O3 7774   3.941   2.600   6.854 -0.6996 -0.8784 -0.0517
   6123SM   HO3 7775   4.015   2.626   6.909 -1.5744 -1.3560  1.4297
   6123SM   C4S 7776   3.830   2.747   6.689 -0.2809 -0.0011 -0.0958
   6123SM   H4S 7777   3.734   2.800   6.684 -0.2225  0.1426  0.2384
   6123SM   C5S 7778   3.873   2.684   6.572  0.5971  0.2165 -0.1767
   6123SM   H5S 7779   3.952   2.609   6.591 -1.4953 -1.7319  1.4449
   6123SM   C6S 7780   3.829   2.705   6.434 -0.3342 -0.3027 -0.5022
   6123SM   H6S 7781   3.819   2.614   6.372 -1.2049  0.3058 -1.2791
   6123SM   H6T 7782   3.906   2.766   6.381  0.1924 -0.2295  0.3234
   6123SM   C7S 7783   3.694   2.782   6.417  0.0321  0.5529  0.0351
   6123SM   H7S 7784   3.703   2.880   6.470  4.9377 -0.2356  1.2276
   6123SM   H7T 7785   3.615   2.726   6.472  0.9682 -2.6970 -1.6488
   6123SM   C8S 7786   3.642   2.791   6.275 -1.0532  0.6574 -0.5999
   6123SM   H8S 7787   3.580   2.702   6.248 -1.2372  1.0319 -1.4558
   6123SM   H8T 7788   3.732   2.792   6.209 -0.3437  2.5084  0.3424
   6123SM   C9S 7789   3.565   2.920   6.243 -0.1005  0.2326 -0.5509
   6123SM   H9S 7790   3.626   3.014   6.245  0.7378 -0.2067 -2.4522
   6123SM   H9T 7791   3.496   2.934   6.328  0.1785  1.4430 -0.4985
   6123SM  C10S 7792   3.482   2.922   6.118  0.1548 -0.7466 -0.5919
   6123SM  H10S 7793   3.413   3.009   6.112  0.2217 -0.6238  0.2795
   6123SM  H10T 7794   3.422   2.829   6.109  0.0624 -0.6070 -1.5135
   6123SM  C11S 7795   3.572   2.921   5.989 -0.1669  0.2480 -0.4253
   6123SM  H11S 7796   3.628   2.825   5.990  0.7234  0.7510  0.5680
   6123SM  H11T 7797   3.649   3.000   6.002  0.5259 -0.8684  4.4188
   6123SM  C12S 7798   3.499   2.932   5.865 -0.5063 -0.3488  0.2313
   6123SM  H12S 7799   3.448   3.031   5.863 -0.6873 -0.4336 -1.8686
   6123SM  H12T 7800   3.423   2.852   5.869  0.2795 -1.0739  1.1407
   6123SM  C13S 7801   3.588   2.919   5.739 -0.0532 -0.0802  0.0898
   6123SM  H13S 7802   3.644   2.823   5.743 -0.0433 -0.0554  0.5987
   6123SM  H13T 7803   3.662   3.002   5.735 -0.3786  0.4508  3.1278
   6123SM  C14S 7804   3.508   2.921   5.608 -0.5735 -0.3726  1.1539
   6123SM  H14S 7805   3.449   3.015   5.600  1.5762  1.0409  0.9421
   6123SM  H14T 7806   3.443   2.831   5.616  0.0868 -1.2392 -1.8967
   6123SM  C15S 7807   3.597   2.893   5.477  1.3512  0.1210 -0.5460
   6123SM  H15S 7808   3.667   2.810   5.497 -0.9831 -1.2655  2.7949
   6123SM  H15T 7809   3.660   2.984   5.462 -1.5332  2.2119 -0.9048
   6123SM  C16S 7810   3.501   2.869   5.349  0.0561 -0.9590 -0.4910
   6123SM  H16S 7811   3.440   2.960   5.334  0.1303 -1.0461 -1.4186
   6123SM  H16T 7812   3.429   2.795   5.389  1.8443 -1.9880  0.9950
   6123SM  C17S 7813   3.579   2.815   5.232  0.4855 -0.6661  0.5269
   6123SM  H17S 7814   3.626   2.717   5.257 -3.4316 -3.0401 -0.5641
   6123SM  H17T 7815   3.657   2.885   5.196 -1.0991  0.3212 -1.1223
   6123SM  C18S 7816   3.484   2.780   5.115 -0.3206 -0.3541  0.3843
   6123SM  H18S 7817   3.540   2.759   5.022 -1.0563 -1.2416  0.1213
   6123SM  H18T 7818   3.406   2.859   5.106 -0.3173 -0.2708  1.0047
   6123SM  H18U 7819   3.417   2.696   5.144 -1.4054  0.5571  0.6215
   6123SM   C1F 7820   3.974   3.084   6.803 -0.8799  0.4233 -0.2436
   6123SM    OF 7821   4.095   3.089   6.823  0.0395  0.3723 -0.4889
   6123SM   C2F 7822   3.897   3.201   6.754  0.4128  0.3980 -0.6287
   6123SM   H2F 7823   3.966   3.286   6.772  0.3489 -0.1127  2.4502
   6123SM   H2G 7824   3.807   3.217   6.817  1.7141 -0.0379  1.4170
   6123SM   C3F 7825   3.851   3.170   6.608 -0.2979  0.0356 -0.1869
   6123SM   H3F 7826   3.789   3.260   6.587 -3.0229 -1.5949  0.5059
   6123SM   H3G 7827   3.783   3.084   6.596 -0.3599 -0.1287  1.1467
   6123SM   C4F 7828   3.974   3.152   6.509 -0.2948 -0.4658 -0.0132
   6123SM   H4F 7829   4.055   3.087   6.548  0.4605 -1.0031 -2.3242
   6123SM   H4G 7830   4.019   3.252   6.496  0.5095 -1.0640 -2.2374
   6123SM   C5F 7831   3.926   3.111   6.372  0.0541 -0.1578 -0.0046
   6123SM   H5F 7832   3.836   3.173   6.348 -0.4399 -0.7611  0.2666
   6123SM   H5G 7833   3.900   3.003   6.380  3.8826 -1.1460  1.3984
   6123SM   C6F 7834   4.020   3.120   6.254 -0.3482 -0.3053  0.1241
   6123SM   H6F 7835   4.115   3.064   6.270  0.5976  0.5295 -2.1017
   6123SM   H6G 7836   4.055   3.224   6.237  0.9233 -0.7726 -0.2325
   6123SM   C7F 7837   3.944   3.079   6.126  0.0339  0.7808  0.6131
   6123SM   H7F 7838   3.850   3.137   6.120 -1.1939 -1.1981 -0.3015
   6123SM   H7G 7839   3.923   2.970   6.128  1.3602  0.4435 -0.9973
   6123SM   C8F 7840   4.032   3.100   6.003 -0.3527  0.2663  0.1928
   6123SM   H8F 7841   4.128   3.049   6.025  0.0598  0.3931 -1.2521
   6123SM   H8G 7842   4.044   3.208   5.983  1.1254 -0.3061 -2.5567
   6123SM   C9F 7843   3.970   3.027   5.885  0.0814 -0.3048  0.1938
   6123SM   H9F 7844   3.860   3.022   5.873  0.0218 -2.2874  1.2562
   6123SM   H9G 7845   4.004   2.923   5.903 -0.3717 -0.5356 -0.2683
   6123SM  C10F 7846   4.040   3.073   5.756  0.2325  0.3381  0.3941
   6123SM  H10F 7847   4.147   3.051   5.775  0.1182  0.4749  1.2199
   6123SM  H10G 7848   4.025   3.183   5.748 -0.7934  0.1451 -0.6250
   6123SM  C11F 7849   3.997   2.995   5.630  0.4859 -0.4358  0.0422
   6123SM  H11F 7850   3.889   3.008   5.607  1.0026  3.0721 -1.0382
   6123SM  H11G 7851   4.015   2.887   5.648 -0.4969 -0.7302 -0.6601
   6123SM  C12F 7852   4.066   3.041   5.502 -0.1560 -0.2973  0.3190
   6123SM  H12F 7853   4.176   3.038   5.512 -0.0416  0.3575 -0.5692
   6123SM  H12G 7854   4.046   3.147   5.477  1.5317  0.2603  1.1750
   6123SM  C13F 7855   4.037   2.959   5.376 -0.1231  0.1463  0.1812
   6123SM  H13F 7856   3.929   2.951   5.350  0.2556 -0.2443 -1.3860
   6123SM  H13G 7857   4.075   2.856   5.389  3.5952  1.3968  0.2584
   6123SM  C14F 7858   4.114   3.014   5.254 -0.3243  0.4640 -0.3573
   6123SM  H14F 7859   4.133   3.123   5.269  2.0143  0.0349  0.2767
   6123SM  H14G 7860   4.049   2.991   5.168 -2.7031  1.4893  1.0703
   6123SM  C15F 7861   4.244   2.932   5.242  0.0960 -0.0929  0.0762
   6123SM  H15F 7862   4.228   2.857   5.162  1.6620  0.0222 -0.3730
   6123SM  H15G 7863   4.275   2.876   5.332  0.5832 -0.6811 -0.4482
   6123SM  C16F 7864   4.364   3.017   5.197  0.2120 -0.2230 -0.2505
   6123SM  H16F 7865   4.342   3.069   5.101 -1.7236 -1.3096 -0.4367
   6123SM  H16G 7866   4.447   2.945   5.181  0.1289 -0.3815  0.0267
   6123SM  C17F 7867   4.405   3.113   5.308  0.2059  0.0347 -0.5771
   6123SM  H17F 7868   4.401   3.051   5.399 -1.0137  0.0272 -0.6072
   6123SM  H17G 7869   4.326   3.188   5.333  0.8118  0.9420 -1.3102
   6123SM  C18F 7870   4.534   3.192   5.293 -0.2040 -0.4061  0.3909
   6123SM  H18F 7871   4.611   3.116   5.317  0.1646  0.5020  2.3243
   6123SM  H18G 7872   4.542   3.262   5.380 -0.9908 -0.6909  0.6954
   6123SM  C19F 7873   4.556   3.282   5.167  0.7293 -0.1156  0.6650
   6123SM  H19F 7874   4.498   3.377   5.173  1.2612  0.3257 -0.7706
   6123SM  H19G 7875   4.520   3.232   5.075  0.6878  2.6101 -0.9264
   6123SM  C20F 7876   4.708   3.312   5.142  0.2163 -0.3220 -0.2942
   6123SM  H20F 7877   4.757   3.212   5.148  0.7716 -0.0018  0.8246
   6123SM  H20G 7878   4.751   3.366   5.229 -0.0797 -1.4321  0.5568
   6123SM  C21F 7879   4.756   3.385   5.013  0.1687  0.1791  0.1885
   6123SM  H21F 7880   4.695   3.478   5.000 -1.1621 -0.8065 -0.9749
   6123SM  H21G 7881   4.724   3.312   4.936 -1.5158 -0.3155  1.2885
   6123SM  C22F 7882   4.909   3.390   5.011 -0.0692 -0.6768 -0.8124
   6123SM  H22F 7883   4.949   3.368   4.910 -0.1797  0.3219 -1.0869
   6123SM  H22G 7884   4.942   3.310   5.080 -2.0128 -0.7630  0.0931
   6123SM  C23F 7885   4.952   3.529   5.063  0.1942 -0.1052 -0.0789
   6123SM  H23F 7886   4.928   3.595   4.977 -1.8725 -0.5606  0.1030
   6123SM  H23G 7887   5.061   3.533   5.082 -0.0018  1.5561  0.8542
   6123SM  H23H 7888   4.890   3.556   5.151  1.2341  1.9002  0.0843
   6223SM     N 7889   3.942   1.440   6.922  0.2815 -0.1625  0.5262
   6223SM   C15 7890   3.964   1.560   7.022  0.0498 -0.0521  0.5413
   6223SM  H15A 7891   3.885   1.579   7.093  0.1671  0.1130  0.6303
   6223SM  H15B 7892   3.983   1.658   6.981 -1.6042  0.4034  0.7869
   6223SM  H15C 7893   4.059   1.543   7.070  0.4846 -1.1992 -0.6436
   6223SM   C14 7894   3.884   1.327   7.003  0.2613  0.0837 -0.8049
   6223SM  H14A 7895   3.785   1.352   7.039  0.7284  0.3370  0.3541
   6223SM  H14B 7896   3.949   1.308   7.087  0.5331  0.3941 -0.9422
   6223SM  H14C 7897   3.875   1.243   6.936 -0.6892  0.3610 -1.0495
   6223SM   C13 7898   3.846   1.488   6.814 -0.7021  0.6215 -0.7176
   6223SM  H13A 7899   3.751   1.522   6.852 -1.5525 -1.7993 -0.5225
   6223SM  H13B 7900   3.829   1.403   6.750  0.2587  0.0763 -0.2797
   6223SM  H13C 7901   3.884   1.572   6.757  1.6356  0.2893  0.2345
   6223SM   C12 7902   4.075   1.402   6.856 -0.7410  0.5297 -0.4742
   6223SM  H12A 7903   4.137   1.356   6.932 -0.4354  0.0127 -1.0297
   6223SM  H12B 7904   4.141   1.474   6.809  1.2782 -0.0892  1.2650
   6223SM   C11 7905   4.060   1.288   6.759 -0.1654  0.0302  0.0440
   6223SM  H11A 7906   3.987   1.219   6.806  0.9742 -0.9571  0.4150
   6223SM  H11B 7907   4.153   1.228   6.746  0.6487  1.4936 -1.3159
   6223SM     P 7908   4.100   1.356   6.501 -0.6348  0.0747 -0.6262
   6223SM   O13 7909   4.163   1.486   6.527  0.0233  0.1059  0.1363
   6223SM   O14 7910   4.196   1.241   6.481 -0.2587 -0.1742  0.1875
   6223SM   O11 7911   4.012   1.375   6.381  0.1237 -0.0135 -0.0684
   6223SM   O12 7912   4.003   1.325   6.627 -0.7436  0.1337 -0.7112
   6223SM   C1S 7913   3.902   1.466   6.407  1.5059  0.7747  0.3068
   6223SM   H1S 7914   3.923   1.562   6.458  0.8627  0.1776  1.7653
   6223SM   H1T 7915   3.834   1.416   6.478  0.0791  1.0489 -0.8090
   6223SM    NF 7916   3.739   1.603   6.289  0.0562  0.1409 -0.1323
   6223SM   HNF 7917   3.642   1.580   6.286 -0.1342  0.9146 -0.0015
   6223SM   C2S 7918   3.836   1.495   6.269 -0.4984  0.4252 -0.1165
   6223SM   H2S 7919   3.912   1.542   6.202 -3.0057  2.3491 -1.7952
   6223SM   C3S 7920   3.776   1.365   6.200  0.1414 -0.3820  0.1934
   6223SM   H3S 7921   3.683   1.343   6.255 -0.0223  1.7655  0.8675
   6223SM    O3 7922   3.858   1.251   6.214  0.0904  0.7208  0.4395
   6223SM   HO3 7923   3.927   1.271   6.278  0.3272  0.2198  0.3490
   6223SM   C4S 7924   3.739   1.387   6.051 -0.3172 -0.7417  0.1947
   6223SM   H4S 7925   3.826   1.402   5.986  0.2502  0.3943  1.1803
   6223SM   C5S 7926   3.616   1.397   6.000  0.7426  0.7101  0.0170
   6223SM   H5S 7927   3.536   1.382   6.073  2.8771 -0.8070  2.2310
   6223SM   C6S 7928   3.592   1.426   5.854  0.2428  0.2408 -0.4263
   6223SM   H6S 7929   3.660   1.499   5.805 -0.3739  0.5325 -0.8685
   6223SM   H6T 7930   3.496   1.481   5.841 -0.7898 -1.1585  0.9599
   6223SM   C7S 7931   3.582   1.296   5.772 -0.4865 -0.1959  0.7953
   6223SM   H7S 7932   3.505   1.225   5.810  0.0540 -0.3827  1.5712
   6223SM   H7T 7933   3.682   1.248   5.772  1.2229  3.0863  0.5701
   6223SM   C8S 7934   3.545   1.328   5.626 -0.4262 -0.0104  0.6137
   6223SM   H8S 7935   3.571   1.245   5.557 -1.0539 -0.1880  0.5782
   6223SM   H8T 7936   3.609   1.413   5.594  1.2190 -0.1073  3.3713
   6223SM   C9S 7937   3.397   1.358   5.599  0.5352 -0.5670 -0.4664
   6223SM   H9S 7938   3.374   1.458   5.643 -0.0547 -0.6542 -0.5732
   6223SM   H9T 7939   3.348   1.271   5.648 -1.1479  0.3207 -0.4888
   6223SM  C10S 7940   3.369   1.362   5.446 -0.9778 -0.2000 -1.3251
   6223SM  H10S 7941   3.404   1.268   5.399 -0.6368 -0.3224 -0.8241
   6223SM  H10T 7942   3.433   1.444   5.406 -0.1122 -0.2073  0.0030
   6223SM  C11S 7943   3.223   1.384   5.424 -0.0092 -0.3880  0.1964
   6223SM  H11S 7944   3.190   1.483   5.462  0.2047 -0.8299  1.5618
   6223SM  H11T 7945   3.158   1.307   5.469  0.4158  0.0716  1.6702
   6223SM  C12S 7946   3.196   1.387   5.271  0.0367  0.5151 -0.3540
   6223SM  H12S 7947   3.244   1.294   5.233  0.0378  1.5329 -3.1193
   6223SM  H12T 7948   3.252   1.474   5.230 -0.6567  0.7140 -0.8993
   6223SM  C13S 7949   3.047   1.396   5.234  0.5784  0.0621 -0.1035
   6223SM  H13S 7950   2.996   1.317   5.293 -1.2813  0.7057 -0.7944
   6223SM  H13T 7951   3.032   1.375   5.126  0.0506  1.7117 -0.3721
   6223SM  C14S 7952   2.980   1.535   5.253 -0.0887 -0.1798  0.5419
   6223SM  H14S 7953   3.025   1.616   5.192 -2.5206  2.3773  1.9178
   6223SM  H14T 7954   2.989   1.561   5.361 -0.6184  2.9369 -0.0710
   6223SM  C15S 7955   2.833   1.536   5.228 -0.0323  0.2740  0.1701
   6223SM  H15S 7956   2.777   1.522   5.323 -1.9427 -1.2852 -1.0967
   6223SM  H15T 7957   2.805   1.449   5.165 -2.4910  1.8481 -1.0976
   6223SM  C16S 7958   2.782   1.668   5.168 -0.3163 -0.0271  0.5265
   6223SM  H16S 7959   2.678   1.656   5.132  0.5726 -0.1037 -2.3374
   6223SM  H16T 7960   2.843   1.686   5.076  0.1786  1.7634  1.1723
   6223SM  C17S 7961   2.781   1.793   5.259 -0.4687 -0.7547  0.0511
   6223SM  H17S 7962   2.873   1.848   5.230 -2.0963  1.9009 -0.3921
   6223SM  H17T 7963   2.815   1.769   5.362  3.6458  2.5058 -0.3089
   6223SM  C18S 7964   2.658   1.882   5.253  0.8063 -0.0085 -0.1752
   6223SM  H18S 7965   2.631   1.915   5.151  0.8301  1.4257  0.2658
   6223SM  H18T 7966   2.675   1.972   5.316  1.7299 -1.3092  1.5098
   6223SM  H18U 7967   2.568   1.829   5.293  0.2171  1.8937  1.1755
   6223SM   C1F 7968   3.776   1.731   6.310  0.4100 -0.2768 -0.1903
   6223SM    OF 7969   3.890   1.773   6.315 -0.2721  0.7279  0.3222
   6223SM   C2F 7970   3.659   1.820   6.310  0.0804  0.0133  0.2276
   6223SM   H2F 7971   3.681   1.908   6.375  1.1837 -0.3071  0.3049
   6223SM   H2G 7972   3.567   1.768   6.344 -0.2045  0.5917  0.3651
   6223SM   C3F 7973   3.620   1.864   6.171 -0.2577 -0.1243  0.3284
   6223SM   H3F 7974   3.608   1.774   6.107 -1.6517  0.4929 -0.3512
   6223SM   H3G 7975   3.692   1.938   6.129 -0.1144 -0.1002  0.6219
   6223SM   C4F 7976   3.478   1.934   6.168 -0.2033 -0.0111 -0.1131
   6223SM   H4F 7977   3.487   2.025   6.231  2.2387  1.4801 -2.4006
   6223SM   H4G 7978   3.410   1.867   6.224  0.0901 -0.0498  0.1974
   6223SM   C5F 7979   3.423   1.967   6.027 -0.3047 -0.0721  0.6469
   6223SM   H5F 7980   3.370   1.875   5.995  1.1061 -0.4357 -0.7656
   6223SM   H5G 7981   3.509   1.987   5.960  0.1508  0.8482  1.4723
   6223SM   C6F 7982   3.319   2.076   6.030 -0.4695  0.2803 -0.4343
   6223SM   H6F 7983   3.354   2.166   6.085  0.2867 -0.2913  0.0401
   6223SM   H6G 7984   3.238   2.036   6.096  0.6339 -0.2536  0.6368
   6223SM   C7F 7985   3.270   2.120   5.897 -0.0225  0.2642  0.6083
   6223SM   H7F 7986   3.181   2.184   5.918 -1.8089 -1.8680 -0.0737
   6223SM   H7G 7987   3.229   2.032   5.843 -0.8431  1.4129 -0.7138
   6223SM   C8F 7988   3.361   2.199   5.804 -0.6528 -0.0339  0.1468
   6223SM   H8F 7989   3.453   2.139   5.782 -0.8130  0.3432 -1.7859
   6223SM   H8G 7990   3.407   2.287   5.854  0.5769 -0.7706  0.3529
   6223SM   C9F 7991   3.287   2.229   5.674 -0.0676 -0.0448 -0.1401
   6223SM   H9F 7992   3.181   2.247   5.705  0.7944  0.6675  2.6374
   6223SM   H9G 7993   3.290   2.140   5.607 -1.6043  0.2948 -0.7243
   6223SM  C10F 7994   3.337   2.354   5.607  0.2161  0.1539  1.2281
   6223SM  H10F 7995   3.439   2.324   5.573 -0.4463 -2.9331  1.6110
   6223SM  H10G 7996   3.347   2.446   5.668  0.4109  0.4842  0.7043
   6223SM  C11F 7997   3.245   2.390   5.482  0.1958 -0.6050 -0.3310
   6223SM  H11F 7998   3.181   2.471   5.520  1.5463  0.8109 -0.9509
   6223SM  H11G 7999   3.180   2.308   5.445  1.4245 -1.5653 -0.4710
   6223SM  C12F 8000   3.323   2.450   5.366  0.0565 -0.2458  0.0260
   6223SM  H12F 8001   3.400   2.517   5.410  2.8926 -3.8511  1.1533
   6223SM  H12G 8002   3.258   2.513   5.303  0.0182  1.3245  1.5571
   6223SM  C13F 8003   3.403   2.347   5.282 -0.1384  0.0724  0.5256
   6223SM  H13F 8004   3.333   2.275   5.235 -1.6397  1.9398 -0.1918
   6223SM  H13G 8005   3.477   2.290   5.343 -0.7401  1.0778  2.2568
   6223SM  C14F 8006   3.480   2.422   5.173 -0.8119 -0.6453 -0.1106
   6223SM  H14F 8007   3.568   2.470   5.219  1.0240 -0.7382 -3.2867
   6223SM  H14G 8008   3.412   2.498   5.127 -1.0929 -0.4716  0.5781
   6223SM  C15F 8009   3.522   2.334   5.050 -0.9863 -0.2994  0.0503
   6223SM  H15F 8010   3.577   2.402   4.981 -1.8248  2.3695  1.8815
   6223SM  H15G 8011   3.426   2.293   5.012 -0.9394 -1.3309  1.0005
   6223SM  C16F 8012   3.612   2.217   5.088  0.1885 -0.0012 -0.6065
   6223SM  H16F 8013   3.600   2.145   5.004 -0.9053 -0.7337  0.1622
   6223SM  H16G 8014   3.567   2.164   5.175 -0.1662  0.7999 -0.2932
   6223SM  C17F 8015   3.761   2.241   5.105 -0.7256 -0.3260  0.2592
   6223SM  H17F 8016   3.780   2.328   5.171 -0.3431 -0.8567  0.8649
   6223SM  H17G 8017   3.783   2.270   5.000 -1.3510  0.9909  0.4760
   6223SM  C18F 8018   3.853   2.119   5.141 -1.1706  0.0734 -0.1363
   6223SM  H18F 8019   3.853   2.049   5.055  1.8404  0.8647 -0.9263
   6223SM  H18G 8020   3.808   2.069   5.229 -0.4813  0.8801  0.7093
   6223SM  C19F 8021   4.000   2.159   5.168 -0.2638 -0.4093  0.0745
   6223SM  H19F 8022   4.001   2.235   5.249 -1.6694 -1.0155  0.6900
   6223SM  H19G 8023   4.047   2.202   5.077  0.4779 -1.2560  0.0427
   6223SM  C20F 8024   4.091   2.042   5.220 -0.5050 -0.4182  0.5587
   6223SM  H20F 8025   4.158   1.995   5.144 -0.1111 -1.5860  1.5853
   6223SM  H20G 8026   4.023   1.964   5.260 -0.4958 -0.1642  1.0695
   6223SM  C21F 8027   4.176   2.096   5.335  0.0487  0.3435 -0.5100
   6223SM  H21F 8028   4.215   2.019   5.406 -1.0318  0.9181  0.7439
   6223SM  H21G 8029   4.109   2.154   5.402  1.9173 -0.1777  1.9846
   6223SM  C22F 8030   4.285   2.193   5.289  0.2239  0.1427  0.2790
   6223SM  H22F 8031   4.293   2.287   5.348  1.7243  1.9144 -2.5383
   6223SM  H22G 8032   4.260   2.231   5.188 -1.8173  1.4062  1.1953
   6223SM  C23F 8033   4.425   2.139   5.280 -0.1363  0.2288  0.0028
   6223SM  H23F 8034   4.496   2.211   5.234 -0.4033 -0.4963 -1.5781
   6223SM  H23G 8035   4.426   2.047   5.220  1.6446 -0.0972  0.4687
   6223SM  H23H 8036   4.457   2.114   5.384 -0.7710 -0.7847 -0.0346
   6323SM     N 8037   5.674   3.296   7.429  0.1465  0.2765 -0.0275
   6323SM   C15 8038   5.724   3.268   7.562  0.3045  0.1455 -0.5179
   6323SM  H15A 8039   5.801   3.194   7.548 -1.2933 -2.1494  1.7182
   6323SM  H15B 8040   5.650   3.226   7.629 -0.5347 -0.0867 -1.5592
   6323SM  H15C 8041   5.778   3.347   7.612  0.0831 -1.1966  2.0398
   6323SM   C14 8042   5.790   3.326   7.334  0.5532  0.5199 -0.2693
   6323SM  H14A 8043   5.850   3.239   7.310  0.5640  0.3942  0.1889
   6323SM  H14B 8044   5.843   3.417   7.358 -0.7636  0.6310  2.7260
   6323SM  H14C 8045   5.730   3.342   7.246 -0.8651 -1.1864  0.3305
   6323SM   C13 8046   5.597   3.179   7.369 -0.1152 -0.3189  0.1198
   6323SM  H13A 8047   5.544   3.221   7.284  1.9453  0.6383 -0.7616
   6323SM  H13B 8048   5.520   3.143   7.436 -0.8380 -0.7395 -0.8932
   6323SM  H13C 8049   5.652   3.087   7.356  0.6391 -0.4064  3.2575
   6323SM   C12 8050   5.590   3.424   7.432 -0.0171 -0.3865 -0.0433
   6323SM  H12A 8051   5.649   3.500   7.482 -1.7846 -0.5570  2.4509
   6323SM  H12B 8052   5.513   3.407   7.506 -0.9638 -0.6848 -1.0764
   6323SM   C11 8053   5.543   3.488   7.301  0.0517 -0.8108  0.2771
   6323SM  H11A 8054   5.632   3.523   7.243 -1.6470  2.2042 -0.7475
   6323SM  H11B 8055   5.487   3.582   7.320  1.6587 -0.0806  1.6924
   6323SM     P 8056   5.444   3.430   7.078 -0.3855 -0.0984 -0.1943
   6323SM   O13 8057   5.401   3.310   7.006  0.1168 -0.1711 -0.1723
   6323SM   O14 8058   5.347   3.545   7.082 -0.4629 -0.2953  0.3133
   6323SM   O11 8059   5.583   3.484   7.027 -0.8235 -0.2475 -0.6212
   6323SM   O12 8060   5.461   3.396   7.229  0.1398 -0.0713 -0.5237
   6323SM   C1S 8061   5.637   3.412   6.914  0.0653 -0.7834  0.0972
   6323SM   H1S 8062   5.570   3.421   6.825 -1.3437 -1.8155  1.0052
   6323SM   H1T 8063   5.648   3.303   6.932 -0.1740 -0.8809 -0.3266
   6323SM    NF 8064   5.822   3.372   6.755  0.3751  0.3059  0.1521
   6323SM   HNF 8065   5.911   3.329   6.765  0.2995 -0.2602 -1.3535
   6323SM   C2S 8066   5.781   3.462   6.863 -0.2414  0.2072  0.5019
   6323SM   H2S 8067   5.778   3.562   6.814 -0.1375  0.4760  1.0400
   6323SM   C3S 8068   5.888   3.480   6.976 -0.3069 -0.1700  0.8135
   6323SM   H3S 8069   5.909   3.380   7.018  1.1533  1.3882  4.1092
   6323SM    O3 8070   5.849   3.545   7.091  0.4738 -0.0751  0.2160
   6323SM   HO3 8071   5.753   3.546   7.090  0.4070  1.8996 -2.3959
   6323SM   C4S 8072   6.015   3.527   6.919  0.1001 -0.1219  0.0786
   6323SM   H4S 8073   6.073   3.444   6.876 -0.8894  0.5829 -2.9196
   6323SM   C5S 8074   6.052   3.654   6.901  0.5173  0.4538  0.3374
   6323SM   H5S 8075   5.981   3.738   6.916  1.2600  1.1524  0.0025
   6323SM   C6S 8076   6.185   3.689   6.841 -0.4722 -0.0282 -0.2172
   6323SM   H6S 8077   6.219   3.766   6.914 -0.7194  1.3881 -1.5368
   6323SM   H6T 8078   6.176   3.732   6.739 -2.6660 -0.7419 -0.3656
   6323SM   C7S 8079   6.302   3.583   6.842 -0.0692 -0.6007 -0.5026
   6323SM   H7S 8080   6.273   3.501   6.773 -0.5144 -0.4232 -0.5285
   6323SM   H7T 8081   6.303   3.542   6.945 -0.5815  1.1171  0.2124
   6323SM   C8S 8082   6.437   3.651   6.813 -0.5224  0.2103 -0.4482
   6323SM   H8S 8083   6.525   3.598   6.854  0.9448  1.8342 -1.3847
   6323SM   H8T 8084   6.428   3.752   6.859 -0.8865 -0.0992  0.1774
   6323SM   C9S 8085   6.468   3.673   6.661 -0.1387  0.5726  0.1490
   6323SM   H9S 8086   6.387   3.738   6.620 -0.6787  0.2355  0.6589
   6323SM   H9T 8087   6.481   3.574   6.611 -2.6887  0.3040 -0.1333
   6323SM  C10S 8088   6.612   3.738   6.640 -0.8229 -0.7476 -0.6039
   6323SM  H10S 8089   6.682   3.655   6.666  0.5313  0.4737 -0.2240
   6323SM  H10T 8090   6.632   3.828   6.702 -1.7155 -0.4445 -0.7525
   6323SM  C11S 8091   6.649   3.763   6.495  0.4809  0.3101  0.3534
   6323SM  H11S 8092   6.563   3.792   6.431  0.1067 -0.6139  0.4197
   6323SM  H11T 8093   6.693   3.670   6.453  1.6885  0.1676  1.8421
   6323SM  C12S 8094   6.751   3.869   6.478  0.1947 -0.0146  1.0263
   6323SM  H12S 8095   6.843   3.859   6.541  0.8074  1.5163  0.4141
   6323SM  H12T 8096   6.708   3.968   6.505  1.8776  1.6564 -1.8735
   6323SM  C13S 8097   6.791   3.873   6.330  0.0082 -0.0175  0.5525
   6323SM  H13S 8098   6.701   3.884   6.265 -2.0946 -0.9536  3.1238
   6323SM  H13T 8099   6.833   3.777   6.293  0.0669  0.4429 -0.6422
   6323SM  C14S 8100   6.886   3.989   6.299 -0.3343 -0.2542  0.1299
   6323SM  H14S 8101   6.981   3.964   6.350 -0.4066 -0.3790  0.2037
   6323SM  H14T 8102   6.858   4.087   6.344  0.5804 -0.5467  1.3677
   6323SM  C15S 8103   6.921   4.006   6.154 -0.3429  0.9363 -0.8058
   6323SM  H15S 8104   6.830   4.032   6.096 -0.3527 -0.1403 -1.2850
   6323SM  H15T 8105   6.955   3.911   6.109 -0.9618  0.0397  0.5442
   6323SM  C16S 8106   7.030   4.110   6.134 -0.2405  0.5589  0.7512
   6323SM  H16S 8107   7.112   4.086   6.205 -0.5592 -1.3413  0.5380
   6323SM  H16T 8108   6.999   4.209   6.172 -2.1524 -0.3892  1.8025
   6323SM  C17S 8109   7.088   4.119   5.995 -0.1901  0.2454 -0.0640
   6323SM  H17S 8110   7.171   4.192   6.001  0.5343 -0.6119  0.7365
   6323SM  H17T 8111   7.015   4.150   5.918 -0.1464 -3.0726 -1.6146
   6323SM  C18S 8112   7.147   3.985   5.945  0.0265  0.0063  0.3406
   6323SM  H18S 8113   7.220   3.947   6.020 -0.8089 -1.1235  0.6067
   6323SM  H18T 8114   7.202   4.003   5.850  0.7917 -1.5987  0.4483
   6323SM  H18U 8115   7.069   3.911   5.919  0.6570  0.1720 -2.3611
   6323SM   C1F 8116   5.753   3.337   6.643 -0.4890 -0.8802 -0.7090
   6323SM    OF 8117   5.637   3.366   6.627 -0.4322  0.0024 -0.0757
   6323SM   C2F 8118   5.825   3.248   6.547  0.7739  0.5634  0.4553
   6323SM   H2F 8119   5.808   3.142   6.578  1.9798 -0.2367 -1.4213
   6323SM   H2G 8120   5.935   3.263   6.556  0.6647  1.5823  0.1731
   6323SM   C3F 8121   5.788   3.277   6.396 -0.2322  0.2283 -0.3357
   6323SM   H3F 8122   5.780   3.387   6.384 -1.3399  0.2412  0.3608
   6323SM   H3G 8123   5.681   3.253   6.382 -0.8382  0.9455  2.5046
   6323SM   C4F 8124   5.875   3.215   6.285  0.4791  0.7085 -0.3499
   6323SM   H4F 8125   5.849   3.107   6.281 -1.4394  0.8768  3.3278
   6323SM   H4G 8126   5.984   3.227   6.304  0.6002 -0.3930 -0.3050
   6323SM   C5F 8127   5.841   3.270   6.144 -0.3071 -0.4036 -0.5449
   6323SM   H5F 8128   5.917   3.218   6.083  1.2438  1.4002 -0.2179
   6323SM   H5G 8129   5.875   3.374   6.131  0.2670 -0.2182  1.9623
   6323SM   C6F 8130   5.696   3.260   6.087  0.2323 -0.0970 -0.0269
   6323SM   H6F 8131   5.623   3.303   6.159 -2.7460 -0.0410 -2.8590
   6323SM   H6G 8132   5.668   3.153   6.079  2.0698 -0.5199 -1.1717
   6323SM   C7F 8133   5.666   3.321   5.947  0.5959  0.7080 -0.0727
   6323SM   H7F 8134   5.604   3.413   5.959 -0.3389 -0.0552  1.2736
   6323SM   H7G 8135   5.613   3.239   5.894  4.5337 -0.3304 -2.7984
   6323SM   C8F 8136   5.782   3.360   5.859  0.0638  0.3793  0.3799
   6323SM   H8F 8137   5.848   3.272   5.847 -0.6509 -0.2585  0.9766
   6323SM   H8G 8138   5.842   3.435   5.915  0.9980  0.1577 -0.3101
   6323SM   C9F 8139   5.757   3.408   5.715 -0.0903  0.4694  0.3964
   6323SM   H9F 8140   5.683   3.343   5.664 -1.1720  0.9853  1.2516
   6323SM   H9G 8141   5.852   3.393   5.661 -2.5088 -4.2059 -3.2395
   6323SM  C10F 8142   5.695   3.551   5.715  0.3313  0.0102 -0.3293
   6323SM  H10F 8143   5.635   3.565   5.807  0.8399  0.6967 -0.0961
   6323SM  H10G 8144   5.618   3.570   5.637 -0.8667 -1.5018  0.4263
   6323SM  C11F 8145   5.799   3.657   5.697 -0.5687 -0.2169 -0.2005
   6323SM  H11F 8146   5.875   3.634   5.620  0.0451 -2.2926  0.9634
   6323SM  H11G 8147   5.858   3.677   5.789 -0.3248 -0.0664 -0.3871
   6323SM  C12F 8148   5.741   3.799   5.668  0.2268 -0.1737  0.0507
   6323SM  H12F 8149   5.647   3.815   5.725 -0.5183 -0.6225 -1.0117
   6323SM  H12G 8150   5.712   3.791   5.561 -0.6831 -0.9881  0.3520
   6323SM  C13F 8151   5.840   3.909   5.702 -0.1597 -0.7326  0.5982
   6323SM  H13F 8152   5.934   3.902   5.642 -1.0553  0.0972 -0.9717
   6323SM  H13G 8153   5.861   3.897   5.810 -0.2238 -3.5349  0.3721
   6323SM  C14F 8154   5.770   4.044   5.684 -0.5911  0.4272  0.3703
   6323SM  H14F 8155   5.676   4.048   5.742 -0.5978 -1.1226  0.5135
   6323SM  H14G 8156   5.760   4.065   5.575  1.7642 -1.0436 -0.2111
   6323SM  C15F 8157   5.860   4.156   5.751 -0.3517  0.6081 -0.0023
   6323SM  H15F 8158   5.965   4.146   5.717 -0.4846 -0.8433 -0.0625
   6323SM  H15G 8159   5.857   4.146   5.862  1.3419  2.5583  0.2680
   6323SM  C16F 8160   5.802   4.297   5.719 -0.1275  0.0609  0.3471
   6323SM  H16F 8161   5.696   4.303   5.753 -1.7701 -1.4117 -3.8649
   6323SM  H16G 8162   5.791   4.309   5.609 -1.8789 -1.4509  0.3084
   6323SM  C17F 8163   5.878   4.419   5.771  0.0067 -0.4461 -0.3092
   6323SM  H17F 8164   5.972   4.434   5.714  0.2777 -1.7341 -0.2460
   6323SM  H17G 8165   5.897   4.400   5.879  1.7320  3.3556  0.2258
   6323SM  C18F 8166   5.793   4.554   5.764 -0.9223 -0.3428 -0.1743
   6323SM  H18F 8167   5.831   4.641   5.822  0.6762 -0.5388 -0.8632
   6323SM  H18G 8168   5.689   4.528   5.791 -1.2570 -0.8824 -1.8990
   6323SM  C19F 8169   5.794   4.615   5.620  0.0510  0.6124  0.1385
   6323SM  H19F 8170   5.771   4.534   5.547  1.0639  0.5557 -0.1279
   6323SM  H19G 8171   5.894   4.653   5.589 -0.4456  1.6095 -0.2853
   6323SM  C20F 8172   5.693   4.732   5.601 -0.1852 -0.3208 -0.0452
   6323SM  H20F 8173   5.754   4.800   5.538  2.3869 -2.2869  0.1078
   6323SM  H20G 8174   5.671   4.775   5.701  0.6220 -0.6519  0.2878
   6323SM  C21F 8175   5.553   4.698   5.539  1.2505  0.3278 -0.2597
   6323SM  H21F 8176   5.496   4.622   5.597  0.9704  1.9455  1.7159
   6323SM  H21G 8177   5.567   4.654   5.438  3.0982  0.3358 -0.0324
   6323SM  C22F 8178   5.461   4.820   5.529 -0.1344  0.6825 -0.1777
   6323SM  H22F 8179   5.449   4.876   5.625  0.6191 -0.5777  0.6794
   6323SM  H22G 8180   5.360   4.776   5.518  0.5074 -0.1644 -3.6994
   6323SM  C23F 8181   5.495   4.911   5.402  0.0043 -0.3780  0.4321
   6323SM  H23F 8182   5.524   4.861   5.307  2.1645 -0.1142  0.8955
   6323SM  H23G 8183   5.581   4.975   5.431 -0.6834  0.4829  0.6242
   6323SM  H23H 8184   5.407   4.975   5.381  0.4110  0.5011  1.2908
   6423SM     N 8185   0.254   1.983   7.314  0.5999 -0.3932  0.4420
   6423SM   C15 8186   0.313   2.120   7.322 -0.2992 -1.1344 -0.9137
   6423SM  H15A 8187   0.246   2.190   7.274  1.4594  1.8621  0.7714
   6423SM  H15B 8188   0.407   2.125   7.270 -0.2432 -0.6034 -0.7622
   6423SM  H15C 8189   0.337   2.152   7.422 -1.1975 -1.6177 -0.5306
   6423SM   C14 8190   0.355   1.884   7.363  0.2745 -0.3434 -0.1139
   6423SM  H14A 8191   0.368   1.889   7.470 -1.5533 -1.3693  0.2035
   6423SM  H14B 8192   0.452   1.903   7.320  1.5880 -1.6549  2.1102
   6423SM  H14C 8193   0.315   1.786   7.345  2.0212 -0.9954 -0.5491
   6423SM   C13 8194   0.126   1.974   7.384  0.4302 -0.1438  0.2830
   6423SM  H13A 8195   0.064   2.061   7.365  1.2685  0.9553  2.2649
   6423SM  H13B 8196   0.127   1.971   7.492  0.6007  0.9064  0.3258
   6423SM  H13C 8197   0.062   1.895   7.348 -0.9922  1.6781 -1.4416
   6423SM   C12 8198   0.227   1.964   7.162  0.1432 -0.3499  0.3712
   6423SM  H12A 8199   0.325   1.955   7.118 -0.1142 -3.0792  0.2026
   6423SM  H12B 8200   0.184   2.054   7.120  2.1869 -0.1098 -1.3607
   6423SM   C11 8201   0.155   1.834   7.107 -0.0379  0.1286 -0.8426
   6423SM  H11A 8202   0.209   1.753   7.162 -0.5007  0.1792 -0.2961
   6423SM  H11B 8203   0.172   1.830   6.998 -0.4225  1.6703 -0.9738
   6423SM     P 8204  -0.077   1.728   7.069 -0.1636  0.3698  0.3618
   6423SM   O13 8205  -0.030   1.590   7.089 -0.5894 -0.1650  0.4454
   6423SM   O14 8206  -0.216   1.743   7.117  0.5641 -0.0917  0.2915
   6423SM   O11 8207  -0.075   1.757   6.909  0.0609  0.2883 -0.0233
   6423SM   O12 8208   0.016   1.834   7.133 -0.0796  0.4225  0.5692
   6423SM   C1S 8209  -0.099   1.885   6.864  0.2216 -0.4455  0.5533
   6423SM   H1S 8210  -0.007   1.947   6.865  1.4838 -2.1525 -1.4906
   6423SM   H1T 8211  -0.181   1.935   6.919 -1.6265  0.9600 -3.1330
   6423SM    NF 8212  -0.161   2.030   6.676  0.4567 -0.7119 -0.6459
   6423SM   HNF 8213  -0.256   2.062   6.674 -0.2453 -2.4061  1.4538
   6423SM   C2S 8214  -0.142   1.895   6.711  0.7154 -0.5918 -0.0965
   6423SM   H2S 8215  -0.051   1.864   6.654  0.0436 -0.6190 -1.1897
   6423SM   C3S 8216  -0.250   1.802   6.669 -0.2093 -0.9739 -0.4122
   6423SM   H3S 8217  -0.348   1.826   6.714  0.8347  2.6198  0.2379
   6423SM    O3 8218  -0.227   1.666   6.688 -0.5678 -0.4800 -0.1997
   6423SM   HO3 8219  -0.156   1.670   6.752 -0.0840 -2.5092 -0.5199
   6423SM   C4S 8220  -0.262   1.824   6.520  0.0444 -0.2853 -0.1150
   6423SM   H4S 8221  -0.356   1.877   6.497  1.3698  2.2368 -0.0717
   6423SM   C5S 8222  -0.188   1.785   6.414  0.6606  0.0086 -0.0691
   6423SM   H5S 8223  -0.108   1.710   6.426 -0.7403 -1.6960 -0.8985
   6423SM   C6S 8224  -0.221   1.818   6.274  0.3123  0.3371 -0.5548
   6423SM   H6S 8225  -0.151   1.767   6.204 -2.5305 -1.2391 -2.4963
   6423SM   H6T 8226  -0.222   1.927   6.254 -3.0062  0.1512 -2.1574
   6423SM   C7S 8227  -0.357   1.759   6.225 -0.1759  0.0087  0.4878
   6423SM   H7S 8228  -0.442   1.792   6.288  0.6795  0.6750  1.3276
   6423SM   H7T 8229  -0.352   1.648   6.228  0.1293 -0.0011 -0.2250
   6423SM   C8S 8230  -0.397   1.798   6.082 -0.5142 -0.5886 -0.7524
   6423SM   H8S 8231  -0.406   1.907   6.063  0.3489 -0.4914 -0.6437
   6423SM   H8T 8232  -0.500   1.758   6.071 -0.9300 -0.3747  1.6409
   6423SM   C9S 8233  -0.307   1.729   5.978  0.5239  0.3352 -0.0322
   6423SM   H9S 8234  -0.293   1.621   5.999 -1.7338  0.0821  0.4710
   6423SM   H9T 8235  -0.212   1.787   5.985  0.0412  1.0638  0.6492
   6423SM  C10S 8236  -0.346   1.735   5.828 -0.2146 -0.0912 -0.3962
   6423SM  H10S 8237  -0.346   1.835   5.779 -0.5716  0.1041  0.0002
   6423SM  H10T 8238  -0.451   1.700   5.820 -0.1588 -0.0156 -1.7087
   6423SM  C11S 8239  -0.256   1.631   5.745 -0.3205 -0.2110  0.1254
   6423SM  H11S 8240  -0.259   1.531   5.794  1.8507 -0.4157 -0.0672
   6423SM  H11T 8241  -0.152   1.669   5.745 -1.2550  2.6220 -1.2661
   6423SM  C12S 8242  -0.302   1.615   5.603  0.5094  0.4802 -0.4934
   6423SM  H12S 8243  -0.287   1.718   5.564  1.9752  0.0717 -1.0754
   6423SM  H12T 8244  -0.407   1.579   5.595  1.2132 -1.7684 -0.2860
   6423SM  C13S 8245  -0.216   1.513   5.532  0.5936 -0.2343 -0.1816
   6423SM  H13S 8246  -0.225   1.410   5.572 -1.1496 -0.0087  0.1121
   6423SM  H13T 8247  -0.113   1.547   5.553 -0.2496  1.6699  1.2706
   6423SM  C14S 8248  -0.237   1.504   5.377 -0.2198 -0.5005 -0.4407
   6423SM  H14S 8249  -0.211   1.606   5.343 -0.1026 -0.3577  0.0649
   6423SM  H14T 8250  -0.345   1.481   5.360  0.3819 -3.4270 -0.9183
   6423SM  C15S 8251  -0.147   1.397   5.314  0.6409 -0.2305  0.3361
   6423SM  H15S 8252  -0.184   1.295   5.337  0.5889  0.2416  2.5164
   6423SM  H15T 8253  -0.056   1.402   5.377  0.5443 -3.8853  0.9586
   6423SM  C16S 8254  -0.127   1.404   5.167 -0.3642 -1.0439 -0.1187
   6423SM  H16S 8255  -0.047   1.335   5.133  1.6013  1.2177 -0.3936
   6423SM  H16T 8256  -0.099   1.506   5.131 -3.1475 -0.6355 -1.3912
   6423SM  C17S 8257  -0.256   1.380   5.089  0.0064  0.2918 -0.1458
   6423SM  H17S 8258  -0.321   1.468   5.106  0.1999 -0.1869  3.9094
   6423SM  H17T 8259  -0.324   1.306   5.137  0.0876  2.0528  2.8758
   6423SM  C18S 8260  -0.229   1.359   4.934 -0.0983  0.0851  0.6335
   6423SM  H18S 8261  -0.328   1.375   4.886  0.8520  2.1466 -0.7944
   6423SM  H18T 8262  -0.187   1.257   4.921 -0.3508  0.0595  0.0050
   6423SM  H18U 8263  -0.170   1.446   4.897 -2.3143  1.5198  0.2774
   6423SM   C1F 8264  -0.066   2.119   6.685  0.4667 -0.1020  0.2591
   6423SM    OF 8265   0.052   2.087   6.684 -0.0592  0.2164 -0.1385
   6423SM   C2F 8266  -0.124   2.259   6.695  0.1990 -0.5744 -0.2441
   6423SM   H2F 8267  -0.124   2.263   6.806  0.5191 -0.6702 -0.2417
   6423SM   H2G 8268  -0.229   2.267   6.659 -1.1045 -1.5003  2.9790
   6423SM   C3F 8269  -0.039   2.374   6.636 -0.1232 -0.3774 -0.2739
   6423SM   H3F 8270   0.055   2.366   6.694 -0.8472  0.3039  1.0620
   6423SM   H3G 8271  -0.096   2.463   6.672 -0.2405 -0.3584 -0.5063
   6423SM   C4F 8272  -0.032   2.371   6.487 -0.4412  0.4690  0.0968
   6423SM   H4F 8273  -0.133   2.390   6.446 -0.3880  2.3554  0.7363
   6423SM   H4G 8274   0.008   2.274   6.451  0.3768  0.9382 -0.3032
   6423SM   C5F 8275   0.049   2.500   6.439 -0.4178 -0.5288  0.6370
   6423SM   H5F 8276   0.133   2.518   6.510 -0.8531  2.2426  0.5659
   6423SM   H5G 8277  -0.026   2.581   6.448 -0.7794 -0.8124  0.2077
   6423SM   C6F 8278   0.109   2.481   6.296  0.0011  0.6514 -0.3237
   6423SM   H6F 8279   0.184   2.399   6.301 -1.2593 -0.5148 -0.1920
   6423SM   H6G 8280   0.151   2.573   6.249  1.4783  0.0104 -0.3215
   6423SM   C7F 8281   0.015   2.429   6.184  0.3791  0.1935 -0.3936
   6423SM   H7F 8282  -0.048   2.517   6.158 -1.2984 -0.7489  0.2866
   6423SM   H7G 8283  -0.051   2.344   6.215  0.4079  1.1260  2.6099
   6423SM   C8F 8284   0.077   2.399   6.047  0.0898 -0.4922  0.3763
   6423SM   H8F 8285   0.133   2.305   6.064  0.9738 -0.3904 -1.7034
   6423SM   H8G 8286   0.150   2.482   6.036  2.2389 -1.8638  2.9890
   6423SM   C9F 8287  -0.024   2.389   5.928 -0.9587  0.7325  0.5465
   6423SM   H9F 8288  -0.112   2.456   5.914 -0.6288  1.0512 -0.0289
   6423SM   H9G 8289  -0.085   2.297   5.940 -1.5209  1.2231  1.6235
   6423SM  C10F 8290   0.061   2.378   5.798  0.0521  0.0359 -0.8567
   6423SM  H10F 8291   0.126   2.289   5.804 -3.3422 -2.5968  0.9696
   6423SM  H10G 8292   0.128   2.467   5.795 -0.0735  0.1157 -1.4234
   6423SM  C11F 8293  -0.037   2.364   5.678 -0.1694 -0.0904 -0.2345
   6423SM  H11F 8294  -0.100   2.454   5.692 -0.3259 -0.2465  0.0798
   6423SM  H11G 8295  -0.109   2.281   5.697 -1.9033  1.5498  0.7349
   6423SM  C12F 8296   0.033   2.376   5.545  0.5679 -0.8976 -0.2996
   6423SM  H12F 8297   0.125   2.314   5.545  0.7676 -0.6098  0.2111
   6423SM  H12G 8298   0.069   2.481   5.555 -2.0984  0.1453 -0.7136
   6423SM  C13F 8299  -0.051   2.351   5.428 -0.5947  0.0633  0.8716
   6423SM  H13F 8300  -0.153   2.370   5.467 -1.0552  0.1498 -0.3231
   6423SM  H13G 8301  -0.048   2.242   5.406 -0.2182 -0.2463  2.3960
   6423SM  C14F 8302  -0.025   2.429   5.297  0.2096 -0.0745  0.3374
   6423SM  H14F 8303   0.077   2.396   5.270  0.4308 -0.1018  1.1830
   6423SM  H14G 8304  -0.012   2.537   5.319  1.2162 -0.4188  1.5726
   6423SM  C15F 8305  -0.125   2.396   5.185  0.2816 -0.9499 -0.8481
   6423SM  H15F 8306  -0.163   2.493   5.147  1.6916  0.9454  2.2147
   6423SM  H15G 8307  -0.213   2.349   5.234 -0.8143  2.0591  0.2918
   6423SM  C16F 8308  -0.070   2.305   5.083 -0.1104  0.2189  0.1523
   6423SM  H16F 8309  -0.009   2.222   5.124 -0.1012 -1.4081 -2.9301
   6423SM  H16G 8310   0.014   2.359   5.033 -0.0133 -0.3257 -0.2785
   6423SM  C17F 8311  -0.184   2.251   4.999 -0.1605  0.9751 -0.7945
   6423SM  H17F 8312  -0.248   2.188   5.065  0.6492 -1.0430 -1.8384
   6423SM  H17G 8313  -0.155   2.181   4.918 -2.6372 -0.7276 -0.3383
   6423SM  C18F 8314  -0.295   2.340   4.947 -0.4354 -0.5122 -0.2375
   6423SM  H18F 8315  -0.340   2.397   5.031 -0.8220  0.5993 -1.1790
   6423SM  H18G 8316  -0.378   2.271   4.918  1.2933 -2.1040 -1.6837
   6423SM  C19F 8317  -0.258   2.445   4.847  0.4107 -0.7555  0.0613
   6423SM  H19F 8318  -0.184   2.508   4.902  0.4536  1.0410 -1.8988
   6423SM  H19G 8319  -0.345   2.507   4.816  0.6736 -1.0163 -1.2550
   6423SM  C20F 8320  -0.185   2.394   4.719  0.7162 -0.4732  0.1641
   6423SM  H20F 8321  -0.110   2.317   4.748  1.0781 -1.1337 -2.3334
   6423SM  H20G 8322  -0.125   2.478   4.677  0.4007  0.8470  2.1977
   6423SM  C21F 8323  -0.275   2.322   4.617 -0.0139  0.4722  0.7875
   6423SM  H21F 8324  -0.342   2.393   4.565  0.3873 -0.8252 -1.6813
   6423SM  H21G 8325  -0.328   2.234   4.659  2.3910 -0.7855  1.3900
   6423SM  C22F 8326  -0.193   2.267   4.484 -0.3023 -0.1297 -0.2832
   6423SM  H22F 8327  -0.138   2.178   4.522  2.0100  0.1443 -2.6323
   6423SM  H22G 8328  -0.122   2.344   4.445  0.4657  0.5248  2.2329
   6423SM  C23F 8329  -0.288   2.215   4.378 -0.6723 -0.2971 -0.5853
   6423SM  H23F 8330  -0.367   2.142   4.403 -1.0930  0.5297  0.5627
   6423SM  H23G 8331  -0.241   2.174   4.285 -0.8845 -0.4288 -0.6351
   6423SM  H23H 8332  -0.356   2.293   4.339 -0.4861  0.3305  0.3184
   6523SM     N 8333   6.448   3.133   7.406  0.6680 -0.5446 -0.5545
   6523SM   C15 8334   6.427   3.240   7.301 -0.1773  0.4290  0.3073
   6523SM  H15A 8335   6.330   3.227   7.257  0.8511  0.4809 -2.1498
   6523SM  H15B 8336   6.503   3.226   7.225  0.0972  0.3863  0.5854
   6523SM  H15C 8337   6.450   3.339   7.339  2.7120  0.5502 -1.4862
   6523SM   C14 8338   6.584   3.152   7.458  0.2787  0.2505 -0.6434
   6523SM  H14A 8339   6.595   3.100   7.552 -0.3084 -1.6227 -1.5649
   6523SM  H14B 8340   6.608   3.257   7.471 -1.2822  0.4076  1.5424
   6523SM  H14C 8341   6.659   3.105   7.397  0.9625  1.2279 -0.5911
   6523SM   C13 8342   6.347   3.161   7.511 -0.1708  0.1214  0.1618
   6523SM  H13A 8343   6.321   3.075   7.572 -0.5271 -0.5915 -0.9730
   6523SM  H13B 8344   6.253   3.186   7.465 -0.0245 -1.5970 -1.1648
   6523SM  H13C 8345   6.396   3.237   7.571  1.7363 -0.4834 -0.5574
   6523SM   C12 8346   6.428   2.989   7.359  0.0525 -0.7537  0.1298
   6523SM  H12A 8347   6.324   2.972   7.339  0.2894 -1.1991 -0.7832
   6523SM  H12B 8348   6.460   2.927   7.441  3.4371 -0.9178 -1.1346
   6523SM   C11 8349   6.518   2.951   7.235  0.3892  0.5407 -0.5358
   6523SM  H11A 8350   6.486   3.021   7.155  1.1303  1.0449 -0.4018
   6523SM  H11B 8351   6.492   2.848   7.205  0.9472 -0.2624  1.5487
   6523SM     P 8352   6.740   2.844   7.310 -0.2468  0.0745 -0.0700
   6523SM   O13 8353   6.852   2.885   7.396 -0.2740 -0.2981  0.0802
   6523SM   O14 8354   6.652   2.740   7.367  0.2225 -0.3174  0.6415
   6523SM   O11 8355   6.812   2.802   7.176 -0.2678  0.1013  0.1864
   6523SM   O12 8356   6.658   2.963   7.255 -0.3439  0.4005  1.0299
   6523SM   C1S 8357   6.748   2.727   7.073  0.4948 -0.1077 -0.2526
   6523SM   H1S 8358   6.662   2.673   7.116 -0.7677  2.1149  0.1378
   6523SM   H1T 8359   6.819   2.655   7.026 -0.5328 -0.0668 -1.9487
   6523SM    NF 8360   6.642   2.715   6.849 -0.7780  0.0173  0.2512
   6523SM   HNF 8361   6.707   2.670   6.788  2.0824 -1.1126  3.7158
   6523SM   C2S 8362   6.698   2.804   6.945  0.3069 -0.5300  0.4252
   6523SM   H2S 8363   6.615   2.872   6.973 -2.1222 -3.0960 -0.1810
   6523SM   C3S 8364   6.821   2.885   6.897 -0.2983 -0.7824 -0.2349
   6523SM   H3S 8365   6.887   2.808   6.851 -1.3720 -1.9703  0.1641
   6523SM    O3 8366   6.897   2.963   6.993 -0.0801  0.6038  0.4420
   6523SM   HO3 8367   6.858   2.927   7.073 -0.7258 -2.0878 -0.9567
   6523SM   C4S 8368   6.771   2.978   6.779 -0.9861  0.7686 -0.3071
   6523SM   H4S 8369   6.794   2.937   6.680 -2.2215 -3.1337  0.8236
   6523SM   C5S 8370   6.725   3.101   6.784 -0.2714  0.4091  0.1819
   6523SM   H5S 8371   6.719   3.147   6.884 -1.5429 -2.5499  1.6017
   6523SM   C6S 8372   6.686   3.199   6.673  0.2931  0.1558  0.4666
   6523SM   H6S 8373   6.712   3.303   6.704 -1.1223 -0.2365  3.3599
   6523SM   H6T 8374   6.575   3.201   6.670  0.1174  3.7238  2.7941
   6523SM   C7S 8375   6.735   3.160   6.527  0.0268 -0.4278 -0.1045
   6523SM   H7S 8376   6.677   3.071   6.495 -0.3877 -0.0572 -0.4047
   6523SM   H7T 8377   6.842   3.147   6.551  0.3399 -2.7082 -2.3331
   6523SM   C8S 8378   6.705   3.272   6.425  0.7345 -0.8817  0.1671
   6523SM   H8S 8379   6.737   3.374   6.457  0.7896  0.3264 -3.3753
   6523SM   H8T 8380   6.595   3.283   6.416  0.7745 -0.5852  0.0557
   6523SM   C9S 8381   6.752   3.253   6.287  0.6070 -0.1926 -0.3058
   6523SM   H9S 8382   6.859   3.223   6.281  0.7622  0.4232 -0.7117
   6523SM   H9T 8383   6.740   3.349   6.233 -0.4965 -0.5873 -0.7827
   6523SM  C10S 8384   6.681   3.153   6.202  0.2360  0.1982 -0.3243
   6523SM  H10S 8385   6.572   3.175   6.200 -0.1043 -1.3516  0.1809
   6523SM  H10T 8386   6.693   3.053   6.248 -0.5481  0.5068  0.5660
   6523SM  C11S 8387   6.735   3.158   6.063 -0.2515 -0.2198 -0.1728
   6523SM  H11S 8388   6.810   3.080   6.039 -0.5463 -0.3603 -0.6631
   6523SM  H11T 8389   6.790   3.253   6.050 -0.3318 -0.2708 -0.8952
   6523SM  C12S 8390   6.624   3.150   5.962 -0.0371 -0.3501 -0.0469
   6523SM  H12S 8391   6.560   3.241   5.961 -2.8376 -2.1984  0.3251
   6523SM  H12T 8392   6.556   3.065   5.981  0.7857 -1.4029 -1.5633
   6523SM  C13S 8393   6.683   3.141   5.820 -0.2868  0.3730 -0.4098
   6523SM  H13S 8394   6.740   3.046   5.823  1.6683  1.4977  0.5108
   6523SM  H13T 8395   6.761   3.216   5.793  0.1338 -0.0923 -0.5191
   6523SM  C14S 8396   6.577   3.142   5.714  0.4018  0.0379  0.2294
   6523SM  H14S 8397   6.599   3.229   5.649 -0.9168  1.1526  1.2060
   6523SM  H14T 8398   6.479   3.178   5.753  1.5634  2.8625  0.7293
   6523SM  C15S 8399   6.542   3.007   5.642  0.0429 -0.0821  0.1991
   6523SM  H15S 8400   6.620   2.988   5.565 -0.7289  0.8209 -0.8479
   6523SM  H15T 8401   6.449   3.015   5.581  0.2087  2.8088  0.1923
   6523SM  C16S 8402   6.542   2.877   5.720 -0.6798 -0.0836  0.1616
   6523SM  H16S 8403   6.635   2.879   5.780  0.1311  0.5062 -1.0781
   6523SM  H16T 8404   6.544   2.789   5.653  0.0195  0.1177 -0.0812
   6523SM  C17S 8405   6.418   2.856   5.817  0.5339  0.0839 -0.1659
   6523SM  H17S 8406   6.316   2.863   5.773  0.2662  2.7815  0.6668
   6523SM  H17T 8407   6.420   2.939   5.892  0.3326  0.3872 -0.4926
   6523SM  C18S 8408   6.445   2.721   5.887 -0.0065  0.0746 -0.6408
   6523SM  H18S 8409   6.366   2.704   5.964  1.1658 -1.0128  0.3817
   6523SM  H18T 8410   6.553   2.723   5.913 -0.6163  0.8644  2.1667
   6523SM  H18U 8411   6.424   2.637   5.817 -0.9791 -1.8571  1.7892
   6523SM   C1F 8412   6.520   2.661   6.859 -0.5943  0.7154  0.0412
   6523SM    OF 8413   6.446   2.702   6.945  0.1526  0.3426 -0.4580
   6523SM   C2F 8414   6.479   2.544   6.771 -0.8999 -0.5694 -0.3964
   6523SM   H2F 8415   6.486   2.451   6.831  1.4986  0.9169  1.8240
   6523SM   H2G 8416   6.557   2.537   6.692  1.7990 -0.9508  2.1174
   6523SM   C3F 8417   6.340   2.550   6.713 -0.0946 -0.0019 -0.5213
   6523SM   H3F 8418   6.267   2.560   6.796 -0.9207 -2.4670 -0.8578
   6523SM   H3G 8419   6.307   2.454   6.668 -3.3139  0.4672  0.5856
   6523SM   C4F 8420   6.320   2.659   6.609  0.1734 -0.2859 -0.0991
   6523SM   H4F 8421   6.310   2.748   6.676  1.8337  0.1994 -0.4343
   6523SM   H4G 8422   6.224   2.620   6.569  0.9638 -3.2724  0.6430
   6523SM   C5F 8423   6.422   2.665   6.490  0.4770  0.7671 -0.4870
   6523SM   H5F 8424   6.427   2.558   6.462 -0.8825  0.5457  0.0054
   6523SM   H5G 8425   6.522   2.694   6.528 -0.0716  0.9364  0.9062
   6523SM   C6F 8426   6.391   2.751   6.369  0.6020 -1.0774 -0.4946
   6523SM   H6F 8427   6.296   2.713   6.325 -0.6243  1.1182  0.0746
   6523SM   H6G 8428   6.472   2.730   6.297 -0.6057  0.0503 -2.2575
   6523SM   C7F 8429   6.382   2.898   6.417 -0.1821 -0.7611  0.6282
   6523SM   H7F 8430   6.473   2.937   6.467  1.2923 -0.8309 -1.8945
   6523SM   H7G 8431   6.296   2.910   6.487 -0.1135 -1.2793  0.8114
   6523SM   C8F 8432   6.353   2.985   6.295  0.1248 -0.1724  0.0472
   6523SM   H8F 8433   6.424   2.960   6.213  1.9339 -2.3010  2.1178
   6523SM   H8G 8434   6.372   3.089   6.328 -5.4553  1.0508  0.3743
   6523SM   C9F 8435   6.208   2.953   6.250 -0.1913 -0.3436 -0.0931
   6523SM   H9F 8436   6.151   3.046   6.274 -1.6424 -1.4947  1.1509
   6523SM   H9G 8437   6.150   2.878   6.308 -0.2220 -0.0613  0.2518
   6523SM  C10F 8438   6.183   2.926   6.103 -0.2962  0.2143 -0.6134
   6523SM  H10F 8439   6.225   2.826   6.079 -1.6782 -0.1462 -1.6427
   6523SM  H10G 8440   6.242   3.002   6.048  0.4731 -1.2470 -1.9024
   6523SM  C11F 8441   6.037   2.914   6.065  0.0301 -0.1241 -0.1654
   6523SM  H11F 8442   5.980   2.971   6.141 -1.1733 -0.0968 -1.0571
   6523SM  H11G 8443   6.015   2.809   6.096 -0.8600  0.5725  1.7181
   6523SM  C12F 8444   6.012   2.950   5.926  0.3382  0.4322  0.1295
   6523SM  H12F 8445   6.058   2.884   5.850  1.9685  2.2614 -0.5614
   6523SM  H12G 8446   6.052   3.049   5.896 -2.5329  1.5031 -0.4577
   6523SM  C13F 8447   5.863   2.964   5.898 -0.2787 -0.1763 -1.0693
   6523SM  H13F 8448   5.824   3.056   5.947 -1.2561 -0.7309 -0.7814
   6523SM  H13G 8449   5.806   2.879   5.941 -0.6062 -1.5387 -3.9193
   6523SM  C14F 8450   5.834   2.976   5.745  0.4291  0.5558  0.0143
   6523SM  H14F 8451   5.874   2.884   5.699  1.1710 -0.0295  1.7233
   6523SM  H14G 8452   5.900   3.055   5.702  0.1497 -0.0708 -1.6338
   6523SM  C15F 8453   5.694   3.016   5.704 -0.2771  0.0169  0.3652
   6523SM  H15F 8454   5.668   3.116   5.743  0.2540  0.2305  0.1731
   6523SM  H15G 8455   5.619   2.942   5.738 -0.1154 -0.4469 -0.2607
   6523SM  C16F 8456   5.685   3.039   5.554  0.4450 -0.3097 -0.5077
   6523SM  H16F 8457   5.778   3.093   5.524  0.7053  0.6052  1.7644
   6523SM  H16G 8458   5.601   3.108   5.532  1.7323  1.6657  0.5039
   6523SM  C17F 8459   5.668   2.917   5.470  0.3608  0.3450  0.0291
   6523SM  H17F 8460   5.569   2.868   5.484 -0.9920  3.1103  0.7809
   6523SM  H17G 8461   5.747   2.847   5.505  0.2321  0.4334  0.4982
   6523SM  C18F 8462   5.688   2.960   5.323 -0.2515 -0.0940  0.5172
   6523SM  H18F 8463   5.780   3.023   5.311  0.6362 -1.7527 -2.4721
   6523SM  H18G 8464   5.599   3.023   5.300 -0.8094 -0.5232  1.4588
   6523SM  C19F 8465   5.693   2.847   5.221  0.3565 -0.0890  0.9940
   6523SM  H19F 8466   5.758   2.772   5.272 -0.0453 -1.2542 -0.1413
   6523SM  H19G 8467   5.738   2.883   5.126  0.7806 -2.1059  0.3784
   6523SM  C20F 8468   5.553   2.794   5.186 -0.3756 -0.0043 -0.2852
   6523SM  H20F 8469   5.482   2.873   5.153 -0.7040  0.8553  2.2889
   6523SM  H20G 8470   5.513   2.745   5.278  2.6434 -0.5381  0.8629
   6523SM  C21F 8471   5.545   2.694   5.078  0.1314  0.1669  0.1272
   6523SM  H21F 8472   5.543   2.746   4.980 -1.0981 -1.0096 -0.5108
   6523SM  H21G 8473   5.455   2.629   5.083  1.1676 -1.3024  0.6900
   6523SM  C22F 8474   5.660   2.594   5.071 -0.2435  0.5378  0.4755
   6523SM  H22F 8475   5.669   2.552   5.173  1.0196 -0.8710 -0.1658
   6523SM  H22G 8476   5.754   2.649   5.050 -1.0597  2.3491  1.3282
   6523SM  C23F 8477   5.644   2.482   4.969 -0.2908 -0.1473  0.4569
   6523SM  H23F 8478   5.543   2.437   4.987 -0.2941  0.0740  0.9887
   6523SM  H23G 8479   5.726   2.410   4.990 -1.3062 -1.3531  0.4717
   6523SM  H23H 8480   5.650   2.518   4.864  1.2568  0.0345  0.5905
   6623SM     N 8481   5.150   1.853   7.110 -0.0684  0.0287 -0.3626
   6623SM   C15 8482   5.040   1.900   7.024 -0.3400 -0.3674  0.6165
   6623SM  H15A 8483   5.057   2.001   6.990 -1.8834  0.0219  0.8995
   6623SM  H15B 8484   4.944   1.911   7.073 -0.6680  0.0353 -0.1001
   6623SM  H15C 8485   5.038   1.848   6.929  1.9693  0.4079  0.0823
   6623SM   C14 8486   5.134   1.915   7.242 -0.1433 -0.3332  0.6626
   6623SM  H14A 8487   5.220   1.892   7.304  0.5548 -0.8990 -0.4785
   6623SM  H14B 8488   5.044   1.880   7.290 -0.3449 -1.6314 -0.6268
   6623SM  H14C 8489   5.142   2.020   7.218 -0.3812 -0.8089 -1.6537
   6623SM   C13 8490   5.133   1.702   7.119  0.1792 -0.1544 -0.0599
   6623SM  H13A 8491   5.167   1.653   7.029  0.1368  0.1694 -0.2535
   6623SM  H13B 8492   5.030   1.671   7.134 -0.2004  1.0306 -0.1190
   6623SM  H13C 8493   5.186   1.664   7.205  1.9063  2.2010  0.0011
   6623SM   C12 8494   5.286   1.882   7.054 -0.3443 -0.1543  0.1902
   6623SM  H12A 8495   5.362   1.835   7.114  0.9657 -0.3390 -1.5546
   6623SM  H12B 8496   5.308   1.987   7.058  3.8707 -0.7668 -2.0818
   6623SM   C11 8497   5.321   1.831   6.907  0.2978 -0.6934  0.4875
   6623SM  H11A 8498   5.407   1.885   6.861 -0.4056 -1.6316 -2.0636
   6623SM  H11B 8499   5.242   1.846   6.831  0.4660  0.8418  0.5745
   6623SM     P 8500   5.496   1.651   6.987  0.1511  0.1986 -0.6613
   6623SM   O13 8501   5.552   1.742   7.088  0.1295  0.0812 -0.1984
   6623SM   O14 8502   5.491   1.512   7.026  0.4058 -0.2356  0.2296
   6623SM   O11 8503   5.574   1.667   6.849 -0.0927  0.2279  0.2825
   6623SM   O12 8504   5.356   1.698   6.922 -0.0455 -0.1648 -0.1320
   6623SM   C1S 8505   5.672   1.565   6.821  0.0981 -1.0273  0.3045
   6623SM   H1S 8506   5.611   1.472   6.820 -3.7979  1.2522  2.2850
   6623SM   H1T 8507   5.745   1.552   6.904 -0.6634 -2.3893  0.7984
   6623SM    NF 8508   5.811   1.502   6.626  0.7024 -0.5705 -0.3127
   6623SM   HNF 8509   5.910   1.509   6.619  0.6413  1.8828  0.4175
   6623SM   C2S 8510   5.738   1.608   6.692 -0.4383 -0.8529  0.1256
   6623SM   H2S 8511   5.655   1.639   6.625  0.1239  0.1116 -0.1382
   6623SM   C3S 8512   5.819   1.743   6.717  0.1813 -0.4728  0.1543
   6623SM   H3S 8513   5.897   1.700   6.783  1.2435  0.5740 -0.3808
   6623SM    O3 8514   5.759   1.834   6.800  0.0415  0.1920 -0.1829
   6623SM   HO3 8515   5.691   1.783   6.844 -3.6074  3.5727 -1.3303
   6623SM   C4S 8516   5.876   1.822   6.603  0.4651 -0.0062 -0.0521
   6623SM   H4S 8517   5.808   1.812   6.518 -0.0783 -2.3163  0.5954
   6623SM   C5S 8518   6.000   1.867   6.587 -0.9323 -0.1801 -0.3220
   6623SM   H5S 8519   6.063   1.843   6.674 -0.8229 -1.2613 -0.6882
   6623SM   C6S 8520   6.061   1.938   6.471  0.1371 -0.2802 -0.2794
   6623SM   H6S 8521   6.164   1.896   6.460  0.3499  0.4828 -1.4083
   6623SM   H6T 8522   6.060   2.046   6.494  0.3245 -0.6675  1.7362
   6623SM   C7S 8523   5.992   1.915   6.334 -0.0081 -0.8929 -0.3011
   6623SM   H7S 8524   5.889   1.955   6.329  0.6258  1.2092  1.9306
   6623SM   H7T 8525   5.996   1.805   6.316  2.0456 -0.6585 -1.5924
   6623SM   C8S 8526   6.075   1.985   6.223  0.1337  0.0028  0.5880
   6623SM   H8S 8527   6.185   1.970   6.226  0.3614  1.5177  0.6676
   6623SM   H8T 8528   6.056   2.094   6.237 -1.7060 -0.5092  2.6691
   6623SM   C9S 8529   6.015   1.948   6.084 -0.4595  0.1760 -0.8196
   6623SM   H9S 8530   5.905   1.931   6.094 -0.2669 -1.0347 -0.5120
   6623SM   H9T 8531   6.054   1.847   6.060 -0.4740 -0.5087  1.7223
   6623SM  C10S 8532   6.043   2.040   5.968 -0.0860  0.4816  0.1574
   6623SM  H10S 8533   6.154   2.032   5.958 -0.1805 -0.3505 -0.2971
   6623SM  H10T 8534   6.018   2.144   5.998  0.9176  0.7503  0.1221
   6623SM  C11S 8535   5.976   1.998   5.836  0.9883 -0.8281 -0.3649
   6623SM  H11S 8536   5.870   1.966   5.846  1.2708 -1.3170  1.5881
   6623SM  H11T 8537   6.031   1.912   5.793 -0.7690 -1.0444 -2.3275
   6623SM  C12S 8538   6.006   2.100   5.733 -0.1808 -0.5450  0.1184
   6623SM  H12S 8539   5.958   2.196   5.759 -1.0284 -0.1523 -2.6160
   6623SM  H12T 8540   5.962   2.063   5.639 -1.5830 -0.5028  0.7382
   6623SM  C13S 8541   6.153   2.111   5.706 -0.7442 -0.1082  0.0090
   6623SM  H13S 8542   6.195   2.011   5.681 -1.9897 -0.8707  0.8649
   6623SM  H13T 8543   6.212   2.157   5.787 -0.0920 -1.4938  0.3632
   6623SM  C14S 8544   6.184   2.207   5.590  0.5072  0.7053  0.5804
   6623SM  H14S 8545   6.115   2.179   5.507  0.3260  0.5150  0.7952
   6623SM  H14T 8546   6.289   2.187   5.558 -0.1107  0.4587 -1.4308
   6623SM  C15S 8547   6.166   2.358   5.618  0.6203 -0.2795  0.6336
   6623SM  H15S 8548   6.196   2.385   5.721  0.0485 -1.1123  1.0347
   6623SM  H15T 8549   6.057   2.375   5.607  0.6940  0.5441  1.0980
   6623SM  C16S 8550   6.243   2.445   5.516 -0.0216  0.1154  0.2697
   6623SM  H16S 8551   6.215   2.425   5.411  0.1944  3.1045 -0.4527
   6623SM  H16T 8552   6.349   2.412   5.526  0.2797  0.1812 -2.2115
   6623SM  C17S 8553   6.221   2.599   5.516 -0.3447  0.7103  0.1988
   6623SM  H17S 8554   6.230   2.629   5.623  0.6718  0.8040  0.0957
   6623SM  H17T 8555   6.116   2.613   5.481  0.0164  0.3423 -1.0868
   6623SM  C18S 8556   6.307   2.682   5.420 -0.0086 -1.0849  1.2951
   6623SM  H18S 8557   6.280   2.787   5.442  0.9593 -1.4208  4.5615
   6623SM  H18T 8558   6.278   2.657   5.316  1.5022  2.0839 -0.0230
   6623SM  H18U 8559   6.415   2.664   5.438 -0.1318 -0.7306  2.4754
   6623SM   C1F 8560   5.748   1.399   6.562  0.0263 -0.5978  0.5015
   6623SM    OF 8561   5.631   1.373   6.590 -0.1344  0.6267 -0.6234
   6623SM   C2F 8562   5.829   1.333   6.458  0.4813  0.2663  0.1166
   6623SM   H2F 8563   5.935   1.327   6.491  0.2210 -0.3444  0.8748
   6623SM   H2G 8564   5.815   1.393   6.366  2.1843  1.3833  0.5368
   6623SM   C3F 8565   5.774   1.187   6.433 -0.1034  1.0994  0.0568
   6623SM   H3F 8566   5.664   1.182   6.416 -0.1400 -1.8092  0.6866
   6623SM   H3G 8567   5.801   1.127   6.522 -0.1689 -0.1557 -0.7386
   6623SM   C4F 8568   5.836   1.119   6.310 -1.0428  0.0771 -0.3842
   6623SM   H4F 8569   5.945   1.139   6.306 -1.2220  0.9697 -0.9863
   6623SM   H4G 8570   5.794   1.180   6.228  0.9387  2.7675  0.4423
   6623SM   C5F 8571   5.811   0.970   6.291  0.8207 -0.0955  1.3375
   6623SM   H5F 8572   5.704   0.963   6.262  0.9978 -0.2901  0.7140
   6623SM   H5G 8573   5.818   0.903   6.379 -1.9752 -0.6667  1.2032
   6623SM   C6F 8574   5.897   0.901   6.181 -0.0742 -0.6427  0.5832
   6623SM   H6F 8575   5.861   0.798   6.159  0.3601 -0.3834 -1.6215
   6623SM   H6G 8576   6.004   0.887   6.210  0.1488  0.7601  0.5305
   6623SM   C7F 8577   5.896   0.967   6.042 -0.2934  0.2601  0.2473
   6623SM   H7F 8578   5.933   1.071   6.046  3.7446 -1.0305  1.6390
   6623SM   H7G 8579   5.792   0.959   6.006 -0.0029 -1.4377 -0.3111
   6623SM   C8F 8580   5.999   0.895   5.940 -0.3062 -0.1797 -0.5663
   6623SM   H8F 8581   5.959   0.794   5.916  0.1477 -0.8674  1.4199
   6623SM   H8G 8582   6.098   0.879   5.986  0.6770  1.2018 -2.0802
   6623SM   C9F 8583   6.012   0.960   5.801 -0.1627  0.4569  0.3677
   6623SM   H9F 8584   6.057   1.061   5.810  1.1607  0.0738 -1.4417
   6623SM   H9G 8585   5.908   0.960   5.761 -0.2072 -1.4262  0.3914
   6623SM  C10F 8586   6.101   0.883   5.698  0.0986  0.8720 -1.2581
   6623SM  H10F 8587   6.073   0.776   5.689  0.4980  0.6635 -0.1542
   6623SM  H10G 8588   6.203   0.884   5.742 -0.8157  1.5086  1.0237
   6623SM  C11F 8589   6.095   0.947   5.566 -0.8595 -0.5865  0.1879
   6623SM  H11F 8590   6.141   1.047   5.575  2.1246 -1.5869 -2.2286
   6623SM  H11G 8591   5.989   0.965   5.537 -1.0376 -1.1007  0.5046
   6623SM  C12F 8592   6.184   0.868   5.462  0.5903 -0.5427  0.1008
   6623SM  H12F 8593   6.113   0.784   5.447 -0.2780 -0.3560  2.6543
   6623SM  H12G 8594   6.261   0.824   5.529 -0.1803  0.4011  1.6600
   6623SM  C13F 8595   6.230   0.939   5.338 -0.2645  0.1329  0.8468
   6623SM  H13F 8596   6.309   1.012   5.369 -0.4540  0.9054 -0.4072
   6623SM  H13G 8597   6.147   0.995   5.290 -1.4346 -2.6723 -0.5846
   6623SM  C14F 8598   6.289   0.839   5.228  0.3334 -1.0721  0.1376
   6623SM  H14F 8599   6.222   0.750   5.220 -1.6148  0.3076  0.2805
   6623SM  H14G 8600   6.386   0.804   5.269 -0.8193 -1.1574  2.9965
   6623SM  C15F 8601   6.305   0.911   5.088  0.8781  0.3194 -0.0726
   6623SM  H15F 8602   6.203   0.938   5.055  1.4026  2.6642  0.0379
   6623SM  H15G 8603   6.341   0.854   5.000 -0.0673  0.0750 -0.3071
   6623SM  C16F 8604   6.414   1.024   5.082  0.5286  0.2693 -0.0441
   6623SM  H16F 8605   6.514   0.975   5.090  0.5734  0.4000  0.1955
   6623SM  H16G 8606   6.401   1.099   5.162  0.9509  1.0278 -0.6642
   6623SM  C17F 8607   6.411   1.106   4.950 -0.3175  0.3117  0.2528
   6623SM  H17F 8608   6.343   1.055   4.878  2.1476 -2.7919 -0.1180
   6623SM  H17G 8609   6.504   1.103   4.890 -0.7101  1.5981 -0.4676
   6623SM  C18F 8610   6.387   1.252   4.954  0.4473  0.0389 -0.1567
   6623SM  H18F 8611   6.288   1.268   5.002  0.8865 -0.9339  1.1195
   6623SM  H18G 8612   6.367   1.287   4.850 -0.6483  0.0051  0.0349
   6623SM  C19F 8613   6.506   1.335   5.000 -0.4524 -0.7451 -0.1038
   6623SM  H19F 8614   6.599   1.308   4.945 -2.2018 -2.5176 -2.3755
   6623SM  H19G 8615   6.510   1.309   5.108 -1.4592 -1.9183 -0.3265
   6623SM  C20F 8616   6.498   1.488   4.986  0.4888  0.7967  0.1265
   6623SM  H20F 8617   6.396   1.520   5.019 -0.4723 -0.8510 -1.0940
   6623SM  H20G 8618   6.510   1.517   4.880  0.5440 -2.3508 -0.8229
   6623SM  C21F 8619   6.608   1.559   5.065  0.0406  0.6336  1.0213
   6623SM  H21F 8620   6.707   1.530   5.024  0.0010  0.8757  0.7565
   6623SM  H21G 8621   6.599   1.532   5.173 -0.2078  2.6390  1.5473
   6623SM  C22F 8622   6.607   1.715   5.058  0.0082 -0.2295 -0.1508
   6623SM  H22F 8623   6.629   1.745   4.954  0.3053 -2.2061 -0.6863
   6623SM  H22G 8624   6.691   1.759   5.117 -0.9607  0.1840  0.9641
   6623SM  C23F 8625   6.479   1.780   5.102 -0.2292 -0.0883  0.1512
   6623SM  H23F 8626   6.403   1.756   5.025 -0.0285  0.8892 -0.3807
   6623SM  H23G 8627   6.486   1.891   5.102  1.1365 -0.1563 -0.0664
   6623SM  H23H 8628   6.450   1.737   5.199  1.6794 -2.1960 -0.1239
   6723SM     N 8629   5.251   5.870   7.211  0.2060  0.1968 -0.0420
   6723SM   C15 8630   5.346   5.806   7.304  0.2730  0.0978  0.3058
   6723SM  H15A 8631   5.401   5.886   7.352  0.8457 -0.3454  0.3941
   6723SM  H15B 8632   5.419   5.746   7.252 -0.8355  0.4399 -1.7739
   6723SM  H15C 8633   5.291   5.751   7.379 -2.5192  3.6083  1.0871
   6723SM   C14 8634   5.142   5.947   7.281 -0.2169  0.5872  0.0451
   6723SM  H14A 8635   5.083   5.885   7.348 -0.8969  3.8724  2.7373
   6723SM  H14B 8636   5.072   5.989   7.209  1.2010  0.3676 -1.5181
   6723SM  H14C 8637   5.175   6.028   7.344 -0.2471  0.3518  0.3668
   6723SM   C13 8638   5.326   5.963   7.129 -0.1688 -0.5507  0.2813
   6723SM  H13A 8639   5.395   5.905   7.069  1.2258  1.6846 -0.4327
   6723SM  H13B 8640   5.387   6.030   7.188  1.0135  0.2388 -1.7143
   6723SM  H13C 8641   5.266   6.031   7.071  1.3213  1.0969  0.5845
   6723SM   C12 8642   5.179   5.769   7.130 -0.2227 -0.1358 -0.0104
   6723SM  H12A 8643   5.102   5.825   7.080 -0.6549 -0.4615  0.2926
   6723SM  H12B 8644   5.121   5.710   7.199 -0.2846 -0.0926 -0.0258
   6723SM   C11 8645   5.254   5.679   7.027  0.7367 -0.2051 -0.2971
   6723SM  H11A 8646   5.303   5.747   6.955  0.3525  0.7116  0.2945
   6723SM  H11B 8647   5.183   5.622   6.963 -0.5945 -0.4910  1.3485
   6723SM     P 8648   5.276   5.467   7.180 -0.3032  0.0417  0.3441
   6723SM   O13 8649   5.398   5.384   7.209 -0.1881  0.0637  0.6735
   6723SM   O14 8650   5.194   5.526   7.285 -0.1427 -0.8477 -0.0837
   6723SM   O11 8651   5.181   5.383   7.078 -0.9396  0.0078 -0.1934
   6723SM   O12 8652   5.340   5.584   7.085  0.1656  0.8977 -0.3297
   6723SM   C1S 8653   5.246   5.331   6.959  0.6573  0.1576  0.0001
   6723SM   H1S 8654   5.325   5.263   6.996 -0.8065 -0.4311  2.1937
   6723SM   H1T 8655   5.294   5.417   6.906 -0.9936  0.4612 -1.0677
   6723SM    NF 8656   5.221   5.210   6.732 -0.7426 -0.7834  0.3974
   6723SM   HNF 8657   5.172   5.251   6.655 -0.9762  0.5894  1.2350
   6723SM   C2S 8658   5.152   5.252   6.860  0.1411  0.3252  0.5576
   6723SM   H2S 8659   5.119   5.162   6.916 -2.7016 -0.0041 -1.4540
   6723SM   C3S 8660   5.012   5.324   6.837 -0.6550 -0.5002 -0.4792
   6723SM   H3S 8661   5.032   5.417   6.780  0.9483  0.6974  1.8872
   6723SM    O3 8662   4.941   5.377   6.954  0.0572  0.2955  0.6928
   6723SM   HO3 8663   5.018   5.378   7.012 -1.2149 -1.6878  2.5863
   6723SM   C4S 8664   4.922   5.234   6.756  0.5635 -0.2740 -0.0490
   6723SM   H4S 8665   4.923   5.265   6.651 -1.6793  3.9059  0.9679
   6723SM   C5S 8666   4.851   5.132   6.805 -0.0183  0.9012  0.2510
   6723SM   H5S 8667   4.849   5.102   6.911 -2.1693 -1.6939 -0.4072
   6723SM   C6S 8668   4.786   5.027   6.717  0.5448 -0.4324  0.0453
   6723SM   H6S 8669   4.677   5.030   6.742  1.0881 -1.1990  2.9098
   6723SM   H6T 8670   4.815   4.931   6.765 -1.7520 -0.3699  1.7307
   6723SM   C7S 8671   4.815   5.005   6.564  0.2937  0.1446 -0.0495
   6723SM   H7S 8672   4.798   5.096   6.503 -0.5816  0.2702  0.3640
   6723SM   H7T 8673   4.731   4.936   6.540 -0.2602  0.8720 -0.2474
   6723SM   C8S 8674   4.950   4.949   6.532 -0.7871 -0.0211  0.3338
   6723SM   H8S 8675   4.985   4.883   6.614 -0.2987 -0.5737 -0.3026
   6723SM   H8T 8676   5.020   5.035   6.534 -0.2278 -0.4282 -0.7099
   6723SM   C9S 8677   4.962   4.878   6.388  0.1359  0.1302 -0.2971
   6723SM   H9S 8678   4.932   4.962   6.322 -2.1079  0.0140  0.4732
   6723SM   H9T 8679   4.887   4.796   6.381 -2.6212  2.4526 -0.1118
   6723SM  C10S 8680   5.106   4.836   6.374  0.0223  0.2421 -0.0738
   6723SM  H10S 8681   5.135   4.777   6.464  1.6592 -0.5419 -1.0607
   6723SM  H10T 8682   5.171   4.926   6.368  0.6272 -0.2578 -1.6336
   6723SM  C11S 8683   5.135   4.752   6.251 -0.1790  0.0944  1.0183
   6723SM  H11S 8684   5.072   4.662   6.264 -0.8924  0.2984 -0.7592
   6723SM  H11T 8685   5.242   4.723   6.237 -0.0990  1.8368 -4.0963
   6723SM  C12S 8686   5.100   4.824   6.114  0.0780 -0.0417  0.0853
   6723SM  H12S 8687   4.992   4.843   6.124  0.0862 -0.0121  0.1198
   6723SM  H12T 8688   5.103   4.744   6.037 -1.1480 -2.7584  2.6529
   6723SM  C13S 8689   5.188   4.946   6.076 -0.6266 -0.4168  0.2507
   6723SM  H13S 8690   5.294   4.925   6.100  0.3037  0.3761 -2.7334
   6723SM  H13T 8691   5.157   5.040   6.126 -1.6970 -0.9145  0.5585
   6723SM  C14S 8692   5.184   4.971   5.920  0.0749  0.1922 -0.4050
   6723SM  H14S 8693   5.253   4.903   5.866 -1.2330 -1.0696 -0.5350
   6723SM  H14T 8694   5.226   5.072   5.901 -0.6725  0.2382 -1.8871
   6723SM  C15S 8695   5.042   4.977   5.859  0.7561 -0.0132  0.3749
   6723SM  H15S 8696   4.987   5.067   5.893  0.3544  0.7825 -2.2248
   6723SM  H15T 8697   4.988   4.884   5.887 -0.9728  0.1938 -1.9679
   6723SM  C16S 8698   5.047   4.987   5.697  0.7126 -0.7950 -0.4133
   6723SM  H16S 8699   5.074   4.886   5.660 -1.0190 -1.2731 -0.4495
   6723SM  H16T 8700   5.121   5.064   5.665 -0.5629  1.5942  1.9853
   6723SM  C17S 8701   4.911   5.025   5.628 -0.2301 -0.8055  0.6560
   6723SM  H17S 8702   4.936   5.068   5.529  1.5848  3.0109  2.5285
   6723SM  H17T 8703   4.853   5.095   5.693 -2.1478  0.9086 -2.6477
   6723SM  C18S 8704   4.828   4.906   5.601  0.4197 -0.4553 -0.3906
   6723SM  H18S 8705   4.887   4.831   5.543  0.5764 -0.2602 -0.4855
   6723SM  H18T 8706   4.735   4.942   5.552 -0.1641 -0.7361  0.4973
   6723SM  H18U 8707   4.797   4.864   5.699  0.4545 -1.7118 -0.8880
   6723SM   C1F 8708   5.333   5.132   6.724 -0.5875 -0.1762  0.8972
   6723SM    OF 8709   5.398   5.096   6.820 -0.8586  0.6312 -0.1684
   6723SM   C2F 8710   5.373   5.102   6.582  1.1145  0.0072  0.1116
   6723SM   H2F 8711   5.354   5.186   6.512 -2.1393  0.1391  0.9733
   6723SM   H2G 8712   5.302   5.027   6.541 -0.4867  1.6231 -0.1968
   6723SM   C3F 8713   5.517   5.042   6.574  0.2122  0.2388  0.6941
   6723SM   H3F 8714   5.542   4.963   6.648 -2.2647 -1.2332  0.0478
   6723SM   H3G 8715   5.588   5.128   6.585 -0.0739  1.0228 -2.5550
   6723SM   C4F 8716   5.547   4.978   6.436  0.9674 -0.3648  0.9381
   6723SM   H4F 8717   5.508   4.875   6.424 -2.2463  0.8728 -0.3147
   6723SM   H4G 8718   5.656   4.961   6.419  0.8600  1.3284 -2.3449
   6723SM   C5F 8719   5.524   5.069   6.314  0.5490 -0.2156 -0.5091
   6723SM   H5F 8720   5.576   5.163   6.340 -0.8186  0.9180 -1.6471
   6723SM   H5G 8721   5.417   5.098   6.300  0.6202 -0.1884 -1.0216
   6723SM   C6F 8722   5.587   5.012   6.193 -0.3268 -0.4513  0.8892
   6723SM   H6F 8723   5.558   4.907   6.172 -1.1507 -0.2391  0.9318
   6723SM   H6G 8724   5.696   5.016   6.210  0.2157  0.3130 -2.0901
   6723SM   C7F 8725   5.559   5.091   6.063  0.3185 -0.3450  0.5387
   6723SM   H7F 8726   5.606   5.192   6.064 -0.4755  0.0300  0.5303
   6723SM   H7G 8727   5.449   5.106   6.061  0.5496  1.6475 -1.9121
   6723SM   C8F 8728   5.626   5.018   5.945 -0.6762  0.1141  0.4799
   6723SM   H8F 8729   5.591   4.913   5.932  0.1637 -0.0788 -0.2875
   6723SM   H8G 8730   5.735   4.999   5.955 -0.5537  0.6456  0.1790
   6723SM   C9F 8731   5.598   5.090   5.819 -0.0673  0.5933 -0.0514
   6723SM   H9F 8732   5.490   5.112   5.826 -0.5949 -1.8668  0.6818
   6723SM   H9G 8733   5.608   5.022   5.731  0.3097  3.0473 -2.0147
   6723SM  C10F 8734   5.683   5.214   5.802 -0.0873  0.8044 -1.0251
   6723SM  H10F 8735   5.786   5.173   5.803 -0.0797  0.8254 -0.5492
   6723SM  H10G 8736   5.680   5.283   5.890 -1.7976 -1.0115  0.4295
   6723SM  C11F 8737   5.675   5.280   5.669 -0.3030  0.4397  0.3485
   6723SM  H11F 8738   5.578   5.322   5.636 -0.2342 -0.0541 -0.5078
   6723SM  H11G 8739   5.702   5.208   5.590  0.8321 -0.9767  1.9540
   6723SM  C12F 8740   5.774   5.402   5.663 -0.3051  0.2070 -0.2728
   6723SM  H12F 8741   5.865   5.372   5.719 -0.0320 -0.8609 -1.2297
   6723SM  H12G 8742   5.723   5.485   5.716  0.1407  0.3090 -0.0023
   6723SM  C13F 8743   5.792   5.447   5.517  0.5206 -0.5601  0.0980
   6723SM  H13F 8744   5.792   5.361   5.448 -1.9783 -2.0880  1.8448
   6723SM  H13G 8745   5.885   5.506   5.504 -0.5092  0.5189 -3.0898
   6723SM  C14F 8746   5.676   5.529   5.462  0.0747 -0.2407  0.6875
   6723SM  H14F 8747   5.677   5.633   5.500  0.4861  0.8423 -1.9950
   6723SM  H14G 8748   5.573   5.488   5.474 -0.2947 -0.6377 -2.6212
   6723SM  C15F 8749   5.703   5.543   5.311  0.6262 -1.0842  0.3617
   6723SM  H15F 8750   5.689   5.440   5.270 -2.1954 -0.7696  0.2974
   6723SM  H15G 8751   5.810   5.569   5.299  0.2575 -0.5571 -2.2209
   6723SM  C16F 8752   5.600   5.635   5.239  0.8732 -0.2157  0.6203
   6723SM  H16F 8753   5.628   5.742   5.254 -0.0508  0.1255  0.0235
   6723SM  H16G 8754   5.496   5.638   5.280  1.7473  3.0557  3.0244
   6723SM  C17F 8755   5.601   5.613   5.085  0.2441 -0.2273  0.1629
   6723SM  H17F 8756   5.575   5.506   5.067 -2.9996  0.5503 -0.4332
   6723SM  H17G 8757   5.707   5.635   5.058  0.0890  0.2962 -0.0346
   6723SM  C18F 8758   5.503   5.706   5.007  0.2880  0.2295 -0.3224
   6723SM  H18F 8759   5.407   5.718   5.060  0.9236 -0.5105  1.0434
   6723SM  H18G 8760   5.481   5.663   4.906 -0.1652  0.0571 -0.1514
   6723SM  C19F 8761   5.549   5.849   4.987 -0.4303  0.4421  0.4130
   6723SM  H19F 8762   5.657   5.856   4.963 -0.4262 -0.0075  0.2950
   6723SM  H19G 8763   5.540   5.897   5.087 -1.0540  0.9438  0.1243
   6723SM  C20F 8764   5.466   5.917   4.884 -0.6256 -0.1706 -0.0234
   6723SM  H20F 8765   5.455   6.024   4.911 -0.1759  0.2324 -1.3976
   6723SM  H20G 8766   5.363   5.876   4.885 -0.7186 -0.0283 -1.6892
   6723SM  C21F 8767   5.527   5.919   4.739  0.2934 -0.0586 -0.4874
   6723SM  H21F 8768   5.541   5.813   4.710 -1.6734 -0.0791 -1.5029
   6723SM  H21G 8769   5.630   5.961   4.743 -0.0879  1.2165 -2.5516
   6723SM  C22F 8770   5.463   6.008   4.630  0.5664 -0.4509 -0.5917
   6723SM  H22F 8771   5.515   5.991   4.533  0.4264  0.1237 -0.7713
   6723SM  H22G 8772   5.464   6.118   4.649 -3.2291 -0.1560 -1.4003
   6723SM  C23F 8773   5.317   5.980   4.591  0.0806 -0.0438  0.1720
   6723SM  H23F 8774   5.306   5.903   4.512 -5.4626  0.0787  0.3761
   6723SM  H23G 8775   5.260   6.068   4.554  1.2164  1.3677  1.6185
   6723SM  H23H 8776   5.258   5.946   4.680  0.4012  0.7331  0.6890
   6823SM     N 8777   4.503   7.621   6.974 -0.4001 -0.1761  0.2583
   6823SM   C15 8778   4.516   7.749   7.044 -0.0976 -0.0218  0.2494
   6823SM  H15A 8779   4.453   7.753   7.132 -1.9104  2.4674 -1.0426
   6823SM  H15B 8780   4.497   7.839   6.986  0.9452 -0.0526 -0.1623
   6823SM  H15C 8781   4.616   7.773   7.077 -0.1412 -0.1545  0.4847
   6823SM   C14 8782   4.554   7.515   7.064  0.1458 -0.1134 -0.2854
   6823SM  H14A 8783   4.517   7.422   7.024  0.5433 -0.5041  0.2543
   6823SM  H14B 8784   4.530   7.530   7.168  1.1025 -1.9392  0.2292
   6823SM  H14C 8785   4.662   7.511   7.054  0.1896 -3.4660  0.4462
   6823SM   C13 8786   4.367   7.602   6.941 -0.0189 -0.3302  0.6353
   6823SM  H13A 8787   4.349   7.658   6.850  4.1206  2.4187  1.2194
   6823SM  H13B 8788   4.304   7.650   7.014  0.2141 -0.4855  0.9394
   6823SM  H13C 8789   4.353   7.495   6.933 -1.0756 -0.1575 -0.0469
   6823SM   C12 8790   4.574   7.627   6.844  0.0399 -0.2349  1.0569
   6823SM  H12A 8791   4.537   7.546   6.783  0.9352  1.3945 -1.8534
   6823SM  H12B 8792   4.680   7.614   6.860 -0.2617 -3.0571  1.3441
   6823SM   C11 8793   4.563   7.762   6.763  0.6558  0.3557  0.0007
   6823SM  H11A 8794   4.609   7.745   6.663  0.9593 -0.3467  0.2569
   6823SM  H11B 8795   4.624   7.840   6.814 -0.6180  2.2124 -1.1755
   6823SM     P 8796   4.337   7.774   6.644  0.0757  0.0312 -0.4227
   6823SM   O13 8797   4.197   7.790   6.693 -0.3207  0.6889 -0.4524
   6823SM   O14 8798   4.364   7.856   6.524  0.6120 -0.2654 -0.4451
   6823SM   O11 8799   4.380   7.626   6.625 -0.3298  0.7386  0.0016
   6823SM   O12 8800   4.434   7.822   6.758  0.1380 -0.4798  0.4430
   6823SM   C1S 8801   4.288   7.523   6.588  0.0818  1.0337 -0.4898
   6823SM   H1S 8802   4.186   7.532   6.632  0.5433 -2.2936  1.5456
   6823SM   H1T 8803   4.332   7.426   6.618  0.7744  1.4862 -0.0346
   6823SM    NF 8804   4.180   7.438   6.390 -0.7108  1.3830  0.0093
   6823SM   HNF 8805   4.207   7.346   6.362  0.6780  1.6290  0.4585
   6823SM   C2S 8806   4.285   7.523   6.431 -0.8643 -0.2110 -0.2717
   6823SM   H2S 8807   4.253   7.624   6.397  1.0845 -0.0279 -1.6813
   6823SM   C3S 8808   4.422   7.487   6.376 -0.3209  0.3898 -0.1321
   6823SM   H3S 8809   4.436   7.379   6.396 -0.5350  0.2967 -0.4784
   6823SM    O3 8810   4.539   7.541   6.436 -0.1552  0.4449 -0.2553
   6823SM   HO3 8811   4.515   7.566   6.526 -1.2997 -2.9776  0.5085
   6823SM   C4S 8812   4.430   7.498   6.219 -0.1988  0.1107 -0.2217
   6823SM   H4S 8813   4.450   7.404   6.165  0.5560 -0.6799  1.3539
   6823SM   C5S 8814   4.437   7.614   6.149 -0.8663 -0.0129 -0.2916
   6823SM   H5S 8815   4.421   7.712   6.196 -1.6970  0.0947 -0.7692
   6823SM   C6S 8816   4.456   7.614   5.997  0.6628 -0.3999 -0.1769
   6823SM   H6S 8817   4.446   7.518   5.942 -2.4822 -0.3642  0.1218
   6823SM   H6T 8818   4.553   7.658   5.967  0.9625  0.3125  1.6960
   6823SM   C7S 8819   4.335   7.694   5.941  0.9662 -0.7325 -0.5512
   6823SM   H7S 8820   4.359   7.731   5.839 -2.4731  1.3233 -0.7701
   6823SM   H7T 8821   4.310   7.782   6.004  1.5832 -0.1789 -1.0613
   6823SM   C8S 8822   4.211   7.601   5.931  0.0660 -0.3289 -0.2936
   6823SM   H8S 8823   4.133   7.662   5.882 -1.0779 -1.8166 -0.4024
   6823SM   H8T 8824   4.175   7.601   6.036 -1.4839 -0.1981 -0.8058
   6823SM   C9S 8825   4.211   7.465   5.862  0.0295  0.3809 -0.1408
   6823SM   H9S 8826   4.112   7.418   5.879  0.8456 -0.9675  1.0944
   6823SM   H9T 8827   4.281   7.395   5.912  1.7918  2.0891 -0.0728
   6823SM  C10S 8828   4.260   7.473   5.717  0.2989 -0.1818  0.8006
   6823SM  H10S 8829   4.263   7.369   5.679 -0.4008 -0.2579  0.9450
   6823SM  H10T 8830   4.364   7.511   5.715  0.9557 -1.8134  2.3289
   6823SM  C11S 8831   4.177   7.564   5.620 -0.3349  0.2796 -0.5280
   6823SM  H11S 8832   4.210   7.669   5.638 -0.0993  0.0288  0.6115
   6823SM  H11T 8833   4.077   7.540   5.661  0.6097  0.2259  1.9531
   6823SM  C12S 8834   4.183   7.510   5.474  0.2706  0.0781 -0.4908
   6823SM  H12S 8835   4.135   7.410   5.464 -0.1063  0.3845 -1.8975
   6823SM  H12T 8836   4.284   7.527   5.430 -0.4153  1.2537 -1.6736
   6823SM  C13S 8837   4.082   7.598   5.389 -0.1355 -0.1279 -1.6239
   6823SM  H13S 8838   3.987   7.594   5.446 -0.4889 -2.4963 -2.3088
   6823SM  H13T 8839   4.083   7.540   5.294  1.2482  0.0445 -1.7353
   6823SM  C14S 8840   4.128   7.738   5.365  1.0662 -0.0643  0.6711
   6823SM  H14S 8841   4.217   7.736   5.299 -0.4890  2.4643 -1.7326
   6823SM  H14T 8842   4.149   7.790   5.460  1.2307  0.6132  0.2701
   6823SM  C15S 8843   4.016   7.811   5.289 -0.1102 -0.3116  0.1076
   6823SM  H15S 8844   4.010   7.917   5.324  0.6156 -0.7391  1.6252
   6823SM  H15T 8845   3.918   7.761   5.303  0.2100 -1.3304 -1.1369
   6823SM  C16S 8846   4.060   7.825   5.146 -0.3839  0.1973  0.8625
   6823SM  H16S 8847   4.044   7.729   5.092  3.3054 -0.5948  0.9356
   6823SM  H16T 8848   4.160   7.867   5.123 -1.2180  0.5341 -2.7724
   6823SM  C17S 8849   3.975   7.936   5.078 -0.2474 -0.3431 -0.8032
   6823SM  H17S 8850   4.001   8.033   5.125  2.7847 -0.6600 -1.5866
   6823SM  H17T 8851   3.871   7.898   5.089 -0.6300  0.8575 -0.0859
   6823SM  C18S 8852   4.014   7.952   4.926 -0.0169  0.6388  0.2002
   6823SM  H18S 8853   3.953   7.876   4.872  2.4468  0.5721 -2.7671
   6823SM  H18T 8854   4.121   7.929   4.905 -0.4398  0.6463 -2.2203
   6823SM  H18U 8855   3.995   8.054   4.887  0.6842  1.7077  2.4703
   6823SM   C1F 8856   4.050   7.461   6.396 -0.2144 -0.7702  0.2453
   6823SM    OF 8857   4.008   7.560   6.448  0.5735 -0.5130  0.2440
   6823SM   C2F 8858   3.956   7.356   6.345 -0.4402  0.1919 -0.1879
   6823SM   H2F 8859   3.935   7.272   6.413  0.2836 -0.5432 -0.8458
   6823SM   H2G 8860   4.001   7.321   6.249 -2.1167 -0.1014 -0.8932
   6823SM   C3F 8861   3.824   7.418   6.293  0.2861 -0.6898  0.0880
   6823SM   H3F 8862   3.843   7.481   6.204 -1.5484 -0.9727 -0.5409
   6823SM   H3G 8863   3.765   7.474   6.369  1.0308 -0.0568  0.2145
   6823SM   C4F 8864   3.730   7.305   6.254  0.3966 -0.1250  0.2628
   6823SM   H4F 8865   3.631   7.351   6.274  0.6267  0.9114 -0.8173
   6823SM   H4G 8866   3.753   7.220   6.321  2.6186  1.4161  1.6020
   6823SM   C5F 8867   3.742   7.263   6.107 -0.0257 -0.1587  1.2589
   6823SM   H5F 8868   3.681   7.171   6.099  2.0208 -1.3664 -3.3067
   6823SM   H5G 8869   3.849   7.247   6.081  0.1447  2.6159 -0.1821
   6823SM   C6F 8870   3.689   7.362   6.000  0.8446  0.2385  1.1689
   6823SM   H6F 8871   3.764   7.444   5.994  0.1047  0.8551 -0.0998
   6823SM   H6G 8872   3.599   7.407   6.047 -0.6795 -1.8235  0.3864
   6823SM   C7F 8873   3.658   7.311   5.857 -0.3755  0.3100  0.3205
   6823SM   H7F 8874   3.614   7.210   5.870 -0.4628  0.3459  0.3004
   6823SM   H7G 8875   3.754   7.300   5.803  0.2885 -0.5179  1.6033
   6823SM   C8F 8876   3.557   7.396   5.778 -0.5046 -0.0337  0.5867
   6823SM   H8F 8877   3.604   7.491   5.744 -1.0522  0.7317  1.8867
   6823SM   H8G 8878   3.478   7.432   5.848 -0.7415 -1.5104  1.1171
   6823SM   C9F 8879   3.481   7.327   5.663  0.8246  0.4805 -0.1028
   6823SM   H9F 8880   3.401   7.387   5.614  0.6021  2.6123  2.6207
   6823SM   H9G 8881   3.421   7.245   5.708 -2.3517  1.8655 -1.4977
   6823SM  C10F 8882   3.564   7.270   5.543 -0.2148  0.3951 -0.0042
   6823SM  H10F 8883   3.510   7.195   5.481 -0.6655 -0.2775  1.1650
   6823SM  H10G 8884   3.655   7.221   5.583  0.4299  1.6406  0.0885
   6823SM  C11F 8885   3.612   7.379   5.447  0.0790 -0.3692  0.2615
   6823SM  H11F 8886   3.695   7.441   5.489  0.0519 -0.4059  0.3718
   6823SM  H11G 8887   3.527   7.448   5.427 -0.7660 -1.5978 -0.4951
   6823SM  C12F 8888   3.661   7.313   5.319  0.6248  0.1694  0.5412
   6823SM  H12F 8889   3.600   7.234   5.271  2.4208 -0.8791 -0.1121
   6823SM  H12G 8890   3.764   7.275   5.338  0.6456  0.3249  0.7512
   6823SM  C13F 8891   3.680   7.418   5.211  0.5957 -0.0806 -0.1744
   6823SM  H13F 8892   3.764   7.387   5.145 -0.4052 -0.4145 -1.3320
   6823SM  H13G 8893   3.724   7.508   5.259 -0.4260  0.3133  0.0515
   6823SM  C14F 8894   3.552   7.439   5.131 -0.5646 -0.6438  0.4573
   6823SM  H14F 8895   3.508   7.532   5.173 -1.9903 -1.1555  0.1393
   6823SM  H14G 8896   3.491   7.347   5.139  2.4267 -3.3778 -3.7298
   6823SM  C15F 8897   3.578   7.460   4.978 -0.4219  0.5930  0.9630
   6823SM  H15F 8898   3.477   7.453   4.933 -0.8657  0.3651  1.9484
   6823SM  H15G 8899   3.639   7.378   4.934 -0.8496  0.0962  1.2786
   6823SM  C16F 8900   3.632   7.597   4.958  0.2854  0.1610 -0.1439
   6823SM  H16F 8901   3.730   7.619   5.005  0.7372 -0.7994 -0.5982
   6823SM  H16G 8902   3.552   7.663   4.998 -0.3427  0.6461 -2.0581
   6823SM  C17F 8903   3.634   7.639   4.812  0.4660 -0.2220 -0.1138
   6823SM  H17F 8904   3.652   7.749   4.812 -1.0944  0.0548  0.0115
   6823SM  H17G 8905   3.541   7.615   4.756  2.1888 -1.7854 -2.5040
   6823SM  C18F 8906   3.743   7.567   4.726 -0.5676 -0.1240  0.0743
   6823SM  H18F 8907   3.713   7.470   4.681 -1.2917  0.3955 -0.5793
   6823SM  H18G 8908   3.838   7.549   4.780 -0.7123 -0.0325  0.3612
   6823SM  C19F 8909   3.787   7.668   4.615  0.4656  0.0582 -0.9359
   6823SM  H19F 8910   3.867   7.730   4.661 -1.1595 -0.4002  2.9402
   6823SM  H19G 8911   3.696   7.729   4.598  0.0961  1.1452  3.5604
   6823SM  C20F 8912   3.832   7.606   4.479  0.2935  0.4148 -0.3323
   6823SM  H20F 8913   3.918   7.539   4.501 -1.9467 -2.2067  1.1507
   6823SM  H20G 8914   3.854   7.679   4.399 -2.7649  2.1245  0.2249
   6823SM  C21F 8915   3.707   7.542   4.413  0.0989  0.1224 -0.4661
   6823SM  H21F 8916   3.641   7.628   4.388  0.2583 -0.0167 -1.4325
   6823SM  H21G 8917   3.652   7.482   4.488 -1.3808 -0.0199 -1.6058
   6823SM  C22F 8918   3.740   7.456   4.292  0.0586 -0.2269  0.0814
   6823SM  H22F 8919   3.645   7.407   4.261  0.6968  0.2701 -2.9727
   6823SM  H22G 8920   3.813   7.377   4.320 -1.1387 -0.8450  1.5920
   6823SM  C23F 8921   3.787   7.538   4.166  0.0018 -0.6539 -0.2382
   6823SM  H23F 8922   3.892   7.572   4.177 -0.9451  2.2511  1.1961
   6823SM  H23G 8923   3.733   7.635   4.159  2.3717  0.8253  0.7850
   6823SM  H23H 8924   3.780   7.485   4.069  0.2134  1.3461 -1.4061
   6923SM     N 8925   5.487   1.012   6.734 -0.2691  0.9710 -0.5256
   6923SM   C15 8926   5.453   1.149   6.676 -0.0693  0.0922  0.0056
   6923SM  H15A 8927   5.429   1.218   6.756 -0.0756  0.5893 -0.4234
   6923SM  H15B 8928   5.371   1.142   6.606  0.9349 -0.1900 -1.1805
   6923SM  H15C 8929   5.536   1.197   6.625  1.1124  1.0737  2.6334
   6923SM   C14 8930   5.356   0.953   6.790  0.0201  1.1204 -0.3319
   6923SM  H14A 8931   5.321   1.018   6.869 -0.6972  0.1820  0.1485
   6923SM  H14B 8932   5.377   0.856   6.834 -1.2376  1.5766  1.3587
   6923SM  H14C 8933   5.277   0.937   6.718 -1.2659  0.0795  1.2445
   6923SM   C13 8934   5.541   0.924   6.624 -0.2743 -0.2770 -0.3273
   6923SM  H13A 8935   5.621   0.980   6.579  0.6753 -0.5133  1.0236
   6923SM  H13B 8936   5.471   0.906   6.543 -0.4418  0.5675 -0.3797
   6923SM  H13C 8937   5.586   0.830   6.652  0.8085  0.4408  0.3884
   6923SM   C12 8938   5.600   1.034   6.837  0.6788 -0.8921 -0.7008
   6923SM  H12A 8939   5.569   1.106   6.911  1.8933  0.8324 -1.8107
   6923SM  H12B 8940   5.684   1.080   6.787  1.4473 -0.0905  1.2425
   6923SM   C11 8941   5.677   0.909   6.898 -0.1615  0.1250 -0.1020
   6923SM  H11A 8942   5.762   0.945   6.960 -0.8143  3.0497 -0.7545
   6923SM  H11B 8943   5.726   0.840   6.825 -2.1495 -2.5698  0.9580
   6923SM     P 8944   5.538   0.684   6.961 -0.4524  0.3875  0.2029
   6923SM   O13 8945   5.617   0.598   7.058  0.1038  0.0941  0.4561
   6923SM   O14 8946   5.391   0.681   6.974 -0.4360  0.0763  1.2056
   6923SM   O11 8947   5.599   0.653   6.816 -0.2813  0.0879 -0.6696
   6923SM   O12 8948   5.587   0.834   6.981  0.2001 -0.2032 -0.6965
   6923SM   C1S 8949   5.576   0.524   6.770 -0.2707  0.3998 -0.0328
   6923SM   H1S 8950   5.483   0.478   6.808 -0.3368 -0.7643 -1.5463
   6923SM   H1T 8951   5.657   0.458   6.810 -1.8160 -1.0861  0.7767
   6923SM    NF 8952   5.538   0.356   6.592 -0.3779  0.2793  0.2500
   6923SM   HNF 8953   5.611   0.290   6.578  0.9570  2.1410 -2.5511
   6923SM   C2S 8954   5.568   0.495   6.619 -0.1847 -0.5052  0.6021
   6923SM   H2S 8955   5.479   0.558   6.597 -0.4388 -1.0723  0.0101
   6923SM   C3S 8956   5.695   0.544   6.549  0.5152 -0.0474  1.2030
   6923SM   H3S 8957   5.781   0.480   6.579 -0.2798 -0.3134  3.0660
   6923SM    O3 8958   5.736   0.671   6.586  0.2714 -0.7533 -0.4078
   6923SM   HO3 8959   5.694   0.681   6.671  0.5974  4.2759 -0.5395
   6923SM   C4S 8960   5.681   0.528   6.396  0.0706  0.0727 -0.5512
   6923SM   H4S 8961   5.676   0.421   6.372 -0.2399 -0.6780  2.4064
   6923SM   C5S 8962   5.651   0.629   6.307  0.4397  0.1186  0.0331
   6923SM   H5S 8963   5.632   0.729   6.349 -1.1348 -0.2656  0.3021
   6923SM   C6S 8964   5.634   0.603   6.160  0.5166  0.0286 -0.5123
   6923SM   H6S 8965   5.580   0.507   6.147  0.3534 -0.2823  1.9817
   6923SM   H6T 8966   5.726   0.602   6.099  1.2195  1.0529  0.4935
   6923SM   C7S 8967   5.539   0.707   6.105  0.0363 -0.1667  0.0242
   6923SM   H7S 8968   5.574   0.812   6.089 -1.6138  0.5672  0.9451
   6923SM   H7T 8969   5.441   0.713   6.156 -0.1400 -1.5976 -0.1285
   6923SM   C8S 8970   5.507   0.667   5.960 -0.2438 -0.4892 -0.0916
   6923SM   H8S 8971   5.413   0.713   5.922 -1.1597 -4.2662 -2.9979
   6923SM   H8T 8972   5.465   0.565   5.952 -1.2768 -0.1639  0.8790
   6923SM   C9S 8973   5.622   0.694   5.860  0.2203  0.3623 -0.1448
   6923SM   H9S 8974   5.710   0.636   5.894  2.0108  0.7775 -3.5680
   6923SM   H9T 8975   5.651   0.802   5.867 -0.5108  0.5121  0.8050
   6923SM  C10S 8976   5.575   0.659   5.719 -0.3885  0.3490  0.1030
   6923SM  H10S 8977   5.476   0.704   5.698 -0.5825 -0.1654 -0.1145
   6923SM  H10T 8978   5.569   0.549   5.703 -0.5275  0.1770  1.2391
   6923SM  C11S 8979   5.685   0.710   5.616 -0.0580 -0.1333 -0.2946
   6923SM  H11S 8980   5.769   0.638   5.627 -0.0808 -0.0276  0.6274
   6923SM  H11T 8981   5.716   0.813   5.643  0.2276 -0.4575  0.6789
   6923SM  C12S 8982   5.637   0.695   5.472  0.5736 -0.1223 -1.0915
   6923SM  H12S 8983   5.551   0.761   5.448  0.4519  0.6878  1.2664
   6923SM  H12T 8984   5.611   0.590   5.450 -0.4406 -0.2398  0.4979
   6923SM  C13S 8985   5.758   0.727   5.378 -0.2003  0.1925 -0.0037
   6923SM  H13S 8986   5.847   0.686   5.430 -1.0870  1.7005  2.8869
   6923SM  H13T 8987   5.776   0.836   5.371  2.2338 -0.1508  0.1129
   6923SM  C14S 8988   5.734   0.671   5.236 -0.5379 -0.3936  0.2222
   6923SM  H14S 8989   5.638   0.707   5.194  0.1215  0.2200 -0.8010
   6923SM  H14T 8990   5.724   0.560   5.230  0.7391 -0.4831 -0.8604
   6923SM  C15S 8991   5.852   0.703   5.148 -0.4106 -0.2133 -0.0019
   6923SM  H15S 8992   5.926   0.627   5.181 -0.3313 -0.7535 -1.3752
   6923SM  H15T 8993   5.898   0.804   5.162 -1.5323  0.3681 -0.3334
   6923SM  C16S 8994   5.829   0.694   4.998  0.1796  0.0958 -0.0910
   6923SM  H16S 8995   5.742   0.754   4.964  0.0993  0.6864  1.0860
   6923SM  H16T 8996   5.802   0.589   4.971 -0.3193  0.2495 -0.1999
   6923SM  C17S 8997   5.949   0.742   4.907  0.3192 -0.2417 -0.3660
   6923SM  H17S 8998   6.043   0.690   4.935  2.0527  0.9644 -3.4456
   6923SM  H17T 8999   5.953   0.851   4.925 -0.6042 -0.3264  0.4422
   6923SM  C18S 9000   5.925   0.706   4.756  0.0236 -0.6001 -0.3238
   6923SM  H18S 9001   5.856   0.780   4.710  1.1553  2.8448  2.9335
   6923SM  H18T 9002   5.873   0.608   4.754 -1.8324  0.3265 -2.7897
   6923SM  H18U 9003   6.019   0.695   4.698 -1.1622 -1.4130 -2.1610
   6923SM   C1F 9004   5.417   0.308   6.596  0.2991 -0.2872 -0.6745
   6923SM    OF 9005   5.324   0.376   6.643  0.1271  0.4797 -0.3152
   6923SM   C2F 9006   5.391   0.168   6.549 -0.5532  0.2224  0.3098
   6923SM   H2F 9007   5.370   0.103   6.637  0.7647 -0.0855  0.4218
   6923SM   H2G 9008   5.489   0.123   6.520 -0.9647 -0.8541  0.5359
   6923SM   C3F 9009   5.295   0.146   6.431  0.1217 -0.0691  0.2013
   6923SM   H3F 9010   5.200   0.201   6.449  2.3572  4.4126 -0.1046
   6923SM   H3G 9011   5.284   0.037   6.412  0.0045  0.2337 -1.6524
   6923SM   C4F 9012   5.366   0.200   6.302 -0.4599  0.2489  0.7456
   6923SM   H4F 9013   5.463   0.151   6.280 -0.5390  1.2889 -2.5229
   6923SM   H4G 9014   5.387   0.309   6.310  0.3038  0.1535  0.1817
   6923SM   C5F 9015   5.281   0.175   6.169  0.1902  0.0876  0.7551
   6923SM   H5F 9016   5.196   0.246   6.176 -0.7606 -0.9213 -0.1083
   6923SM   H5G 9017   5.245   0.069   6.169 -0.1753  0.2103  0.6889
   6923SM   C6F 9018   5.362   0.211   6.042  0.1899  0.4563 -0.6524
   6923SM   H6F 9019   5.452   0.146   6.039  1.1240  1.4570  2.5566
   6923SM   H6G 9020   5.392   0.317   6.052  0.7924  0.0625  2.7197
   6923SM   C7F 9021   5.267   0.195   5.919  0.3520  0.1207 -0.0400
   6923SM   H7F 9022   5.166   0.211   5.961  0.5716 -0.6702  0.8271
   6923SM   H7G 9023   5.283   0.097   5.870 -2.6565 -0.3116 -0.2950
   6923SM   C8F 9024   5.294   0.299   5.812  0.1989  0.8093  0.3516
   6923SM   H8F 9025   5.383   0.270   5.753  1.0926  0.7846  1.6577
   6923SM   H8G 9026   5.302   0.403   5.852  0.0240  0.9961 -0.0905
   6923SM   C9F 9027   5.182   0.304   5.706  0.4989 -0.0582  0.8358
   6923SM   H9F 9028   5.093   0.353   5.751  1.3955  2.8253 -0.2757
   6923SM   H9G 9029   5.163   0.209   5.653 -2.1153  0.8267  0.0322
   6923SM  C10F 9030   5.216   0.397   5.585  0.2449  0.7058 -0.3053
   6923SM  H10F 9031   5.309   0.349   5.546 -0.7797 -1.0249 -0.7211
   6923SM  H10G 9032   5.220   0.501   5.624  0.4427 -0.1911  2.2566
   6923SM  C11F 9033   5.119   0.397   5.465  0.8496 -0.4001  1.2876
   6923SM  H11F 9034   5.012   0.413   5.490  0.0066 -3.0827 -0.1996
   6923SM  H11G 9035   5.128   0.304   5.404  1.3090  1.0930 -1.0876
   6923SM  C12F 9036   5.156   0.508   5.362  0.1954  0.5041  0.4304
   6923SM  H12F 9037   5.155   0.606   5.414 -1.3261  0.3013  0.8448
   6923SM  H12G 9038   5.090   0.522   5.274 -1.1377 -0.2479  1.2729
   6923SM  C13F 9039   5.303   0.501   5.309 -0.3334  0.3111  1.0996
   6923SM  H13F 9040   5.377   0.471   5.386 -0.5917 -0.4324  1.0699
   6923SM  H13G 9041   5.321   0.607   5.279 -2.2690  0.0555 -1.3351
   6923SM  C14F 9042   5.314   0.419   5.180  0.0269  0.0089 -0.6516
   6923SM  H14F 9043   5.239   0.455   5.106  0.1264 -1.2327 -1.3845
   6923SM  H14G 9044   5.285   0.317   5.210 -0.0597  0.4742  0.9093
   6923SM  C15F 9045   5.457   0.413   5.125  0.1684  0.2848  0.2285
   6923SM  H15F 9046   5.526   0.403   5.212  0.0899 -0.8395  0.1763
   6923SM  H15G 9047   5.486   0.513   5.088  0.2897  0.9948  2.1301
   6923SM  C16F 9048   5.498   0.304   5.026 -0.7099 -0.3367  0.5685
   6923SM  H16F 9049   5.457   0.318   4.923  0.2226  0.6066  0.3101
   6923SM  H16G 9050   5.461   0.205   5.062 -2.0949  0.2509  0.8226
   6923SM  C17F 9051   5.648   0.289   4.996  0.3414 -0.5621 -0.3447
   6923SM  H17F 9052   5.700   0.294   5.095 -0.9340 -2.5347  0.4741
   6923SM  H17G 9053   5.689   0.371   4.933 -0.2437  0.3100  0.3859
   6923SM  C18F 9054   5.697   0.159   4.935 -0.4741 -0.0300 -0.2784
   6923SM  H18F 9055   5.637   0.133   4.845 -0.6492 -0.5970 -0.0082
   6923SM  H18G 9056   5.684   0.077   5.009 -4.0870  2.2792  2.0076
   6923SM  C19F 9057   5.846   0.165   4.896  0.3372  0.1429  0.2792
   6923SM  H19F 9058   5.905   0.198   4.984  2.3872  1.8698 -1.6206
   6923SM  H19G 9059   5.857   0.251   4.826 -1.2197  2.3718  2.6074
   6923SM  C20F 9060   5.882   0.032   4.830  0.2831  0.3675  0.0266
   6923SM  H20F 9061   5.803   0.016   4.754  1.3900  1.0302 -1.2975
   6923SM  H20G 9062   5.879  -0.051   4.904  1.1354 -1.6894 -2.1318
   6923SM  C21F 9063   6.025   0.036   4.763  0.8425 -0.6139 -0.0106
   6923SM  H21F 9064   6.107   0.047   4.837  1.2495  0.2725 -0.5763
   6923SM  H21G 9065   6.021   0.121   4.691 -2.0799 -1.2253 -0.7074
   6923SM  C22F 9066   6.042  -0.082   4.672 -0.5046 -0.0069  0.5827
   6923SM  H22F 9067   6.049  -0.177   4.731 -0.6582  0.0931  0.7651
   6923SM  H22G 9068   6.142  -0.074   4.626 -0.8048 -2.4047 -0.6518
   6923SM  C23F 9069   5.949  -0.096   4.558 -0.0539 -0.3494  0.1292
   6923SM  H23F 9070   5.997  -0.046   4.472 -2.0047  2.7731  0.7024
   6923SM  H23G 9071   5.851  -0.044   4.561  0.6930  1.4952 -3.0743
   6923SM  H23H 9072   5.924  -0.199   4.525  0.2519  0.2328 -2.0420
   7023SM     N 9073   5.194   0.415   7.269  0.8495  0.1018 -0.1279
   7023SM   C15 9074   5.184   0.423   7.420 -0.1339  0.0503 -0.8401
   7023SM  H15A 9075   5.089   0.385   7.454  0.6359  0.0969  1.5053
   7023SM  H15B 9076   5.198   0.523   7.458 -2.2493 -0.6508  2.1480
   7023SM  H15C 9077   5.268   0.377   7.469 -3.0774 -1.1771  3.7241
   7023SM   C14 9078   5.072   0.473   7.207 -0.3100 -0.0944 -0.6661
   7023SM  H14A 9079   5.061   0.577   7.234 -1.0345 -0.2626 -0.2805
   7023SM  H14B 9080   4.981   0.419   7.232 -1.7449  1.3861 -2.4112
   7023SM  H14C 9081   5.088   0.475   7.100  1.0430  1.9036 -0.4777
   7023SM   C13 9082   5.308   0.497   7.229  0.5675 -0.2220 -0.0335
   7023SM  H13A 9083   5.405   0.454   7.252  0.3189 -1.5192 -1.2862
   7023SM  H13B 9084   5.301   0.592   7.279  0.7964  0.4992 -1.3193
   7023SM  H13C 9085   5.298   0.510   7.122 -0.9380 -1.7619 -0.1275
   7023SM   C12 9086   5.209   0.273   7.223  0.3937  0.0086 -0.2127
   7023SM  H12A 9087   5.314   0.254   7.242  1.2470  3.4092 -0.9083
   7023SM  H12B 9088   5.188   0.264   7.117 -0.1892 -0.7956 -0.0405
   7023SM   C11 9089   5.118   0.176   7.299  0.1796 -0.0793 -0.4898
   7023SM  H11A 9090   5.132   0.177   7.409 -1.1210 -1.3800 -0.2852
   7023SM  H11B 9091   5.144   0.070   7.278 -1.4956 -0.4979 -0.6419
   7023SM     P 9092   4.895   0.124   7.158  0.3288  0.1591 -0.0295
   7023SM   O13 9093   4.842  -0.010   7.200  0.4377 -0.1074 -0.8807
   7023SM   O14 9094   4.801   0.224   7.097  0.3814  0.3690  0.1782
   7023SM   O11 9095   4.999   0.099   7.035  0.2294 -0.6319  0.1129
   7023SM   O12 9096   4.975   0.194   7.273 -0.0303  0.1309  0.4271
   7023SM   C1S 9097   4.952   0.039   6.919 -0.1914 -0.1044 -0.7702
   7023SM   H1S 9098   4.874   0.096   6.865 -0.5388 -0.5571 -0.7427
   7023SM   H1T 9099   4.908  -0.058   6.948 -1.7471  0.5903 -0.7515
   7023SM    NF 9100   5.016  -0.019   6.684 -0.4944 -0.5260  0.7643
   7023SM   HNF 9101   5.025  -0.112   6.648  1.2588 -0.6942  1.5498
   7023SM   C2S 9102   5.070  -0.002   6.823  0.0327 -0.5795 -0.0531
   7023SM   H2S 9103   5.125   0.095   6.819 -2.6509  1.0583 -0.1174
   7023SM   C3S 9104   5.147  -0.115   6.885 -0.1293  0.0003  0.1633
   7023SM   H3S 9105   5.078  -0.201   6.893  1.5827 -1.3235  1.3796
   7023SM    O3 9106   5.189  -0.086   7.012  0.0633 -0.2776  0.3306
   7023SM   HO3 9107   5.132  -0.011   7.030  0.4458  0.2914 -0.6921
   7023SM   C4S 9108   5.259  -0.149   6.795 -0.3897  0.1307 -0.3611
   7023SM   H4S 9109   5.351  -0.090   6.809 -2.0059  2.1367  3.2224
   7023SM   C5S 9110   5.255  -0.267   6.732  0.8719 -0.0195 -0.9045
   7023SM   H5S 9111   5.173  -0.340   6.743  1.8040 -0.7255  3.7539
   7023SM   C6S 9112   5.377  -0.319   6.660 -0.0016  0.5693  0.0040
   7023SM   H6S 9113   5.373  -0.430   6.656 -0.4471  0.5799  0.2094
   7023SM   H6T 9114   5.476  -0.290   6.701 -0.1958  0.2438  0.7053
   7023SM   C7S 9115   5.368  -0.261   6.517  0.1205  0.1038  0.3200
   7023SM   H7S 9116   5.381  -0.151   6.532  2.6773 -0.2919  1.5104
   7023SM   H7T 9117   5.266  -0.281   6.479  0.2751  3.2714 -2.2657
   7023SM   C8S 9118   5.453  -0.309   6.404 -0.0190 -0.1647 -0.9318
   7023SM   H8S 9119   5.443  -0.419   6.392  0.4003 -0.2048 -0.9594
   7023SM   H8T 9120   5.559  -0.287   6.432  0.0568  0.8188 -1.8987
   7023SM   C9S 9121   5.423  -0.233   6.271 -0.2178 -0.6258 -0.2145
   7023SM   H9S 9122   5.455  -0.127   6.276 -0.7564 -0.5032  1.0512
   7023SM   H9T 9123   5.313  -0.223   6.255 -0.2044  1.2698  0.6349
   7023SM  C10S 9124   5.482  -0.296   6.141 -0.0104  0.2726 -0.0863
   7023SM  H10S 9125   5.429  -0.393   6.127 -1.2933  0.8557  0.5250
   7023SM  H10T 9126   5.592  -0.306   6.149 -0.1160  0.0647  1.4174
   7023SM  C11S 9127   5.469  -0.218   6.011  0.3305  0.4048  0.3938
   7023SM  H11S 9128   5.490  -0.110   6.023 -0.4381  0.8629 -1.8289
   7023SM  H11T 9129   5.363  -0.225   5.976  0.9950  0.0527 -1.6490
   7023SM  C12S 9130   5.562  -0.268   5.901  0.9150  0.3606 -0.5993
   7023SM  H12S 9131   5.530  -0.364   5.853  3.0500 -0.2066 -0.9865
   7023SM  H12T 9132   5.665  -0.287   5.938  0.3297 -3.8847 -0.5826
   7023SM  C13S 9133   5.575  -0.162   5.795  0.4845  0.4124 -0.2147
   7023SM  H13S 9134   5.658  -0.196   5.730 -0.2798 -2.0319 -0.0083
   7023SM  H13T 9135   5.606  -0.066   5.843 -0.7762  2.7679 -3.7307
   7023SM  C14S 9136   5.450  -0.136   5.708  0.1149  0.7975 -0.5937
   7023SM  H14S 9137   5.363  -0.095   5.763 -0.4728  1.1598 -1.7497
   7023SM  H14T 9138   5.415  -0.228   5.657  0.8121  0.2379 -0.0777
   7023SM  C15S 9139   5.485  -0.043   5.588 -0.4701 -0.0591 -0.0803
   7023SM  H15S 9140   5.566  -0.092   5.531 -0.7533 -0.1286 -0.4296
   7023SM  H15T 9141   5.539   0.048   5.620 -1.8262  0.5549  0.5621
   7023SM  C16S 9142   5.367  -0.007   5.506  0.1550  0.7100 -0.6453
   7023SM  H16S 9143   5.300   0.052   5.573  0.7990  0.5793  0.1303
   7023SM  H16T 9144   5.317  -0.099   5.468  2.4508 -1.5175  1.3984
   7023SM  C17S 9145   5.405   0.082   5.386 -0.0826 -0.1264  0.9311
   7023SM  H17S 9146   5.454   0.177   5.418  0.5516  0.9625 -2.7606
   7023SM  H17T 9147   5.315   0.111   5.326  0.8899 -0.5011 -0.7834
   7023SM  C18S 9148   5.511   0.023   5.293 -0.3044 -0.0781  0.4757
   7023SM  H18S 9149   5.511  -0.082   5.327 -0.1342  0.2084  1.3782
   7023SM  H18T 9150   5.615   0.055   5.314  0.9904 -3.6275  0.1481
   7023SM  H18U 9151   5.491   0.045   5.186  0.0138  0.8455  0.5962
   7023SM   C1F 9152   4.970   0.089   6.624  0.1258  0.7566 -0.0611
   7023SM    OF 9153   4.982   0.197   6.676 -0.5710 -0.3107  0.0839
   7023SM   C2F 9154   4.907   0.075   6.485 -0.3794  0.3657 -0.1321
   7023SM   H2F 9155   4.837  -0.007   6.509  1.9805 -0.9159  3.1658
   7023SM   H2G 9156   4.979   0.041   6.407 -1.1739 -1.6053 -0.0478
   7023SM   C3F 9157   4.832   0.193   6.434  0.2181  0.3284  0.7345
   7023SM   H3F 9158   4.902   0.278   6.416  1.7383 -0.7178  1.5517
   7023SM   H3G 9159   4.758   0.222   6.511 -0.7805  0.6742 -0.3251
   7023SM   C4F 9160   4.752   0.165   6.304  0.6009  0.1921  1.0335
   7023SM   H4F 9161   4.668   0.236   6.287 -1.9741 -2.7565  0.6401
   7023SM   H4G 9162   4.708   0.063   6.310  1.5930 -0.1869  2.0891
   7023SM   C5F 9163   4.837   0.174   6.173  0.2672  0.1539  0.2624
   7023SM   H5F 9164   4.930   0.115   6.189  0.7116  1.0096  0.9525
   7023SM   H5G 9165   4.873   0.279   6.163 -0.6027  0.3900 -0.5118
   7023SM   C6F 9166   4.763   0.139   6.041  1.0269 -0.6050 -0.3559
   7023SM   H6F 9167   4.691   0.220   6.017 -0.6452 -1.9075  0.0401
   7023SM   H6G 9168   4.717   0.040   6.063 -1.2161  0.8710  2.2022
   7023SM   C7F 9169   4.850   0.136   5.916 -0.0820  0.4361  0.5080
   7023SM   H7F 9170   4.930   0.059   5.929 -1.6126 -1.0360  1.6756
   7023SM   H7G 9171   4.899   0.236   5.914 -0.9163  0.8491 -1.2947
   7023SM   C8F 9172   4.781   0.122   5.778  0.0880 -0.5029 -0.1904
   7023SM   H8F 9173   4.824   0.196   5.707 -0.4543  1.0127  0.9962
   7023SM   H8G 9174   4.675   0.152   5.793  0.2475  0.2926 -0.5722
   7023SM   C9F 9175   4.811  -0.022   5.720 -0.5440 -0.6282 -0.7185
   7023SM   H9F 9176   4.745  -0.091   5.776  0.2691  0.7494  2.1195
   7023SM   H9G 9177   4.919  -0.046   5.732 -0.4134  0.3738  0.3125
   7023SM  C10F 9178   4.764  -0.034   5.574  0.8748  0.8434  0.3614
   7023SM  H10F 9179   4.753  -0.137   5.536 -0.0252  0.9110  0.4356
   7023SM  H10G 9180   4.825   0.021   5.498  0.1544  1.8708  0.5010
   7023SM  C11F 9181   4.622   0.022   5.567 -0.2071  0.1062 -0.4655
   7023SM  H11F 9182   4.624   0.128   5.601  0.6093 -1.2083  4.2592
   7023SM  H11G 9183   4.566  -0.017   5.655  1.7158 -0.0495  0.7576
   7023SM  C12F 9184   4.552  -0.009   5.434 -0.1930 -0.1437 -0.1164
   7023SM  H12F 9185   4.444   0.013   5.449 -0.2028 -0.2548 -0.0227
   7023SM  H12G 9186   4.562  -0.119   5.424  0.1678  0.0558 -2.9903
   7023SM  C13F 9187   4.616   0.067   5.319  0.1368 -0.3069  0.1749
   7023SM  H13F 9188   4.566   0.023   5.229  0.0452 -2.2066  1.1036
   7023SM  H13G 9189   4.725   0.050   5.303  0.5479  1.5004  0.8035
   7023SM  C14F 9190   4.593   0.222   5.318 -0.0500 -0.0455  0.3647
   7023SM  H14F 9191   4.631   0.276   5.408 -0.9016  1.7722 -0.3187
   7023SM  H14G 9192   4.485   0.229   5.342  0.4534  0.0433  3.0011
   7023SM  C15F 9193   4.614   0.309   5.190  0.2666 -0.0363 -0.0822
   7023SM  H15F 9194   4.579   0.414   5.198  2.0272  0.4371  2.1110
   7023SM  H15G 9195   4.548   0.271   5.109 -1.5482  1.2082  0.7461
   7023SM  C16F 9196   4.758   0.302   5.139  0.0143 -0.2524  0.0500
   7023SM  H16F 9197   4.777   0.192   5.132 -1.4643 -0.5584  0.5006
   7023SM  H16G 9198   4.825   0.354   5.211  0.8391 -0.8066 -0.2930
   7023SM  C17F 9199   4.782   0.361   5.001 -0.0881 -0.0168  0.2433
   7023SM  H17F 9200   4.767   0.471   4.992 -0.4124 -0.0507  0.3552
   7023SM  H17G 9201   4.709   0.315   4.931 -1.8506  0.4148  1.7511
   7023SM  C18F 9202   4.930   0.346   4.951  1.6535 -0.0295  0.4390
   7023SM  H18F 9203   4.966   0.250   4.994 -1.4339 -1.2551  0.6176
   7023SM  H18G 9204   4.992   0.421   5.004 -0.2230  1.7345  0.3038
   7023SM  C19F 9205   4.961   0.347   4.806  1.0721  0.2445  0.1143
   7023SM  H19F 9206   4.908   0.427   4.751  0.3585  0.2680  0.8204
   7023SM  H19G 9207   4.915   0.256   4.763  1.1889 -0.0547  0.6143
   7023SM  C20F 9208   5.112   0.368   4.772  0.3171 -0.2672  0.2081
   7023SM  H20F 9209   5.171   0.287   4.819 -0.9506 -0.9986  0.5847
   7023SM  H20G 9210   5.147   0.462   4.820 -1.2527  0.2411  0.4309
   7023SM  C21F 9211   5.149   0.374   4.620  0.3221 -0.5125 -0.2173
   7023SM  H21F 9212   5.109   0.292   4.557 -0.9904 -1.5930  1.9109
   7023SM  H21G 9213   5.259   0.361   4.617  0.3019 -0.8193  0.2207
   7023SM  C22F 9214   5.130   0.517   4.565 -0.7083  0.5913  0.1552
   7023SM  H22F 9215   5.168   0.600   4.628 -0.0151  0.0931  0.4029
   7023SM  H22G 9216   5.023   0.540   4.549 -1.7510 -3.5621  0.1621
   7023SM  C23F 9217   5.204   0.529   4.428  0.3244 -0.3315 -0.0853
   7023SM  H23F 9218   5.311   0.504   4.439  0.0972 -0.7400  1.4111
   7023SM  H23G 9219   5.199   0.636   4.399  3.3747  0.3318  1.4384
   7023SM  H23H 9220   5.157   0.468   4.348 -0.3386  0.0801 -0.0260
   7123SM     N 9221   6.368   5.616   7.391 -0.0856  0.3839 -0.2676
   7123SM   C15 9222   6.240   5.672   7.438  0.5687  1.3831 -0.2827
   7123SM  H15A 9223   6.240   5.780   7.427 -1.8689  2.0822  3.9723
   7123SM  H15B 9224   6.225   5.657   7.544  0.8045  0.4416 -0.3765
   7123SM  H15C 9225   6.151   5.629   7.396 -0.3077  0.8879  1.9090
   7123SM   C14 9226   6.475   5.687   7.463 -0.1139 -0.1366 -1.1965
   7123SM  H14A 9227   6.563   5.626   7.480  2.2190  2.7624 -1.9632
   7123SM  H14B 9228   6.444   5.722   7.560 -0.8495 -0.4315 -1.3203
   7123SM  H14C 9229   6.508   5.769   7.400 -1.6714  1.4586 -0.0331
   7123SM   C13 9230   6.369   5.466   7.430  0.3393  0.0790 -0.6810
   7123SM  H13A 9231   6.289   5.413   7.380  0.5306  0.8426 -1.8642
   7123SM  H13B 9232   6.356   5.451   7.536 -0.8212  0.2102 -0.7947
   7123SM  H13C 9233   6.461   5.421   7.395  0.6941  1.9048 -2.3243
   7123SM   C12 9234   6.377   5.641   7.246  0.3474 -0.0130  0.2096
   7123SM  H12A 9235   6.471   5.605   7.207  1.4258  3.4155 -0.7361
   7123SM  H12B 9236   6.377   5.747   7.228 -1.1270 -0.3941 -2.6966
   7123SM   C11 9237   6.266   5.591   7.151  0.3629  0.0478  0.2185
   7123SM  H11A 9238   6.242   5.483   7.166  0.7428 -0.4869 -2.4550
   7123SM  H11B 9239   6.295   5.609   7.046 -1.1610 -0.1049 -0.2559
   7123SM     P 9240   6.133   5.815   7.115 -0.3365 -0.2377  0.0328
   7123SM   O13 9241   6.015   5.879   7.175 -0.4798 -0.1477 -0.0927
   7123SM   O14 9242   6.264   5.880   7.111 -0.1999 -0.1607  0.3682
   7123SM   O11 9243   6.100   5.777   6.962  0.5031 -0.4675  0.5448
   7123SM   O12 9244   6.148   5.670   7.176 -0.0421  0.5750 -0.1872
   7123SM   C1S 9245   6.002   5.679   6.940 -0.1519  0.6698 -0.3431
   7123SM   H1S 9246   5.908   5.708   6.992 -1.1361 -1.4178 -0.8405
   7123SM   H1T 9247   6.032   5.575   6.963 -1.0558  0.4707 -0.0205
   7123SM    NF 9248   5.844   5.558   6.784  0.1727  0.7496  0.3935
   7123SM   HNF 9249   5.863   5.465   6.754 -0.4343  0.7488 -0.0101
   7123SM   C2S 9250   5.954   5.657   6.787 -0.0824  0.4573 -0.3370
   7123SM   H2S 9251   5.921   5.753   6.742 -1.2720 -0.0967 -0.6921
   7123SM   C3S 9252   6.079   5.613   6.707  0.2352  0.4711 -0.7063
   7123SM   H3S 9253   6.119   5.515   6.741  0.4311  0.9045  0.3826
   7123SM    O3 9254   6.193   5.701   6.723  0.0044  0.1070 -0.7870
   7123SM   HO3 9255   6.170   5.762   6.793 -0.9305 -0.0544 -0.9450
   7123SM   C4S 9256   6.040   5.607   6.562  0.8665  0.3383  0.5065
   7123SM   H4S 9257   6.027   5.706   6.516  3.5960  0.8463  0.6397
   7123SM   C5S 9258   6.032   5.491   6.484  0.2559  0.0609  0.2876
   7123SM   H5S 9259   6.061   5.397   6.535 -1.1662  0.3493  1.6935
   7123SM   C6S 9260   5.996   5.486   6.336  0.6115  0.1985  0.2947
   7123SM   H6S 9261   5.901   5.430   6.325 -0.8315  1.5204  4.3801
   7123SM   H6T 9262   6.067   5.423   6.277  1.8165  2.8410 -1.2550
   7123SM   C7S 9263   5.976   5.618   6.260  0.0073  0.8362  0.3101
   7123SM   H7S 9264   6.065   5.682   6.281 -0.0401  1.2107 -0.6038
   7123SM   H7T 9265   5.883   5.669   6.294 -0.2679 -0.7327  2.1058
   7123SM   C8S 9266   5.957   5.590   6.114  0.0731  0.4833 -0.5371
   7123SM   H8S 9267   5.867   5.525   6.106 -0.4792  0.9200  1.5176
   7123SM   H8T 9268   6.032   5.519   6.073 -0.7412 -1.0548  0.5226
   7123SM   C9S 9269   5.955   5.720   6.026  0.2243 -0.5922  0.5048
   7123SM   H9S 9270   6.055   5.769   6.031  0.6604 -1.5027  0.9889
   7123SM   H9T 9271   5.887   5.794   6.072  4.4398  3.4104  0.9782
   7123SM  C10S 9272   5.923   5.700   5.880  0.2890 -0.7321  0.3750
   7123SM  H10S 9273   5.829   5.642   5.873 -0.2537 -0.1063  1.9629
   7123SM  H10T 9274   6.011   5.648   5.835  1.3058  1.3758 -0.2390
   7123SM  C11S 9275   5.915   5.840   5.815  0.0450 -0.2834  0.3123
   7123SM  H11S 9276   6.013   5.890   5.832  0.3143 -0.6901 -0.0384
   7123SM  H11T 9277   5.827   5.892   5.857 -0.2815  0.3235 -1.0840
   7123SM  C12S 9278   5.890   5.814   5.664 -0.1767 -0.3190 -0.4588
   7123SM  H12S 9279   5.799   5.752   5.653 -0.3103 -0.3502  0.6909
   7123SM  H12T 9280   5.972   5.763   5.610  0.4770  0.1880  0.0368
   7123SM  C13S 9281   5.855   5.949   5.595  0.7628  0.2516 -0.5952
   7123SM  H13S 9282   5.955   5.998   5.588  2.6911 -3.1630  0.3759
   7123SM  H13T 9283   5.793   6.010   5.664  0.5786  0.4774 -0.9607
   7123SM  C14S 9284   5.796   5.928   5.451 -0.4651  0.4454 -0.5433
   7123SM  H14S 9285   5.700   5.873   5.450 -0.2071 -0.0758  0.9640
   7123SM  H14T 9286   5.863   5.869   5.384  0.2463  0.9714 -0.3186
   7123SM  C15S 9287   5.793   6.065   5.381 -0.3567  0.3013 -0.2100
   7123SM  H15S 9288   5.897   6.102   5.370 -0.6328  1.3987  0.6678
   7123SM  H15T 9289   5.732   6.140   5.437 -0.5831  2.1082 -2.7246
   7123SM  C16S 9290   5.739   6.057   5.241 -0.1763 -0.4196 -0.5064
   7123SM  H16S 9291   5.644   6.003   5.226 -0.6548 -0.1733  1.3239
   7123SM  H16T 9292   5.820   6.010   5.181  0.4948  1.8680 -1.5194
   7123SM  C17S 9293   5.712   6.195   5.182 -0.9884  0.4780 -0.6012
   7123SM  H17S 9294   5.803   6.257   5.176 -0.9390  0.3107 -1.7751
   7123SM  H17T 9295   5.641   6.243   5.253 -1.1879 -2.4095  1.3353
   7123SM  C18S 9296   5.635   6.197   5.050  0.0970  0.0640 -0.0083
   7123SM  H18S 9297   5.678   6.136   4.968 -2.9115 -1.3826 -0.6666
   7123SM  H18T 9298   5.627   6.302   5.016  3.7950  0.3795 -0.2905
   7123SM  H18U 9299   5.533   6.158   5.074 -0.1240 -0.1749 -1.2910
   7123SM   C1F 9300   5.718   5.597   6.817 -0.0621  0.2367  0.2690
   7123SM    OF 9301   5.693   5.708   6.853  0.2262 -0.2630 -0.5777
   7123SM   C2F 9302   5.609   5.494   6.822  0.2397 -0.4543  0.4519
   7123SM   H2F 9303   5.520   5.546   6.863  0.2839 -0.5694  0.6972
   7123SM   H2G 9304   5.638   5.408   6.886  1.4409  0.5107  1.2575
   7123SM   C3F 9305   5.565   5.452   6.679  0.2009  0.5598 -0.1686
   7123SM   H3F 9306   5.471   5.392   6.679 -0.3086  1.2781  1.6233
   7123SM   H3G 9307   5.642   5.391   6.627 -1.6741 -0.5684 -1.7583
   7123SM   C4F 9308   5.540   5.574   6.587 -0.2039 -0.3388 -0.2314
   7123SM   H4F 9309   5.622   5.648   6.591  0.9196 -1.3863 -2.4193
   7123SM   H4G 9310   5.450   5.632   6.617  0.7546  1.0303  0.0956
   7123SM   C5F 9311   5.504   5.536   6.441  0.5734 -0.1887 -0.5664
   7123SM   H5F 9312   5.395   5.521   6.429  0.0744  2.9216 -0.6803
   7123SM   H5G 9313   5.559   5.454   6.391  0.9946 -1.3359  1.6338
   7123SM   C6F 9314   5.530   5.654   6.346  0.4937 -0.4866  0.0854
   7123SM   H6F 9315   5.636   5.688   6.350  0.9556 -1.7620 -0.5811
   7123SM   H6G 9316   5.471   5.741   6.381  0.4024 -1.0694  1.4465
   7123SM   C7F 9317   5.512   5.625   6.200 -0.0916  0.2681  0.0391
   7123SM   H7F 9318   5.405   5.613   6.170 -0.4947  1.3755  0.9667
   7123SM   H7G 9319   5.559   5.526   6.186  1.6946  1.0233  0.4782
   7123SM   C8F 9320   5.561   5.740   6.115 -0.0270 -0.1725  0.5214
   7123SM   H8F 9321   5.668   5.752   6.140 -0.0860  1.5210  0.1271
   7123SM   H8G 9322   5.514   5.838   6.139  0.6577  0.2432  0.1914
   7123SM   C9F 9323   5.540   5.719   5.965  0.2187 -0.4825 -0.0332
   7123SM   H9F 9324   5.444   5.665   5.948 -0.3268  0.6129 -0.5450
   7123SM   H9G 9325   5.610   5.641   5.929 -0.9792 -1.6845  0.1412
   7123SM  C10F 9326   5.529   5.846   5.893 -0.2789 -0.6030  0.1829
   7123SM  H10F 9327   5.633   5.887   5.892 -0.9069  1.3845 -3.5994
   7123SM  H10G 9328   5.467   5.911   5.958 -0.7935 -1.4349  0.5418
   7123SM  C11F 9329   5.472   5.824   5.755  0.6818  0.3399  0.2850
   7123SM  H11F 9330   5.368   5.784   5.757  0.5750  0.4323 -1.5534
   7123SM  H11G 9331   5.524   5.744   5.699 -1.4081 -0.1524 -1.0848
   7123SM  C12F 9332   5.459   5.952   5.667 -0.2734 -0.0863 -0.1846
   7123SM  H12F 9333   5.556   5.980   5.620 -0.3402 -0.5960 -0.6406
   7123SM  H12G 9334   5.432   6.035   5.736  0.0977 -1.9122  2.3068
   7123SM  C13F 9335   5.370   5.942   5.546 -0.4450  0.1637  0.8217
   7123SM  H13F 9336   5.269   5.920   5.584  0.5900 -0.5061  3.3666
   7123SM  H13G 9337   5.406   5.853   5.489  1.6726  1.9036 -0.7694
   7123SM  C14F 9338   5.351   6.064   5.461 -0.1088 -0.4333  0.1463
   7123SM  H14F 9339   5.447   6.119   5.456 -0.9106  0.9409 -0.7825
   7123SM  H14G 9340   5.275   6.134   5.504 -0.7765 -0.7817 -0.4421
   7123SM  C15F 9341   5.310   6.023   5.321 -0.1566 -0.1721  1.3611
   7123SM  H15F 9342   5.219   5.964   5.348  0.9245 -1.6546  1.8897
   7123SM  H15G 9343   5.388   5.956   5.279 -0.8446 -0.8263  1.0895
   7123SM  C16F 9344   5.281   6.139   5.225  0.5947  0.5487  0.4531
   7123SM  H16F 9345   5.298   6.096   5.124  2.6650 -0.6609  1.2595
   7123SM  H16G 9346   5.351   6.224   5.237  0.7993  0.2311  1.6508
   7123SM  C17F 9347   5.135   6.182   5.240  0.0814  0.0207  0.3794
   7123SM  H17F 9348   5.107   6.194   5.347 -2.0442 -0.7919 -0.0343
   7123SM  H17G 9349   5.060   6.113   5.195 -1.8659  2.5233 -0.4232
   7123SM  C18F 9350   5.102   6.315   5.168 -0.9695 -0.0159  0.2743
   7123SM  H18F 9351   4.993   6.335   5.163 -0.5272  2.4372 -1.9163
   7123SM  H18G 9352   5.144   6.308   5.065  2.5589  1.8312  1.4028
   7123SM  C19F 9353   5.167   6.437   5.241 -0.1296  0.4975 -0.0265
   7123SM  H19F 9354   5.277   6.420   5.245 -0.2640 -0.6799 -0.8612
   7123SM  H19G 9355   5.122   6.436   5.342 -2.0168 -2.8527 -0.7445
   7123SM  C20F 9356   5.150   6.579   5.174  0.7963 -0.1471  0.1850
   7123SM  H20F 9357   5.059   6.623   5.220  1.0244 -1.3749  1.9385
   7123SM  H20G 9358   5.133   6.582   5.065  1.7348  2.1861  0.0413
   7123SM  C21F 9359   5.266   6.668   5.207  0.6084 -0.0118  0.1429
   7123SM  H21F 9360   5.298   6.659   5.313  0.2269 -0.1402  0.2497
   7123SM  H21G 9361   5.228   6.769   5.182 -0.3634 -0.3336  0.2819
   7123SM  C22F 9362   5.390   6.643   5.115 -0.1073  0.3230 -0.1604
   7123SM  H22F 9363   5.443   6.740   5.102  1.4878 -0.1990  1.9338
   7123SM  H22G 9364   5.357   6.609   5.015  0.7899 -2.5032  0.4370
   7123SM  C23F 9365   5.501   6.554   5.166 -0.3719  0.0474 -0.7720
   7123SM  H23F 9366   5.527   6.572   5.272 -2.8236 -0.7867  0.0466
   7123SM  H23G 9367   5.593   6.564   5.105 -0.5604 -1.4446 -1.3221
   7123SM  H23H 9368   5.468   6.449   5.156 -0.5590  0.0560 -0.2965
   7223SM     N 9369   0.271   0.279   7.213  0.5399 -0.3150 -0.0404
   7223SM   C15 9370   0.302   0.157   7.137 -0.0619  0.5948  0.7821
   7223SM  H15A 9371   0.226   0.138   7.063  1.2609 -0.5634 -0.3294
   7223SM  H15B 9372   0.315   0.079   7.211  2.1707  1.1870  1.0991
   7223SM  H15C 9373   0.400   0.162   7.092  1.1739 -0.7202  3.1025
   7223SM   C14 9374   0.149   0.256   7.294  0.5731  0.3912 -0.1473
   7223SM  H14A 9375   0.063   0.226   7.236  0.6341  1.5160 -0.8337
   7223SM  H14B 9376   0.118   0.341   7.351 -0.7002 -0.1355 -0.0253
   7223SM  H14C 9377   0.175   0.177   7.364  1.0236 -0.1332 -0.8832
   7223SM   C13 9378   0.379   0.309   7.322 -0.4377  0.4473 -0.6000
   7223SM  H13A 9379   0.346   0.374   7.402  0.9021 -1.8856  2.0518
   7223SM  H13B 9380   0.467   0.358   7.284  1.2064 -0.4596  1.8098
   7223SM  H13C 9381   0.417   0.217   7.364  1.9882  1.7104  0.1399
   7223SM   C12 9382   0.257   0.395   7.112  0.3955 -0.4713 -0.2813
   7223SM  H12A 9383   0.223   0.484   7.164  1.4098  0.6848 -1.5230
   7223SM  H12B 9384   0.180   0.382   7.037  1.3348 -0.5027 -1.2748
   7223SM   C11 9385   0.386   0.423   7.041 -0.3120  0.6127 -0.1881
   7223SM  H11A 9386   0.368   0.467   6.941 -0.6736  1.2079  0.1355
   7223SM  H11B 9387   0.438   0.327   7.019 -1.1993  0.4075 -1.5401
   7223SM     P 9388   0.439   0.654   7.157  0.0531 -0.1585 -0.3264
   7223SM   O13 9389   0.320   0.659   7.236 -0.4950 -0.0631 -0.3166
   7223SM   O14 9390   0.558   0.716   7.218 -0.7477 -0.1978 -0.7901
   7223SM   O11 9391   0.414   0.729   7.019 -0.1632 -0.3729 -0.4039
   7223SM   O12 9392   0.467   0.508   7.119  0.6657  0.2428  0.0691
   7223SM   C1S 9393   0.516   0.721   6.915 -0.6654 -0.0981  0.1948
   7223SM   H1S 9394   0.514   0.615   6.882 -3.1678  0.5911 -2.1634
   7223SM   H1T 9395   0.617   0.737   6.959  0.8615 -0.8549 -2.8222
   7223SM    NF 9396   0.559   0.796   6.686 -0.8831  0.1316  0.5403
   7223SM   HNF 9397   0.629   0.861   6.659 -0.2838 -1.2871 -1.5785
   7223SM   C2S 9398   0.472   0.812   6.797  0.1181  0.1913  0.0321
   7223SM   H2S 9399   0.371   0.773   6.771  0.0761 -0.7196  1.4412
   7223SM   C3S 9400   0.469   0.964   6.843  0.5271  0.7660 -0.5478
   7223SM   H3S 9401   0.573   0.983   6.878 -0.1871  1.0396  1.5529
   7223SM    O3 9402   0.387   0.982   6.954  0.1025  0.6060 -0.4437
   7223SM   HO3 9403   0.393   0.894   6.992 -1.3741  1.5588  2.2784
   7223SM   C4S 9404   0.434   1.054   6.725 -0.3651 -0.0711  0.8026
   7223SM   H4S 9405   0.512   1.070   6.649 -0.7827  0.0182  0.3875
   7223SM   C5S 9406   0.319   1.118   6.691 -0.2295 -1.1104  0.0244
   7223SM   H5S 9407   0.228   1.128   6.752  1.7685  1.2431  2.9303
   7223SM   C6S 9408   0.296   1.175   6.556  0.1181 -0.3765 -0.5059
   7223SM   H6S 9409   0.346   1.116   6.476  1.5214 -0.3833  0.3346
   7223SM   H6T 9410   0.339   1.277   6.558  0.8389 -0.6611 -0.8809
   7223SM   C7S 9411   0.155   1.198   6.507 -0.1816  0.0734  0.1916
   7223SM   H7S 9412   0.096   1.259   6.580  0.9945  0.3954  0.8945
   7223SM   H7T 9413   0.119   1.095   6.486 -0.5027 -0.0784  1.3566
   7223SM   C8S 9414   0.137   1.267   6.369 -0.1533 -0.7641 -0.8787
   7223SM   H8S 9415   0.027   1.267   6.349 -0.6200 -1.2129  1.4138
   7223SM   H8T 9416   0.186   1.209   6.289 -1.1417 -1.4283 -1.0173
   7223SM   C9S 9417   0.164   1.416   6.370 -0.0369 -0.5395 -0.7507
   7223SM   H9S 9418   0.272   1.423   6.345  0.3133 -0.3649  0.7124
   7223SM   H9T 9419   0.149   1.465   6.468  2.8310  2.6855 -1.7496
   7223SM  C10S 9420   0.085   1.488   6.263 -0.0747  0.2621 -0.3049
   7223SM  H10S 9421   0.113   1.595   6.257  0.8115 -0.0309 -2.4679
   7223SM  H10T 9422  -0.023   1.473   6.283  0.0496  0.3892  0.4863
   7223SM  C11S 9423   0.116   1.433   6.127 -0.3988 -0.2931  0.0007
   7223SM  H11S 9424   0.086   1.326   6.115 -1.9518  0.2313 -1.2019
   7223SM  H11T 9425   0.226   1.448   6.125 -0.2743 -1.0514 -2.0671
   7223SM  C12S 9426   0.042   1.491   6.009 -0.3575  0.1567 -0.0428
   7223SM  H12S 9427   0.095   1.589   6.003  2.5646 -1.2391  0.8154
   7223SM  H12T 9428  -0.066   1.484   6.030  0.0537 -1.9680  1.7991
   7223SM  C13S 9429   0.063   1.412   5.871  0.1268 -0.2136 -1.0862
   7223SM  H13S 9430   0.170   1.388   5.860  0.9639  1.2072  2.4685
   7223SM  H13T 9431   0.041   1.489   5.794  1.3482  1.9960  0.6517
   7223SM  C14S 9432  -0.018   1.281   5.872  0.4301  0.2387 -0.0303
   7223SM  H14S 9433  -0.116   1.283   5.820  1.3217  1.5370 -1.7172
   7223SM  H14T 9434  -0.043   1.242   5.973 -1.4190 -0.7432 -0.8248
   7223SM  C15S 9435   0.066   1.174   5.802 -0.1088  0.0456 -0.0949
   7223SM  H15S 9436   0.165   1.154   5.848  0.9913 -0.4781 -2.5051
   7223SM  H15T 9437   0.086   1.204   5.697  0.9391 -0.2176  0.0168
   7223SM  C16S 9438  -0.015   1.049   5.793 -0.5237 -0.0426  0.1655
   7223SM  H16S 9439   0.042   0.984   5.723  0.6255 -1.4460  2.2837
   7223SM  H16T 9440  -0.117   1.072   5.754 -0.3708 -1.0875 -0.9368
   7223SM  C17S 9441  -0.018   0.959   5.921  0.2569 -0.4828  0.3558
   7223SM  H17S 9442  -0.051   1.029   6.000 -2.0935 -1.8108  0.6538
   7223SM  H17T 9443   0.082   0.923   5.954 -0.3849 -0.4055  2.5111
   7223SM  C18S 9444  -0.111   0.839   5.909  0.4987 -0.3451  0.3090
   7223SM  H18S 9445  -0.218   0.868   5.899  0.2776 -0.4911  1.9528
   7223SM  H18T 9446  -0.109   0.771   5.997  1.1672  0.6181  1.0608
   7223SM  H18U 9447  -0.074   0.768   5.833 -1.9677  1.3448 -2.6839
   7223SM   C1F 9448   0.571   0.681   6.614 -0.1995  0.0608 -0.7738
   7223SM    OF 9449   0.504   0.581   6.643  0.0327 -0.2247 -0.1481
   7223SM   C2F 9450   0.684   0.676   6.516 -0.4185 -0.2402  0.0920
   7223SM   H2F 9451   0.711   0.570   6.501  4.0946  0.6850  0.1863
   7223SM   H2G 9452   0.767   0.740   6.554 -0.2403  0.6945 -1.7562
   7223SM   C3F 9453   0.651   0.723   6.368 -0.2230  0.0973 -0.2839
   7223SM   H3F 9454   0.664   0.834   6.370 -0.3330  0.1040  0.2025
   7223SM   H3G 9455   0.544   0.696   6.356 -0.6826  1.0589  1.2983
   7223SM   C4F 9456   0.736   0.646   6.267  0.3279 -0.4696 -0.0341
   7223SM   H4F 9457   0.718   0.537   6.260  1.2701 -0.6662  0.5362
   7223SM   H4G 9458   0.843   0.657   6.294  0.4405 -0.5920 -0.4246
   7223SM   C5F 9459   0.714   0.705   6.124 -0.5713 -0.8775 -0.2245
   7223SM   H5F 9460   0.801   0.681   6.059 -0.7517  1.1328 -1.3087
   7223SM   H5G 9461   0.712   0.816   6.114  1.0792 -0.7243  0.7196
   7223SM   C6F 9462   0.594   0.633   6.063 -0.2192  0.8186  0.4365
   7223SM   H6F 9463   0.517   0.709   6.038 -1.3051  0.2760  1.9637
   7223SM   H6G 9464   0.536   0.564   6.129 -1.6186  0.6598 -0.8951
   7223SM   C7F 9465   0.632   0.558   5.931  0.1645  0.0387 -0.2463
   7223SM   H7F 9466   0.542   0.505   5.894 -0.1657 -1.0786  1.9867
   7223SM   H7G 9467   0.703   0.478   5.961 -2.0470 -1.0175  2.6283
   7223SM   C8F 9468   0.683   0.647   5.816  1.0236 -0.1285 -0.5554
   7223SM   H8F 9469   0.792   0.664   5.827  1.0262 -0.1920 -0.4842
   7223SM   H8G 9470   0.631   0.745   5.828  0.5350 -0.1614 -2.1990
   7223SM   C9F 9471   0.656   0.587   5.677 -0.1337 -0.2672 -0.4022
   7223SM   H9F 9472   0.688   0.663   5.602  0.4815  1.8952  1.9037
   7223SM   H9G 9473   0.547   0.583   5.657 -0.2855 -1.9693  0.6279
   7223SM  C10F 9474   0.725   0.454   5.642 -1.1483 -0.4393 -0.0612
   7223SM  H10F 9475   0.686   0.373   5.708  0.5544 -0.8370  0.5028
   7223SM  H10G 9476   0.833   0.468   5.662 -0.7921 -1.1986 -1.2975
   7223SM  C11F 9477   0.701   0.419   5.497 -0.2429  0.2861 -0.3464
   7223SM  H11F 9478   0.712   0.505   5.428  0.6238  1.6424  1.4112
   7223SM  H11G 9479   0.596   0.383   5.490 -1.2982  3.0765 -0.3136
   7223SM  C12F 9480   0.804   0.318   5.453  0.6601  0.7715 -0.3962
   7223SM  H12F 9481   0.824   0.244   5.533  0.7155  0.7968 -0.3861
   7223SM  H12G 9482   0.901   0.368   5.433  0.8972  0.1657 -0.8015
   7223SM  C13F 9483   0.766   0.242   5.324  0.1105 -0.5366  0.3224
   7223SM  H13F 9484   0.771   0.316   5.241  0.9002 -1.3098 -0.3592
   7223SM  H13G 9485   0.669   0.190   5.339  0.0994 -0.9365 -0.9851
   7223SM  C14F 9486   0.868   0.132   5.300  1.0527  0.0121 -0.0014
   7223SM  H14F 9487   0.873   0.055   5.380  1.4369 -0.8864 -0.8710
   7223SM  H14G 9488   0.971   0.174   5.305  0.5661  1.3013 -0.4226
   7223SM  C15F 9489   0.833   0.051   5.169  0.2971  0.2855 -1.1485
   7223SM  H15F 9490   0.836   0.116   5.079 -2.3379  1.4836 -0.4611
   7223SM  H15G 9491   0.728   0.018   5.182 -0.4302  2.2399 -1.6265
   7223SM  C16F 9492   0.913  -0.079   5.140  0.3163 -0.7701 -0.1072
   7223SM  H16F 9493   0.908  -0.160   5.216  0.6924 -1.0280 -0.3524
   7223SM  H16G 9494   1.018  -0.045   5.132  0.2459 -0.6657 -0.6176
   7223SM  C17F 9495   0.865  -0.139   5.002  0.0000  0.5791  0.3919
   7223SM  H17F 9496   0.929  -0.103   4.919 -0.5861  0.1843 -0.2441
   7223SM  H17G 9497   0.765  -0.105   4.966 -2.0381 -3.5359  1.5444
   7223SM  C18F 9498   0.850  -0.292   5.006 -0.2713 -0.2672 -0.2162
   7223SM  H18F 9499   0.806  -0.326   4.910 -0.2956  0.7446 -0.5730
   7223SM  H18G 9500   0.782  -0.320   5.089  2.1009 -1.6338  1.3830
   7223SM  C19F 9501   0.988  -0.357   5.030 -0.3300  0.0871  0.6366
   7223SM  H19F 9502   1.029  -0.318   5.125 -0.2769  0.4387  0.4713
   7223SM  H19G 9503   1.046  -0.313   4.946  0.0065  0.7833  1.2216
   7223SM  C20F 9504   0.984  -0.517   5.023  0.2501  0.5845 -0.3086
   7223SM  H20F 9505   1.084  -0.558   5.049 -0.2147 -3.0426 -3.4070
   7223SM  H20G 9506   0.954  -0.541   4.919 -1.7144  0.9141  0.1386
   7223SM  C21F 9507   0.870  -0.573   5.118 -0.8557  0.6284  0.2878
   7223SM  H21F 9508   0.779  -0.554   5.057 -0.5043 -1.6025 -1.0551
   7223SM  H21G 9509   0.866  -0.517   5.214  2.4743  0.3083  0.7395
   7223SM  C22F 9510   0.872  -0.728   5.130 -0.3459  0.3584 -0.8220
   7223SM  H22F 9511   0.976  -0.762   5.147 -1.3861 -1.5782  2.9235
   7223SM  H22G 9512   0.840  -0.776   5.036 -2.8476  1.1351 -0.4470
   7223SM  C23F 9513   0.790  -0.789   5.243 -0.0334  0.4536 -0.2717
   7223SM  H23F 9514   0.781  -0.899   5.239  1.3564  0.3408 -0.4999
   7223SM  H23G 9515   0.684  -0.755   5.241 -1.2263 -2.8234  1.2403
   7223SM  H23H 9516   0.841  -0.774   5.340  1.9294 -0.4997 -1.1137
   7323SM     N 9517   5.608   7.348   7.119 -0.3506  0.0405 -0.1916
   7323SM   C15 9518   5.633   7.199   7.120 -0.2061  0.7086 -0.3984
   7323SM  H15A 9519   5.674   7.157   7.030 -1.4844  2.0003 -1.6287
   7323SM  H15B 9520   5.535   7.155   7.131  0.5652 -0.7001  1.5927
   7323SM  H15C 9521   5.706   7.173   7.196  1.8424  0.8614 -2.2264
   7323SM   C14 9522   5.507   7.362   7.013  1.0343 -0.4491 -0.1444
   7323SM  H14A 9523   5.529   7.320   6.916 -0.2932  0.7221 -1.0039
   7323SM  H14B 9524   5.481   7.466   6.999 -0.6350 -0.9587 -1.1320
   7323SM  H14C 9525   5.419   7.308   7.044  1.9454 -0.3271  3.0306
   7323SM   C13 9526   5.551   7.389   7.247 -0.2308 -0.7668 -1.0458
   7323SM  H13A 9527   5.525   7.494   7.245 -2.0260 -1.1460 -0.1010
   7323SM  H13B 9528   5.616   7.364   7.329 -2.8897 -1.5052  0.9972
   7323SM  H13C 9529   5.461   7.335   7.274  1.3560 -2.1038  2.0692
   7323SM   C12 9530   5.737   7.422   7.081  0.2797 -0.2622  0.0948
   7323SM  H12A 9531   5.764   7.381   6.985 -1.4961  0.7640 -0.9018
   7323SM  H12B 9532   5.819   7.396   7.147 -0.4083 -0.0122  1.0867
   7323SM   C11 9533   5.732   7.570   7.075 -0.3495 -0.7623 -0.1975
   7323SM  H11A 9534   5.833   7.616   7.067 -0.3573 -0.7153 -0.0268
   7323SM  H11B 9535   5.684   7.600   7.171 -0.5483 -0.9823 -0.2262
   7323SM     P 9536   5.619   7.725   6.900  0.2186  0.3238 -0.2502
   7323SM   O13 9537   5.475   7.753   6.921 -0.2245 -0.3135  0.1081
   7323SM   O14 9538   5.714   7.821   6.961 -0.3566  0.2393 -0.5900
   7323SM   O11 9539   5.656   7.703   6.745 -0.5197 -0.1155 -0.1339
   7323SM   O12 9540   5.651   7.589   6.966 -0.4566 -0.4293 -0.5161
   7323SM   C1S 9541   5.764   7.614   6.719 -0.9639  0.0488  0.4692
   7323SM   H1S 9542   5.720   7.515   6.740 -1.1343 -0.6438 -2.6799
   7323SM   H1T 9543   5.853   7.630   6.784 -0.0048 -2.3435 -0.1642
   7323SM    NF 9544   5.937   7.500   6.574 -0.5586  0.8412  0.0348
   7323SM   HNF 9545   6.018   7.534   6.527  0.7125 -2.0854 -0.0925
   7323SM   C2S 9546   5.819   7.594   6.570  0.3280 -0.2834 -0.2009
   7323SM   H2S 9547   5.733   7.547   6.517 -1.8487  1.7635  1.3212
   7323SM   C3S 9548   5.861   7.731   6.512 -0.0548 -0.3845 -0.0593
   7323SM   H3S 9549   5.963   7.764   6.543  1.0616 -1.3695 -2.4179
   7323SM    O3 9550   5.779   7.841   6.559 -0.3269  0.1891 -0.2680
   7323SM   HO3 9551   5.746   7.806   6.642 -1.2849  0.3954 -0.5504
   7323SM   C4S 9552   5.874   7.730   6.367 -0.1516 -0.2893  0.2516
   7323SM   H4S 9553   5.977   7.755   6.340  0.2544 -1.9105  0.1755
   7323SM   C5S 9554   5.784   7.716   6.263 -0.1100  0.1607 -0.3161
   7323SM   H5S 9555   5.679   7.694   6.287 -1.0739  1.3500 -3.0492
   7323SM   C6S 9556   5.809   7.728   6.116  0.6777 -0.4507 -0.4192
   7323SM   H6S 9557   5.770   7.644   6.055  1.8293  0.0032 -1.8597
   7323SM   H6T 9558   5.919   7.714   6.102  0.8765 -0.1299  0.7114
   7323SM   C7S 9559   5.780   7.864   6.050 -0.2131  0.1428 -0.0125
   7323SM   H7S 9560   5.854   7.941   6.081 -0.0813  0.6198 -1.4242
   7323SM   H7T 9561   5.681   7.906   6.078 -1.2900 -0.3592 -2.7497
   7323SM   C8S 9562   5.795   7.865   5.897  0.6389 -0.4929 -0.1052
   7323SM   H8S 9563   5.739   7.782   5.850 -2.9206  1.3946  0.4767
   7323SM   H8T 9564   5.904   7.849   5.881  1.0967  1.7563  0.3931
   7323SM   C9S 9565   5.734   7.996   5.844 -0.9677  1.0410  0.5336
   7323SM   H9S 9566   5.793   8.084   5.875 -0.3181  0.4382  1.0328
   7323SM   H9T 9567   5.626   7.998   5.872 -1.4036  0.0964 -0.9404
   7323SM  C10S 9568   5.718   7.988   5.691 -0.2991 -0.2685  0.4380
   7323SM  H10S 9569   5.648   8.060   5.644 -0.4164 -0.8512 -0.2934
   7323SM  H10T 9570   5.670   7.889   5.675 -0.2070 -0.3205  0.4831
   7323SM  C11S 9571   5.849   8.009   5.615 -0.1224 -0.3907 -0.2283
   7323SM  H11S 9572   5.933   7.956   5.667  0.6896  0.7369 -0.3430
   7323SM  H11T 9573   5.892   8.111   5.629 -1.0812 -0.1488  1.1811
   7323SM  C12S 9574   5.849   7.971   5.462 -0.1574  0.2539 -0.0368
   7323SM  H12S 9575   5.749   8.001   5.423 -0.8464 -0.8009  0.8419
   7323SM  H12T 9576   5.856   7.861   5.453 -1.2411  0.2574 -1.2730
   7323SM  C13S 9577   5.943   8.054   5.372  0.2566  0.2669  0.0587
   7323SM  H13S 9578   5.932   8.161   5.399  1.1222  1.1905 -2.9420
   7323SM  H13T 9579   5.900   8.050   5.270  0.3813 -1.4750  0.0377
   7323SM  C14S 9580   6.090   8.012   5.372  0.6415 -0.3201 -0.3459
   7323SM  H14S 9581   6.097   7.906   5.340  2.4127 -0.6048  0.8582
   7323SM  H14T 9582   6.140   8.028   5.470 -0.3130  1.1765 -0.0623
   7323SM  C15S 9583   6.172   8.093   5.267  0.3295 -0.6955 -0.3851
   7323SM  H15S 9584   6.274   8.069   5.303  0.2632  1.9876  1.9521
   7323SM  H15T 9585   6.161   8.203   5.253  0.4120 -0.8388 -1.6688
   7323SM  C16S 9586   6.162   8.036   5.126 -0.3475  0.7555  1.0746
   7323SM  H16S 9587   6.061   8.057   5.086 -0.0251  1.4580  0.6193
   7323SM  H16T 9588   6.193   7.929   5.121 -0.1733  0.7442  2.1752
   7323SM  C17S 9589   6.256   8.104   5.024  0.1733 -0.2914  0.5673
   7323SM  H17S 9590   6.360   8.097   5.062  0.5729 -2.7294 -0.7735
   7323SM  H17T 9591   6.237   8.214   5.022  1.9375  0.0322 -0.8594
   7323SM  C18S 9592   6.238   8.066   4.883 -0.3751  0.1891  0.4576
   7323SM  H18S 9593   6.143   8.106   4.842 -0.3278 -0.5929 -0.4490
   7323SM  H18T 9594   6.239   7.959   4.855  1.5449  0.3819 -0.4117
   7323SM  H18U 9595   6.323   8.100   4.819 -1.9681 -0.0644 -1.9247
   7323SM   C1F 9596   5.952   7.366   6.602  0.4824  0.7782  0.0236
   7323SM    OF 9597   5.867   7.308   6.666 -0.3830 -0.0369 -0.2341
   7323SM   C2F 9598   6.069   7.295   6.545 -0.0717 -0.2144 -0.1614
   7323SM   H2F 9599   6.063   7.185   6.557 -0.5179 -0.1881 -0.1212
   7323SM   H2G 9600   6.165   7.331   6.586  0.3667 -0.5370 -0.8756
   7323SM   C3F 9601   6.072   7.318   6.389  0.4374 -0.2703 -0.0701
   7323SM   H3F 9602   6.139   7.245   6.338 -3.0893 -2.7533 -1.5393
   7323SM   H3G 9603   6.098   7.424   6.370 -2.3628  0.2082 -1.8056
   7323SM   C4F 9604   5.938   7.287   6.320 -0.3759 -1.2005  0.1358
   7323SM   H4F 9605   5.848   7.304   6.383  0.4996  1.4299  0.8101
   7323SM   H4G 9606   5.939   7.180   6.291 -1.7939 -1.1173 -0.2911
   7323SM   C5F 9607   5.921   7.375   6.194  0.4780 -0.0041  0.0876
   7323SM   H5F 9608   5.960   7.479   6.207 -0.3107  0.4079 -0.7151
   7323SM   H5G 9609   5.812   7.382   6.174  0.2361 -0.8047  1.0904
   7323SM   C6F 9610   5.988   7.309   6.071  0.0679  0.1088  0.0499
   7323SM   H6F 9611   5.940   7.210   6.052  1.7083 -0.4003 -1.7039
   7323SM   H6G 9612   6.096   7.296   6.095  0.3171  0.2656 -0.9532
   7323SM   C7F 9613   5.974   7.395   5.946  0.1137  0.0021  0.0225
   7323SM   H7F 9614   5.883   7.458   5.942 -0.3801 -0.7439 -2.0444
   7323SM   H7G 9615   5.992   7.324   5.862  1.6253  0.4238 -0.0431
   7323SM   C8F 9616   6.084   7.499   5.943 -0.1818 -0.2989  1.1302
   7323SM   H8F 9617   6.185   7.454   5.949  0.3563  0.8543  0.9080
   7323SM   H8G 9618   6.081   7.567   6.031  0.8631 -2.5034  2.9943
   7323SM   C9F 9619   6.093   7.545   5.797 -0.5466 -0.5368  0.7817
   7323SM   H9F 9620   5.994   7.557   5.748 -0.3067  1.2828  0.6708
   7323SM   H9G 9621   6.147   7.460   5.750  0.3946  0.0767  0.7344
   7323SM  C10F 9622   6.177   7.675   5.778 -0.1640 -0.2821  0.0933
   7323SM  H10F 9623   6.277   7.663   5.825  0.8433  0.3718 -1.7977
   7323SM  H10G 9624   6.133   7.758   5.838 -0.1437 -1.9349  2.5215
   7323SM  C11F 9625   6.188   7.731   5.633  0.7942 -0.1379 -0.0990
   7323SM  H11F 9626   6.251   7.823   5.637 -1.4860  1.4835  0.3069
   7323SM  H11G 9627   6.096   7.767   5.583  1.1872 -1.6803 -2.0590
   7323SM  C12F 9628   6.254   7.629   5.540 -0.1681  0.0586  0.4669
   7323SM  H12F 9629   6.180   7.547   5.522  1.3246 -0.6884 -2.9414
   7323SM  H12G 9630   6.338   7.586   5.599  0.4547  0.7432  0.0895
   7323SM  C13F 9631   6.311   7.684   5.417 -0.5443  0.2161  0.0317
   7323SM  H13F 9632   6.384   7.763   5.445 -2.2168  2.4475 -1.5712
   7323SM  H13G 9633   6.229   7.724   5.354 -0.5570 -1.8019 -1.3428
   7323SM  C14F 9634   6.396   7.571   5.349 -0.6249  0.4150 -0.2899
   7323SM  H14F 9635   6.321   7.497   5.313 -0.3254 -0.3645  0.6594
   7323SM  H14G 9636   6.459   7.514   5.420 -1.3737 -1.4251 -1.0382
   7323SM  C15F 9637   6.485   7.621   5.232  0.8218 -0.4950  0.4213
   7323SM  H15F 9638   6.522   7.718   5.272 -3.0899  0.4948  2.1322
   7323SM  H15G 9639   6.424   7.646   5.143  1.3569  0.6450  0.3530
   7323SM  C16F 9640   6.606   7.533   5.214  0.0454  0.4744 -0.6611
   7323SM  H16F 9641   6.568   7.431   5.190  0.7902  0.3250 -1.2454
   7323SM  H16G 9642   6.650   7.532   5.316 -1.1121 -0.0194 -0.1478
   7323SM  C17F 9643   6.724   7.591   5.132 -0.0685  0.0682  0.1176
   7323SM  H17F 9644   6.774   7.673   5.187 -1.8053  0.9760  0.4231
   7323SM  H17G 9645   6.686   7.627   5.034 -1.0722 -1.5842 -0.1477
   7323SM  C18F 9646   6.841   7.493   5.103 -0.2895  0.2374 -0.1217
   7323SM  H18F 9647   6.804   7.412   5.037 -0.9496  0.7123 -0.3387
   7323SM  H18G 9648   6.897   7.454   5.191  1.5477  1.8156 -0.5049
   7323SM  C19F 9649   6.951   7.554   5.010 -0.4924 -0.6159 -0.1441
   7323SM  H19F 9650   7.034   7.483   4.989  1.8022  1.7036  0.4879
   7323SM  H19G 9651   6.996   7.647   5.051 -0.6098 -0.1276 -1.0983
   7323SM  C20F 9652   6.895   7.615   4.870  0.0355  0.3446  0.2081
   7323SM  H20F 9653   6.836   7.707   4.885 -1.1593  0.1302 -2.4576
   7323SM  H20G 9654   6.822   7.535   4.843  0.8415 -1.0987  2.1160
   7323SM  C21F 9655   6.994   7.647   4.765 -0.4396  0.0667  0.6331
   7323SM  H21F 9656   6.941   7.674   4.671  1.4899  0.2579 -0.4496
   7323SM  H21G 9657   7.045   7.551   4.741 -2.8153 -0.6835 -1.9910
   7323SM  C22F 9658   7.097   7.752   4.788 -0.2351 -0.1089 -0.6401
   7323SM  H22F 9659   7.142   7.734   4.888  0.2693  0.2108 -0.8046
   7323SM  H22G 9660   7.053   7.853   4.775 -0.7549 -0.3706 -0.9380
   7323SM  C23F 9661   7.211   7.738   4.685 -0.1224  0.2134  0.0987
   7323SM  H23F 9662   7.255   7.636   4.689  1.3037  0.8257  2.5366
   7323SM  H23G 9663   7.292   7.813   4.699  0.2640 -0.3465  0.9923
   7323SM  H23H 9664   7.166   7.761   4.586  1.4416  1.6579 -0.3202
   7423SM     N 9665   3.101   3.824   7.211 -0.4032 -0.0686 -0.3472
   7423SM   C15 9666   2.987   3.790   7.296 -0.1967 -0.1318  0.6619
   7423SM  H15A 9667   3.013   3.781   7.401  0.5081  0.2678  0.5256
   7423SM  H15B 9668   2.942   3.700   7.259  2.5451 -1.2442 -0.2074
   7423SM  H15C 9669   2.912   3.869   7.298 -0.7874 -0.6962  1.6480
   7423SM   C14 9670   3.167   3.950   7.264  0.0678  0.4604 -0.6176
   7423SM  H14A 9671   3.203   3.931   7.364 -0.5991  0.6979 -0.3265
   7423SM  H14B 9672   3.098   4.030   7.284  1.1633  1.8201 -2.0114
   7423SM  H14C 9673   3.244   3.982   7.194  0.5475 -0.2405 -0.4278
   7423SM   C13 9674   3.213   3.722   7.220  0.5945 -0.9022  0.2467
   7423SM  H13A 9675   3.177   3.621   7.224 -0.1774 -0.7009 -1.0467
   7423SM  H13B 9676   3.275   3.724   7.309 -0.3366 -1.3483  0.9200
   7423SM  H13C 9677   3.273   3.737   7.132 -0.6331 -1.3800 -0.7014
   7423SM   C12 9678   3.058   3.832   7.065 -0.2290 -0.3458 -0.4652
   7423SM  H12A 9679   3.133   3.882   7.006 -0.5739  0.8545  0.0787
   7423SM  H12B 9680   2.981   3.907   7.055  1.1063  1.0803 -0.3554
   7423SM   C11 9681   3.004   3.708   6.995 -0.2368  0.0795  0.1821
   7423SM  H11A 9682   3.084   3.632   7.005  0.5605  1.0971  2.1513
   7423SM  H11B 9683   2.987   3.744   6.891  3.2341 -0.2995 -0.6211
   7423SM     P 9684   2.747   3.728   7.029 -0.2130 -0.1645 -0.1332
   7423SM   O13 9685   2.651   3.659   7.121  0.1274 -0.8290 -0.3566
   7423SM   O14 9686   2.758   3.878   7.048  0.1145  0.2139 -0.7256
   7423SM   O11 9687   2.714   3.695   6.874  0.4980  0.0988  0.6213
   7423SM   O12 9688   2.883   3.658   7.056  0.7364  0.1637  0.0132
   7423SM   C1S 9689   2.584   3.647   6.836  0.2356  0.1875 -0.1021
   7423SM   H1S 9690   2.506   3.713   6.880  0.8324  0.0563  1.2093
   7423SM   H1T 9691   2.579   3.540   6.868  0.5218  0.0415 -0.5473
   7423SM    NF 9692   2.434   3.591   6.639  0.0391  0.3350 -0.2029
   7423SM   HNF 9693   2.430   3.503   6.591 -0.3648  0.7747 -0.9859
   7423SM   C2S 9694   2.566   3.637   6.686  0.2639  0.1201  0.1375
   7423SM   H2S 9695   2.580   3.739   6.644 -2.8156  0.9034  0.7260
   7423SM   C3S 9696   2.666   3.539   6.622  0.0566 -0.2165  0.2712
   7423SM   H3S 9697   2.624   3.436   6.630 -5.6784  1.8426  1.8896
   7423SM    O3 9698   2.791   3.542   6.693 -0.1507 -0.1208 -0.0545
   7423SM   HO3 9699   2.763   3.594   6.769  0.6105 -0.0384  0.1766
   7423SM   C4S 9700   2.677   3.570   6.476 -0.4692  0.9524 -0.5372
   7423SM   H4S 9701   2.596   3.530   6.414 -0.8658 -0.6790  0.9798
   7423SM   C5S 9702   2.753   3.661   6.418  1.2107  0.4646 -0.8111
   7423SM   H5S 9703   2.838   3.703   6.475  1.0575 -1.2137  0.7255
   7423SM   C6S 9704   2.745   3.699   6.278  0.7370  0.1258 -0.3536
   7423SM   H6S 9705   2.651   3.675   6.225 -0.4487  1.6051  0.9935
   7423SM   H6T 9706   2.829   3.642   6.233 -0.0900 -0.8236 -0.7239
   7423SM   C7S 9707   2.776   3.847   6.254  0.2784  0.0154 -0.8445
   7423SM   H7S 9708   2.869   3.873   6.309  0.9700  1.3155 -2.5358
   7423SM   H7T 9709   2.694   3.912   6.293  1.2009  0.2419  0.8421
   7423SM   C8S 9710   2.786   3.882   6.109  0.7362  1.1282 -0.0182
   7423SM   H8S 9711   2.882   3.836   6.075  0.5543 -0.1565  1.0937
   7423SM   H8T 9712   2.797   3.992   6.102 -2.9298  1.6846  1.0654
   7423SM   C9S 9713   2.675   3.840   6.009  0.6507 -0.4882  1.1684
   7423SM   H9S 9714   2.576   3.880   6.038 -0.9971 -0.9394 -3.0640
   7423SM   H9T 9715   2.680   3.729   6.006 -0.9090 -0.5906  1.7403
   7423SM  C10S 9716   2.705   3.892   5.868  0.3938 -0.0143  0.6210
   7423SM  H10S 9717   2.791   3.826   5.841 -1.3908 -2.4999  0.6155
   7423SM  H10T 9718   2.736   3.998   5.867 -2.2556  0.8620  2.0893
   7423SM  C11S 9719   2.590   3.872   5.765  0.0277  0.0070 -0.3710
   7423SM  H11S 9720   2.514   3.947   5.795 -2.9567 -2.7186 -0.5328
   7423SM  H11T 9721   2.540   3.773   5.773 -0.8522  0.4787  0.0846
   7423SM  C12S 9722   2.636   3.887   5.620  0.3090 -0.4453  0.0079
   7423SM  H12S 9723   2.703   3.801   5.597  0.6209 -0.2023  0.0001
   7423SM  H12T 9724   2.705   3.973   5.608 -0.9599  0.4570 -1.0060
   7423SM  C13S 9725   2.519   3.895   5.513 -0.1035 -0.9541 -0.7910
   7423SM  H13S 9726   2.488   4.002   5.511  1.4353 -0.3642  1.9567
   7423SM  H13T 9727   2.431   3.831   5.538 -1.1569  1.2449  1.5758
   7423SM  C14S 9728   2.570   3.861   5.365  0.5838  0.0329  0.0626
   7423SM  H14S 9729   2.596   3.753   5.375  0.8891  0.2671  2.4138
   7423SM  H14T 9730   2.664   3.918   5.350  0.9933 -0.9590 -1.2942
   7423SM  C15S 9731   2.480   3.884   5.252  0.1695 -0.3409 -0.5669
   7423SM  H15S 9732   2.458   3.991   5.231 -1.8821 -0.5548  0.2532
   7423SM  H15T 9733   2.381   3.834   5.257  0.4377 -1.0033 -1.5848
   7423SM  C16S 9734   2.546   3.831   5.126  0.0442  0.1391  0.4431
   7423SM  H16S 9735   2.563   3.721   5.134 -2.3087 -0.5490 -2.2275
   7423SM  H16T 9736   2.644   3.882   5.112  0.2229 -0.5226 -0.9469
   7423SM  C17S 9737   2.463   3.867   5.006  0.3642  0.7069  0.6159
   7423SM  H17S 9738   2.454   3.978   5.005 -2.2522  0.5876 -1.4289
   7423SM  H17T 9739   2.361   3.824   5.010  0.8092 -0.3366  1.0043
   7423SM  C18S 9740   2.519   3.825   4.872 -0.1177 -0.7499  0.1025
   7423SM  H18S 9741   2.457   3.859   4.786 -0.7148  0.5656  1.0174
   7423SM  H18T 9742   2.527   3.715   4.861 -0.7673 -0.7070 -0.9828
   7423SM  H18U 9743   2.625   3.854   4.857 -0.3908  0.7169  0.7964
   7423SM   C1F 9744   2.318   3.647   6.666  0.1905 -0.4099 -0.4447
   7423SM    OF 9745   2.310   3.743   6.740 -0.4149  0.1445 -0.5750
   7423SM   C2F 9746   2.195   3.584   6.614  0.9105 -0.2149 -0.3120
   7423SM   H2F 9747   2.112   3.657   6.622  0.6529 -0.4124 -1.0487
   7423SM   H2G 9748   2.162   3.505   6.684 -1.8449  1.5756  0.5345
   7423SM   C3F 9749   2.210   3.546   6.466  0.7212  0.2143 -0.2223
   7423SM   H3F 9750   2.114   3.502   6.431  0.3363 -0.0927  1.1652
   7423SM   H3G 9751   2.286   3.465   6.464 -0.7907 -1.2779 -1.0641
   7423SM   C4F 9752   2.252   3.655   6.370  0.3856 -0.0580 -0.5778
   7423SM   H4F 9753   2.357   3.683   6.391  0.4916 -0.5868 -0.3813
   7423SM   H4G 9754   2.195   3.745   6.402 -2.5662 -1.4095 -1.6593
   7423SM   C5F 9755   2.232   3.631   6.222 -0.1706  0.5393  0.2939
   7423SM   H5F 9756   2.134   3.585   6.198  1.0723 -1.4232 -1.2983
   7423SM   H5G 9757   2.296   3.552   6.179 -0.7728 -0.5181  1.2893
   7423SM   C6F 9758   2.243   3.763   6.142  0.4765 -0.4958  0.2281
   7423SM   H6F 9759   2.352   3.776   6.125  0.5335 -1.4957 -0.2615
   7423SM   H6G 9760   2.194   3.845   6.198 -0.9733 -1.5525  0.5625
   7423SM   C7F 9761   2.174   3.751   6.002  0.5181 -0.1260  0.4783
   7423SM   H7F 9762   2.187   3.855   5.966  1.3935 -0.7691 -1.1823
   7423SM   H7G 9763   2.065   3.738   6.016  0.5561  0.1844  1.0949
   7423SM   C8F 9764   2.230   3.648   5.903  0.0141  0.2717 -1.2600
   7423SM   H8F 9765   2.206   3.544   5.933 -0.3751  0.2855 -1.5109
   7423SM   H8G 9766   2.341   3.641   5.907  0.0637  1.1244  1.9058
   7423SM   C9F 9767   2.183   3.662   5.756 -0.1442  0.1357 -0.4527
   7423SM   H9F 9768   2.199   3.768   5.729 -0.0722  0.5460  1.0775
   7423SM   H9G 9769   2.075   3.636   5.759  0.3454 -2.0953  0.1689
   7423SM  C10F 9770   2.261   3.570   5.660  0.1499 -0.0191  1.1004
   7423SM  H10F 9771   2.247   3.462   5.682 -1.0514 -0.1908 -0.3605
   7423SM  H10G 9772   2.370   3.591   5.668  0.2715 -0.0231 -0.2242
   7423SM  C11F 9773   2.219   3.591   5.512  0.4722  0.0062  0.6069
   7423SM  H11F 9774   2.245   3.695   5.482  0.3780 -0.3313 -0.7441
   7423SM  H11G 9775   2.109   3.579   5.499  0.1010  0.0036  3.3201
   7423SM  C12F 9776   2.294   3.509   5.405 -0.2711 -0.0163 -0.4850
   7423SM  H12F 9777   2.288   3.403   5.440 -0.5017  0.0476 -0.3267
   7423SM  H12G 9778   2.402   3.530   5.421 -0.2146 -1.7170  1.9637
   7423SM  C13F 9779   2.252   3.513   5.264 -0.4054 -0.1049 -0.0622
   7423SM  H13F 9780   2.253   3.620   5.237 -0.9325  0.1762  0.9887
   7423SM  H13G 9781   2.147   3.478   5.254 -0.2039 -1.1754  1.2119
   7423SM  C14F 9782   2.337   3.425   5.170  0.5018 -0.7915 -0.6277
   7423SM  H14F 9783   2.326   3.320   5.203 -1.5356 -0.4375  0.0010
   7423SM  H14G 9784   2.443   3.458   5.166  0.3359  0.3298  2.1666
   7423SM  C15F 9785   2.289   3.434   5.024  0.2113  0.0609 -0.2472
   7423SM  H15F 9786   2.258   3.541   5.015 -1.8934 -0.4343  0.5319
   7423SM  H15G 9787   2.192   3.382   5.008 -0.1487  1.0282 -1.3309
   7423SM  C16F 9788   2.401   3.413   4.917  0.0904  0.1173  0.0581
   7423SM  H16F 9789   2.435   3.308   4.907  1.6826  0.7555 -1.5635
   7423SM  H16G 9790   2.491   3.469   4.949  0.6524 -0.7733  0.0390
   7423SM  C17F 9791   2.346   3.449   4.779 -0.3488  0.1067 -0.1537
   7423SM  H17F 9792   2.325   3.558   4.787 -1.2411 -0.1202  0.9204
   7423SM  H17G 9793   2.246   3.406   4.755 -1.1167  0.7945  1.6239
   7423SM  C18F 9794   2.433   3.409   4.659 -0.8157 -0.5359  0.4953
   7423SM  H18F 9795   2.381   3.409   4.561  1.8583 -0.8394 -1.0375
   7423SM  H18G 9796   2.480   3.309   4.663 -1.5939 -0.9860 -0.8792
   7423SM  C19F 9797   2.536   3.524   4.644  0.1797  0.2123 -0.3374
   7423SM  H19F 9798   2.598   3.526   4.737  0.4380  2.5053 -0.5040
   7423SM  H19G 9799   2.474   3.616   4.641  1.1377  0.9154  0.4365
   7423SM  C20F 9800   2.637   3.500   4.532 -0.2056 -0.7547 -0.0683
   7423SM  H20F 9801   2.708   3.585   4.530 -1.2540  0.1729  0.5931
   7423SM  H20G 9802   2.589   3.516   4.433  0.5414 -1.1580 -0.5004
   7423SM  C21F 9803   2.712   3.364   4.546  0.6094 -0.3809 -0.1115
   7423SM  H21F 9804   2.643   3.276   4.545 -0.5337  0.4764  0.9837
   7423SM  H21G 9805   2.771   3.366   4.640 -0.6051 -2.6912  0.7913
   7423SM  C22F 9806   2.808   3.341   4.431  0.0956  0.0372 -0.4660
   7423SM  H22F 9807   2.868   3.435   4.434 -1.9468  1.4388 -1.4525
   7423SM  H22G 9808   2.763   3.333   4.330 -1.0814  2.9981 -0.2926
   7423SM  C23F 9809   2.901   3.229   4.463 -0.0516 -0.2173 -0.3329
   7423SM  H23F 9810   2.956   3.236   4.560 -1.1213 -2.2058  0.4803
   7423SM  H23G 9811   2.980   3.227   4.385 -0.5922  2.0826 -1.0088
   7423SM  H23H 9812   2.851   3.130   4.471 -1.6236  0.6296  1.0867
   7523SM     N 9813   0.330   4.580   7.272 -0.0679 -0.5292 -0.3661
   7523SM   C15 9814   0.403   4.515   7.390 -0.3861  0.0949 -0.5592
   7523SM  H15A 9815   0.500   4.561   7.399 -1.3658  2.2200 -0.2083
   7523SM  H15B 9816   0.430   4.413   7.367  0.4863  0.5295 -1.5704
   7523SM  H15C 9817   0.348   4.530   7.482  0.3064 -1.1690  0.0927
   7523SM   C14 9818   0.196   4.512   7.245 -0.2699 -0.0194 -0.3202
   7523SM  H14A 9819   0.123   4.515   7.325  0.8070  1.1291  0.6526
   7523SM  H14B 9820   0.218   4.407   7.228  1.8143  0.0447  1.4676
   7523SM  H14C 9821   0.157   4.548   7.151 -0.0126  1.2272  0.0326
   7523SM   C13 9822   0.301   4.722   7.321 -0.3931  0.3332  0.2217
   7523SM  H13A 9823   0.230   4.776   7.259 -3.3242 -0.2889  2.7873
   7523SM  H13B 9824   0.388   4.786   7.326 -0.9419  1.1397 -0.2791
   7523SM  H13C 9825   0.269   4.714   7.424  0.2516  0.1697  0.4109
   7523SM   C12 9826   0.430   4.582   7.160 -0.6010 -0.1182 -0.1942
   7523SM  H12A 9827   0.529   4.618   7.183  0.1965 -2.0650 -0.4535
   7523SM  H12B 9828   0.396   4.653   7.086 -1.0947  0.9984  1.0725
   7523SM   C11 9829   0.459   4.447   7.088 -0.4907  0.4726  0.1495
   7523SM  H11A 9830   0.507   4.470   6.991  0.2404 -0.3192  0.3135
   7523SM  H11B 9831   0.363   4.396   7.063 -0.4848  0.3130  0.4506
   7523SM     P 9832   0.697   4.368   7.173 -0.1406 -0.1801  0.0309
   7523SM   O13 9833   0.746   4.492   7.230 -0.8674  0.0924 -0.0094
   7523SM   O14 9834   0.738   4.236   7.229 -0.3364 -0.0333  0.0948
   7523SM   O11 9835   0.731   4.383   7.020 -0.0034  0.0630  0.0749
   7523SM   O12 9836   0.536   4.366   7.175  0.4396  0.1169  0.3679
   7523SM   C1S 9837   0.717   4.266   6.942 -0.8624  0.5901 -0.1767
   7523SM   H1S 9838   0.621   4.216   6.968  1.2274 -3.2060  0.8674
   7523SM   H1T 9839   0.799   4.192   6.952 -0.0819  1.3849 -0.5929
   7523SM    NF 9840   0.673   4.171   6.715 -0.0191 -0.3871 -0.5420
   7523SM   HNF 9841   0.744   4.110   6.679 -0.9069 -0.7061 -1.8269
   7523SM   C2S 9842   0.725   4.291   6.789  0.3178  0.1905  0.6153
   7523SM   H2S 9843   0.648   4.366   6.763 -0.6907 -1.5459 -1.7429
   7523SM   C3S 9844   0.870   4.330   6.747 -0.2408  0.2456 -0.1148
   7523SM   H3S 9845   0.946   4.249   6.746  0.8530  1.2561 -0.4006
   7523SM    O3 9846   0.937   4.414   6.843 -0.0328  0.0525 -0.0465
   7523SM   HO3 9847   0.885   4.420   6.924  1.0972  1.3463  0.6231
   7523SM   C4S 9848   0.870   4.382   6.602 -0.1250 -0.3805  0.0493
   7523SM   H4S 9849   0.917   4.318   6.526  0.2755  1.0803 -0.9717
   7523SM   C5S 9850   0.817   4.497   6.559  0.1409 -0.0848 -0.3813
   7523SM   H5S 9851   0.771   4.568   6.630  0.6033  0.2646 -0.4292
   7523SM   C6S 9852   0.806   4.548   6.419 -0.0733  0.0456  0.3973
   7523SM   H6S 9853   0.849   4.651   6.421 -2.0518  0.9125  1.8458
   7523SM   H6T 9854   0.698   4.539   6.393  0.7002 -1.1998 -2.8912
   7523SM   C7S 9855   0.884   4.470   6.313 -0.1985  0.3821  0.4731
   7523SM   H7S 9856   0.860   4.362   6.308  0.4273  0.2831 -0.6482
   7523SM   H7T 9857   0.990   4.479   6.347  0.8447 -1.1487 -2.0670
   7523SM   C8S 9858   0.867   4.531   6.179 -0.3954 -0.1713  0.4876
   7523SM   H8S 9859   0.948   4.495   6.112 -0.5733  1.3687 -0.6330
   7523SM   H8T 9860   0.869   4.642   6.170 -2.2076 -0.3049 -3.9980
   7523SM   C9S 9861   0.743   4.491   6.110  0.7859  0.6218 -0.2528
   7523SM   H9S 9862   0.653   4.533   6.158 -0.8526 -0.8793 -1.8724
   7523SM   H9T 9863   0.732   4.380   6.112 -0.8766  0.7421 -1.0288
   7523SM  C10S 9864   0.719   4.545   5.975 -0.1868  0.1132 -0.3243
   7523SM  H10S 9865   0.810   4.549   5.911 -0.0034 -2.3273 -0.2936
   7523SM  H10T 9866   0.668   4.643   5.984 -0.0566  0.9137 -5.3643
   7523SM  C11S 9867   0.623   4.446   5.906 -0.4401  0.4234 -0.6638
   7523SM  H11S 9868   0.524   4.454   5.956 -1.5878  0.1127 -2.7580
   7523SM  H11T 9869   0.665   4.343   5.899  1.7577  1.2190 -0.0131
   7523SM  C12S 9870   0.604   4.499   5.761  0.0816  0.4901 -0.2779
   7523SM  H12S 9871   0.688   4.566   5.733 -0.6285  1.0872 -1.0412
   7523SM  H12T 9872   0.507   4.553   5.756 -0.7597 -0.7446  1.5587
   7523SM  C13S 9873   0.583   4.393   5.652 -0.7134  0.1013  0.0887
   7523SM  H13S 9874   0.508   4.323   5.694  0.0266 -0.6704  0.1761
   7523SM  H13T 9875   0.683   4.347   5.637 -1.0051 -1.0113  1.3213
   7523SM  C14S 9876   0.540   4.455   5.518 -0.3611 -0.4925  0.5463
   7523SM  H14S 9877   0.623   4.520   5.486 -1.1317 -0.8222 -2.3855
   7523SM  H14T 9878   0.443   4.507   5.535 -0.2842 -0.3303  0.4942
   7523SM  C15S 9879   0.536   4.348   5.407 -0.0615  0.3322 -0.0511
   7523SM  H15S 9880   0.507   4.395   5.311 -0.4584 -0.8568 -0.5336
   7523SM  H15T 9881   0.457   4.271   5.425 -0.1255  0.1078 -1.2356
   7523SM  C16S 9882   0.661   4.266   5.381  0.0512 -0.4953  0.2818
   7523SM  H16S 9883   0.673   4.193   5.463  0.5385 -1.9342 -1.0296
   7523SM  H16T 9884   0.752   4.329   5.368  0.3010 -0.8283  0.3969
   7523SM  C17S 9885   0.636   4.189   5.245 -0.1428 -0.1613  0.2730
   7523SM  H17S 9886   0.616   4.247   5.152 -0.4025 -1.2776 -0.3748
   7523SM  H17T 9887   0.544   4.128   5.258 -0.7508  0.6754 -0.0054
   7523SM  C18S 9888   0.753   4.101   5.200 -0.7223 -0.0467  0.2585
   7523SM  H18S 9889   0.851   4.151   5.184  0.0031 -1.4587  0.1179
   7523SM  H18T 9890   0.738   4.056   5.100  0.9007 -3.2200  1.3150
   7523SM  H18U 9891   0.765   4.031   5.285 -1.0896  0.2058  0.5220
   7523SM   C1F 9892   0.543   4.135   6.714 -0.2239  0.1907  0.0843
   7523SM    OF 9893   0.461   4.207   6.777  0.1430 -0.5183  1.1518
   7523SM   C2F 9894   0.508   4.016   6.633 -0.7803  0.5385 -0.0156
   7523SM   H2F 9895   0.582   3.936   6.655 -1.0406  0.6244  1.2669
   7523SM   H2G 9896   0.517   4.033   6.524 -3.4172  1.4217 -0.1692
   7523SM   C3F 9897   0.359   3.972   6.655 -0.1023 -0.0410  0.1998
   7523SM   H3F 9898   0.298   4.054   6.610  0.9677  0.8277  0.2893
   7523SM   H3G 9899   0.331   3.957   6.761  1.1823 -0.7430  0.4657
   7523SM   C4F 9900   0.322   3.840   6.578  0.7290 -0.1860  0.8428
   7523SM   H4F 9901   0.215   3.812   6.572  0.5072  0.6570  0.7163
   7523SM   H4G 9902   0.381   3.764   6.634  0.9010 -0.6148  0.0877
   7523SM   C5F 9903   0.371   3.848   6.426 -0.5146  0.5302 -0.8609
   7523SM   H5F 9904   0.481   3.862   6.434 -0.2996 -1.7832  1.5634
   7523SM   H5G 9905   0.319   3.926   6.366  0.2630  0.9026 -1.0633
   7523SM   C6F 9906   0.351   3.717   6.357  0.0413 -0.0782 -0.3040
   7523SM   H6F 9907   0.246   3.687   6.380  0.3549 -1.2865 -0.3867
   7523SM   H6G 9908   0.421   3.637   6.391 -0.7727 -0.2784  1.0083
   7523SM   C7F 9909   0.383   3.723   6.208 -0.8522 -0.1988  0.4989
   7523SM   H7F 9910   0.490   3.745   6.187 -1.1453  0.5475 -0.2497
   7523SM   H7G 9911   0.336   3.811   6.159  0.4245  0.1168 -0.2038
   7523SM   C8F 9912   0.335   3.594   6.133  0.4980  0.4994 -0.2398
   7523SM   H8F 9913   0.224   3.593   6.140  0.4812 -1.1083 -0.5165
   7523SM   H8G 9914   0.371   3.498   6.176 -0.3260 -0.6046 -1.9087
   7523SM   C9F 9915   0.352   3.600   5.978 -0.3348 -0.0699  0.3572
   7523SM   H9F 9916   0.459   3.612   5.949 -0.6160  0.2259 -0.6240
   7523SM   H9G 9917   0.295   3.685   5.934 -0.2348 -0.0710  0.2232
   7523SM  C10F 9918   0.305   3.475   5.905  0.2922  0.1494  0.0808
   7523SM  H10F 9919   0.199   3.447   5.925 -0.6624  1.5365 -2.4447
   7523SM  H10G 9920   0.357   3.387   5.947  1.2662  0.7278  0.1132
   7523SM  C11F 9921   0.318   3.476   5.756  0.0136 -0.1318 -0.0190
   7523SM  H11F 9922   0.415   3.526   5.732  0.4200  0.0715  1.8653
   7523SM  H11G 9923   0.237   3.533   5.707  0.6666  1.1442  0.3202
   7523SM  C12F 9924   0.335   3.330   5.697 -0.3018 -0.3310  0.4660
   7523SM  H12F 9925   0.238   3.281   5.719 -0.8571  0.6628  0.2957
   7523SM  H12G 9926   0.423   3.279   5.743  1.2455  2.5473  0.9582
   7523SM  C13F 9927   0.363   3.331   5.543 -0.2991  0.8785 -0.0449
   7523SM  H13F 9928   0.375   3.224   5.516 -1.4189  0.3962  1.1992
   7523SM  H13G 9929   0.457   3.386   5.520  0.7504 -0.3399  1.1173
   7523SM  C14F 9930   0.248   3.396   5.459  1.0893 -0.0305  0.7521
   7523SM  H14F 9931   0.270   3.383   5.351 -1.6298  1.0236 -0.0145
   7523SM  H14G 9932   0.247   3.504   5.484 -1.0555  0.2310 -0.2124
   7523SM  C15F 9933   0.111   3.342   5.485  0.7138 -0.1920 -0.6526
   7523SM  H15F 9934   0.075   3.356   5.589 -0.5541 -0.3306 -1.0609
   7523SM  H15G 9935   0.108   3.236   5.452 -0.9869 -0.5767  0.5882
   7523SM  C16F 9936   0.001   3.411   5.398 -0.2010 -0.0203 -0.4661
   7523SM  H16F 9937   0.046   3.417   5.297 -0.8064  0.2832 -0.7206
   7523SM  H16G 9938  -0.038   3.510   5.429  0.1851  0.6350 -1.9975
   7523SM  C17F 9939  -0.120   3.320   5.395  0.0180 -0.0283  0.1645
   7523SM  H17F 9940  -0.210   3.369   5.353  0.8043  0.4491 -0.9980
   7523SM  H17G 9941  -0.144   3.276   5.494  1.1605 -2.1987 -0.4677
   7523SM  C18F 9942  -0.094   3.202   5.298  0.6715  0.5642  0.3451
   7523SM  H18F 9943  -0.022   3.130   5.344  0.9833 -1.1213 -2.5588
   7523SM  H18G 9944  -0.054   3.240   5.202 -0.4567  0.0834 -0.3273
   7523SM  C19F 9945  -0.218   3.117   5.260 -0.7696  0.1351 -0.0689
   7523SM  H19F 9946  -0.285   3.193   5.213 -2.1344 -0.8216  0.2638
   7523SM  H19G 9947  -0.265   3.093   5.358  1.7352 -0.3957  1.0920
   7523SM  C20F 9948  -0.191   2.997   5.166  0.2118 -0.9805  0.0652
   7523SM  H20F 9949  -0.150   2.912   5.225  0.6893 -2.1901 -1.8892
   7523SM  H20G 9950  -0.114   3.033   5.094  0.4703 -0.0170  0.7964
   7523SM  C21F 9951  -0.318   2.964   5.095 -0.0477  0.4049 -0.0194
   7523SM  H21F 9952  -0.348   3.054   5.038  0.3509 -0.6955 -2.0839
   7523SM  H21G 9953  -0.394   2.945   5.173  2.5424 -0.0514  2.5488
   7523SM  C22F 9954  -0.299   2.850   5.001  0.3818  0.2293 -0.0711
   7523SM  H22F 9955  -0.271   2.761   5.062 -0.8578  0.7894  1.3773
   7523SM  H22G 9956  -0.207   2.869   4.943 -0.9422  1.5573 -1.8642
   7523SM  C23F 9957  -0.420   2.827   4.917  0.0073 -0.4744  0.3993
   7523SM  H23F 9958  -0.510   2.873   4.961 -1.8097 -2.8707 -0.5483
   7523SM  H23G 9959  -0.450   2.720   4.921  1.5988 -0.9280  0.8780
   7523SM  H23H 9960  -0.403   2.856   4.811 -1.1562  0.3478  0.4271
   7623SM     N 9961   2.053   4.389   7.462  0.0007  0.1318  0.2385
   7623SM   C15 9962   1.903   4.377   7.444  0.4328 -0.4027 -0.0078
   7623SM  H15A 9963   1.850   4.445   7.510  1.3225 -0.0569  0.3574
   7623SM  H15B 9964   1.873   4.275   7.465  2.0216 -0.6483  1.3007
   7623SM  H15C 9965   1.879   4.401   7.342 -0.1080  0.9141  0.4064
   7623SM   C14 9966   2.083   4.398   7.609  0.0925  0.2318  1.0724
   7623SM  H14A 9967   2.043   4.494   7.637 -0.6752  1.6921 -4.0962
   7623SM  H14B 9968   2.191   4.396   7.617  0.2230  0.6168 -0.3905
   7623SM  H14C 9969   2.039   4.314   7.660  1.0941 -0.9943 -0.0117
   7623SM   C13 9970   2.110   4.266   7.401  0.0506  0.2085 -0.6281
   7623SM  H13A 9971   2.216   4.273   7.383 -0.2317  1.2003 -2.1637
   7623SM  H13B 9972   2.070   4.258   7.301  0.9178 -0.8140 -0.9075
   7623SM  H13C 9973   2.076   4.184   7.462 -0.7908  0.8993 -0.1428
   7623SM   C12 9974   2.100   4.518   7.397 -0.4028 -0.0318  0.2052
   7623SM  H12A 9975   2.201   4.534   7.431 -0.3076 -0.1427 -0.0198
   7623SM  H12B 9976   2.036   4.595   7.438 -1.2722 -0.8806  0.4824
   7623SM   C11 9977   2.086   4.538   7.247  0.1652  0.7568 -0.7015
   7623SM  H11A 9978   2.139   4.452   7.202 -0.6526 -0.1776  0.0690
   7623SM  H11B 9979   2.140   4.629   7.214  0.2355 -0.0222 -2.9041
   7623SM     P 9980   1.878   4.683   7.228 -0.3020 -0.1549 -0.4223
   7623SM   O13 9981   1.730   4.669   7.238  0.1873  0.6814 -0.1563
   7623SM   O14 9982   1.943   4.761   7.342  0.3334  0.0893 -0.1159
   7623SM   O11 9983   1.914   4.759   7.090 -0.0113  0.6855  0.7963
   7623SM   O12 9984   1.946   4.546   7.203 -0.6514 -0.1643  0.1245
   7623SM   C1S 9985   1.864   4.691   6.965  0.3357  0.9440 -0.0871
   7623SM   H1S 9986   1.759   4.656   6.973 -0.0122  1.8230 -0.6973
   7623SM   H1T 9987   1.928   4.604   6.937 -0.0208  1.0808 -1.4085
   7623SM    NF 9988   1.793   4.697   6.728 -0.2740  0.0102 -0.0749
   7623SM   HNF 9989   1.849   4.673   6.649  2.3279  1.2005  1.2945
   7623SM   C2S 9990   1.863   4.776   6.832  0.2046 -0.0535  0.3844
   7623SM   H2S 9991   1.799   4.864   6.857  2.2208  0.9586  2.3186
   7623SM   C3S 9992   2.002   4.823   6.790 -0.2097 -0.1446 -0.3352
   7623SM   H3S 9993   2.064   4.735   6.762  0.3192 -0.3277  1.3074
   7623SM    O3 9994   2.072   4.903   6.887  0.0750 -0.8478 -0.1532
   7623SM   HO3 9995   2.016   4.899   6.965  1.6089  2.7878  1.3970
   7623SM   C4S 9996   1.993   4.911   6.672  0.4075  0.0231 -0.6055
   7623SM   H4S 9997   2.015   4.852   6.581 -0.5485 -0.1432 -0.7459
   7623SM   C5S 9998   1.982   5.046   6.668 -0.5029 -0.1528 -0.8078
   7623SM   H5S 9999   1.994   5.102   6.762 -0.8572  0.0268 -0.8682
   7623SM   C6S10000   1.999   5.125   6.542 -0.0394 -0.1490  0.6615
   7623SM   H6S10001   2.087   5.190   6.562 -0.8544  1.0926  0.3644
   7623SM   H6T10002   1.915   5.198   6.538 -0.2450 -0.4337 -0.5104
   7623SM   C7S10003   2.004   5.062   6.403 -0.3587 -0.3828 -0.2830
   7623SM   H7S10004   1.905   5.020   6.375 -0.5026  0.3537 -0.8943
   7623SM   H7T10005   2.085   4.986   6.407  0.9108  0.8665 -1.3467
   7623SM   C8S10006   2.027   5.163   6.291  0.2216 -0.0985 -0.1057
   7623SM   H8S10007   2.132   5.200   6.295 -0.3625  2.4701 -3.5515
   7623SM   H8T10008   1.964   5.251   6.313  1.6670  0.5724  1.6306
   7623SM   C9S10009   2.001   5.103   6.157 -0.6787 -0.8146  0.0458
   7623SM   H9S10010   1.892   5.091   6.141 -0.4778 -0.5713 -1.7249
   7623SM   H9T10011   2.044   5.001   6.150  2.7906  0.1943  3.2772
   7623SM  C10S10012   2.055   5.201   6.052 -0.3575  0.3303 -0.2257
   7623SM  H10S10013   2.165   5.219   6.060 -0.3576  2.0463 -2.8096
   7623SM  H10T10014   1.998   5.295   6.068 -0.8327  0.0167 -0.0581
   7623SM  C11S10015   2.023   5.149   5.908 -0.3068  0.1233  1.1141
   7623SM  H11S10016   1.918   5.114   5.905 -0.0176 -0.7339  0.5937
   7623SM  H11T10017   2.084   5.057   5.893  1.6989  1.3484  1.3120
   7623SM  C12S10018   2.053   5.256   5.803  0.7271 -0.1236 -0.9144
   7623SM  H12S10019   2.149   5.306   5.826  0.9138 -1.5277  1.7028
   7623SM  H12T10020   1.971   5.331   5.810 -0.1962 -1.1095 -0.8925
   7623SM  C13S10021   2.061   5.205   5.663  0.1397 -0.1119  0.0824
   7623SM  H13S10022   2.137   5.124   5.659  0.1264 -0.1538  0.6536
   7623SM  H13T10023   2.090   5.286   5.593 -0.0860  1.7161  2.0048
   7623SM  C14S10024   1.930   5.138   5.623 -0.0985  0.1766  0.4417
   7623SM  H14S10025   1.847   5.211   5.613  1.6078  2.3785  1.3924
   7623SM  H14T10026   1.895   5.055   5.689 -0.8505 -1.6107 -2.0611
   7623SM  C15S10027   1.942   5.057   5.487 -0.3806  0.4817  0.7475
   7623SM  H15S10028   1.838   5.025   5.464 -0.7990  0.2196  2.8609
   7623SM  H15T10029   1.987   4.957   5.502 -0.3496  0.4218  0.2746
   7623SM  C16S10030   2.011   5.142   5.380 -0.0623  0.0666 -0.8894
   7623SM  H16S10031   2.118   5.154   5.408 -0.4605 -0.7748  1.1722
   7623SM  H16T10032   1.951   5.234   5.362 -1.6829 -0.8746 -0.4990
   7623SM  C17S10033   2.017   5.061   5.252  0.0440 -0.0678  0.0085
   7623SM  H17S10034   1.920   5.008   5.239 -0.2303  0.4673 -0.1113
   7623SM  H17T10035   2.101   4.987   5.251 -0.3756 -0.5971  1.1916
   7623SM  C18S10036   2.032   5.154   5.138 -0.4795  0.6476 -0.3159
   7623SM  H18S10037   2.066   5.103   5.044  1.0913  1.4746 -0.2295
   7623SM  H18T10038   2.112   5.225   5.168 -1.0247  0.7268  0.9849
   7623SM  H18U10039   1.942   5.217   5.127  0.8339  2.7621  0.5459
   7623SM   C1F10040   1.656   4.702   6.716 -0.3856 -0.0950  0.7576
   7623SM    OF10041   1.584   4.770   6.789 -0.3436  0.0811 -0.3132
   7623SM   C2F10042   1.601   4.612   6.612 -0.0805 -0.3068  0.6019
   7623SM   H2F10043   1.579   4.512   6.657  0.7524 -0.8459 -0.1387
   7623SM   H2G10044   1.677   4.604   6.531 -1.3041 -1.1297 -0.5169
   7623SM   C3F10045   1.462   4.658   6.550 -0.5747 -0.5979 -0.9664
   7623SM   H3F10046   1.463   4.752   6.490  1.2000 -1.1825 -1.9352
   7623SM   H3G10047   1.386   4.658   6.631 -0.0873  0.9563 -0.4664
   7623SM   C4F10048   1.417   4.551   6.444 -0.0859 -0.3507  0.4318
   7623SM   H4F10049   1.409   4.456   6.500 -1.4974 -0.0897  0.7131
   7623SM   H4G10050   1.496   4.530   6.369 -0.3732  0.2885 -0.0585
   7623SM   C5F10051   1.284   4.587   6.378  0.6164  0.6181 -0.3388
   7623SM   H5F10052   1.234   4.643   6.460  0.6954  0.1014  0.0651
   7623SM   H5G10053   1.227   4.494   6.358  0.2120  0.7087  0.3551
   7623SM   C6F10054   1.295   4.669   6.256 -0.1793  0.2304  0.6630
   7623SM   H6F10055   1.375   4.617   6.199  0.7082  1.1733  1.0176
   7623SM   H6G10056   1.319   4.774   6.283  0.5895 -0.1061  1.3355
   7623SM   C7F10057   1.176   4.669   6.160  0.0210 -0.0738 -0.4279
   7623SM   H7F10058   1.093   4.712   6.219 -0.9303 -1.8393 -0.4241
   7623SM   H7G10059   1.135   4.567   6.148 -1.1309  0.2743  0.4141
   7623SM   C8F10060   1.208   4.731   6.026  0.1391  0.4423  0.1579
   7623SM   H8F10061   1.304   4.693   5.984  0.1072  0.7465 -0.1953
   7623SM   H8G10062   1.210   4.842   6.031 -3.0736  0.5781  0.5380
   7623SM   C9F10063   1.097   4.707   5.920 -0.4970  0.2111 -0.2965
   7623SM   H9F10064   1.008   4.754   5.967 -2.1259 -2.1701 -0.7879
   7623SM   H9G10065   1.081   4.597   5.918 -0.1639  0.0071  2.8455
   7623SM  C10F10066   1.127   4.762   5.779  0.1021 -0.1515 -0.2616
   7623SM  H10F10067   1.169   4.865   5.775 -1.0328  0.3716  0.7327
   7623SM  H10G10068   1.028   4.767   5.729 -0.2791 -0.7753  0.4092
   7623SM  C11F10069   1.221   4.683   5.684  0.5499  0.8920 -0.4936
   7623SM  H11F10070   1.186   4.578   5.696 -1.9425  1.7186  0.0448
   7623SM  H11G10071   1.327   4.679   5.718 -0.5968  0.5319  3.5366
   7623SM  C12F10072   1.207   4.734   5.540 -0.3272  0.2053  0.7394
   7623SM  H12F10073   1.262   4.657   5.482 -0.6736 -0.3333  1.1171
   7623SM  H12G10074   1.267   4.828   5.537 -0.2238  0.1484  0.9381
   7623SM  C13F10075   1.070   4.745   5.472 -0.2962  0.0882  0.1145
   7623SM  H13F10076   1.020   4.842   5.493 -0.7962  0.0018 -0.6226
   7623SM  H13G10077   1.001   4.664   5.505  1.2475 -1.8729 -1.2191
   7623SM  C14F10078   1.079   4.742   5.319 -0.1183  0.2850 -0.0122
   7623SM  H14F10079   1.126   4.653   5.272  1.8092  2.0077 -1.5050
   7623SM  H14G10080   1.157   4.818   5.297  0.1359  0.4919  1.5349
   7623SM  C15F10081   0.959   4.774   5.246 -0.4949 -0.5179  0.2537
   7623SM  H15F10082   0.925   4.879   5.263  0.3700  0.4090 -3.0307
   7623SM  H15G10083   0.867   4.719   5.273 -2.2447  2.6180  1.2757
   7623SM  C16F10084   0.972   4.765   5.092 -0.1785  0.3139  0.4154
   7623SM  H16F10085   0.879   4.789   5.036 -0.1492  0.8107  0.5798
   7623SM  H16G10086   1.007   4.662   5.071 -0.6163  0.4466 -1.1054
   7623SM  C17F10087   1.076   4.868   5.039 -0.2268 -0.4789 -0.5069
   7623SM  H17F10088   1.174   4.831   5.075 -1.0582 -2.0704  0.2725
   7623SM  H17G10089   1.047   4.961   5.092 -0.9219 -0.2962 -1.1923
   7623SM  C18F10090   1.082   4.880   4.887  0.0069  0.8105  0.5733
   7623SM  H18F10091   0.984   4.919   4.849 -0.1890  2.6218  2.6986
   7623SM  H18G10092   1.108   4.784   4.839  0.0802  0.5304  1.1680
   7623SM  C19F10093   1.177   4.986   4.836 -0.0564  1.3565  0.5657
   7623SM  H19F10094   1.278   4.958   4.874 -1.0389 -0.7966  1.7866
   7623SM  H19G10095   1.149   5.082   4.885 -1.5346  1.3134 -0.1685
   7623SM  C20F10096   1.169   4.998   4.685 -0.2792  0.1722 -1.2035
   7623SM  H20F10097   1.069   5.021   4.644 -0.6243  0.4880 -0.2038
   7623SM  H20G10098   1.197   4.903   4.635 -2.2732 -1.0700 -0.1055
   7623SM  C21F10099   1.267   5.097   4.635 -0.3411 -0.2919 -0.5487
   7623SM  H21F10100   1.242   5.192   4.686 -1.3859 -1.5575  1.4040
   7623SM  H21G10101   1.260   5.120   4.526  0.2643  1.4454 -0.2475
   7623SM  C22F10102   1.416   5.068   4.666 -0.7275 -0.2032 -0.2386
   7623SM  H22F10103   1.427   4.958   4.666  0.4912 -0.1066  0.7151
   7623SM  H22G10104   1.437   5.094   4.772 -0.2439 -2.1095  0.1727
   7623SM  C23F10105   1.514   5.144   4.571  0.1875 -0.6380 -0.2485
   7623SM  H23F10106   1.511   5.254   4.588  1.2125 -0.8483  1.4844
   7623SM  H23G10107   1.485   5.110   4.469 -1.3909 -1.5396  0.4697
   7623SM  H23H10108   1.617   5.117   4.601  0.6226 -0.1130 -1.2156
   7723SM     N10109   1.449   2.483   7.332  0.0399 -0.5611  0.0836
   7723SM   C1510110   1.417   2.610   7.262  0.5028  0.2763  0.3228
   7723SM  H15A10111   1.327   2.662   7.292  0.6206  0.6561  0.0354
   7723SM  H15B10112   1.389   2.591   7.159  1.3041  1.6731 -0.1785
   7723SM  H15C10113   1.497   2.683   7.262  1.7757 -1.0461  2.0430
   7723SM   C1410114   1.452   2.507   7.484  0.5197 -0.1691 -0.4488
   7723SM  H14A10115   1.496   2.422   7.535  1.9082  1.3211  0.9497
   7723SM  H14B10116   1.352   2.513   7.525  0.3479 -1.4746 -0.6149
   7723SM  H14C10117   1.514   2.586   7.523  0.8320 -0.4728 -0.3182
   7723SM   C1310118   1.338   2.387   7.299  0.0376  0.2273  0.3581
   7723SM  H13A10119   1.383   2.288   7.296  0.9250  0.5845  1.3178
   7723SM  H13B10120   1.297   2.401   7.201  0.6837 -0.5186 -0.0288
   7723SM  H13C10121   1.259   2.383   7.372 -0.0187 -1.5630  0.2646
   7723SM   C1210122   1.584   2.431   7.282 -0.2983 -0.7758 -0.0241
   7723SM  H12A10123   1.611   2.345   7.340  2.1216 -0.6096 -0.8018
   7723SM  H12B10124   1.671   2.490   7.306 -0.2499 -0.7967 -0.1507
   7723SM   C1110125   1.590   2.403   7.133 -0.2040 -0.0986 -0.3037
   7723SM  H11A10126   1.697   2.388   7.108 -0.2457  0.5148 -0.8731
   7723SM  H11B10127   1.560   2.486   7.067  2.2655  2.3587  1.4500
   7723SM     P10128   1.568   2.147   7.142 -0.2443 -0.1691 -0.2781
   7723SM   O1310129   1.713   2.141   7.112 -0.0502 -0.3842  0.2783
   7723SM   O1410130   1.535   2.127   7.286 -0.5765 -0.0946  0.0419
   7723SM   O1110131   1.490   2.047   7.044 -0.0911 -0.0978 -0.4120
   7723SM   O1210132   1.504   2.287   7.101  0.2574 -0.8152 -0.5431
   7723SM   C1S10133   1.480   2.085   6.910 -0.8757  0.2052  0.4591
   7723SM   H1S10134   1.515   2.189   6.892 -0.0654 -0.3625 -1.6553
   7723SM   H1T10135   1.375   2.080   6.875 -0.2368 -0.4217 -1.5368
   7723SM    NF10136   1.518   2.053   6.672  0.0750 -0.2146  0.5502
   7723SM   HNF10137   1.450   2.010   6.614  0.0864 -0.8572  1.0012
   7723SM   C2S10138   1.548   1.997   6.805 -0.6116 -0.0599 -0.3758
   7723SM   H2S10139   1.658   2.000   6.821 -0.2613 -2.7154 -1.6522
   7723SM   C3S10140   1.514   1.846   6.825  0.4215 -0.5772 -0.8819
   7723SM   H3S10141   1.403   1.844   6.824  0.2767  1.9885  0.7179
   7723SM    O310142   1.562   1.798   6.949 -0.2235  0.0455 -0.2370
   7723SM   HO310143   1.584   1.884   6.984 -1.7155  0.4722 -0.2766
   7723SM   C4S10144   1.577   1.758   6.714 -0.5001 -0.0863 -0.4678
   7723SM   H4S10145   1.687   1.762   6.717 -0.5095 -0.1105  2.3550
   7723SM   C5S10146   1.505   1.688   6.627 -0.4478 -0.6320  0.0014
   7723SM   H5S10147   1.396   1.683   6.643 -0.5202 -0.7305 -0.5009
   7723SM   C6S10148   1.556   1.593   6.518 -0.3451 -1.0871 -0.2865
   7723SM   H6S10149   1.667   1.594   6.520 -0.2504  2.6079  1.1607
   7723SM   H6T10150   1.546   1.635   6.416 -0.0148  0.9922  0.4756
   7723SM   C7S10151   1.500   1.449   6.512  0.0688 -0.1948 -0.4652
   7723SM   H7S10152   1.526   1.389   6.601 -0.4986 -0.0647 -0.2108
   7723SM   H7T10153   1.547   1.409   6.419 -0.0958  1.5528 -1.3412
   7723SM   C8S10154   1.344   1.446   6.485 -0.5590 -0.2455  0.3384
   7723SM   H8S10155   1.306   1.547   6.458 -1.5358 -1.1469 -1.8898
   7723SM   H8T10156   1.300   1.404   6.578  0.2248 -1.5067  0.1648
   7723SM   C9S10157   1.301   1.334   6.385  0.3112  0.3797 -0.4779
   7723SM   H9S10158   1.359   1.241   6.403 -0.5753 -0.3208 -1.1415
   7723SM   H9T10159   1.339   1.365   6.285  1.5567  0.4271  0.0005
   7723SM  C10S10160   1.153   1.285   6.392  0.4877 -0.3210 -0.0202
   7723SM  H10S10161   1.091   1.376   6.374  2.6130  1.2516  0.1948
   7723SM  H10T10162   1.136   1.257   6.498  0.3112  0.1623  0.0835
   7723SM  C11S10163   1.112   1.173   6.298  0.5247  0.4503  0.1605
   7723SM  H11S10164   1.155   1.077   6.332  0.2832  0.7565  1.3854
   7723SM  H11T10165   1.160   1.191   6.199  1.6626 -0.6529  0.4919
   7723SM  C12S10166   0.962   1.154   6.269 -0.0626  0.2635  0.4315
   7723SM  H12S10167   0.913   1.245   6.229  0.3915 -0.3141 -1.5170
   7723SM  H12T10168   0.903   1.134   6.362 -0.0947 -1.0884  0.1341
   7723SM  C13S10169   0.928   1.045   6.169 -0.4475 -0.4478  0.1830
   7723SM  H13S10170   0.817   1.035   6.172 -0.3371 -1.6309  1.9469
   7723SM  H13T10171   0.967   0.947   6.206  0.8759  0.3163  0.8786
   7723SM  C14S10172   0.968   1.084   6.025  0.5876  0.4334 -0.4139
   7723SM  H14S10173   1.079   1.091   6.029  0.7033 -1.2960  0.1501
   7723SM  H14T10174   0.935   1.188   6.001  0.6753  1.2435  2.4928
   7723SM  C15S10175   0.926   0.989   5.908  0.2980 -0.4348  0.1915
   7723SM  H15S10176   0.816   0.976   5.916  0.0201  1.0792 -0.8001
   7723SM  H15T10177   0.984   0.895   5.915  1.5202  0.2342 -0.6225
   7723SM  C16S10178   0.970   1.045   5.770 -0.4409 -0.0119 -0.0079
   7723SM  H16S10179   1.080   1.044   5.756 -0.4118 -0.5304  0.2488
   7723SM  H16T10180   0.918   1.142   5.756 -0.2152  0.1105 -0.0146
   7723SM  C17S10181   0.919   0.944   5.658  0.5630 -0.3524 -0.2569
   7723SM  H17S10182   0.808   0.942   5.665  0.4547 -0.6835 -1.6225
   7723SM  H17T10183   0.939   0.840   5.692 -1.7715 -1.0478 -0.8218
   7723SM  C18S10184   0.967   0.974   5.516  0.4190 -0.2833  0.4248
   7723SM  H18S10185   1.077   0.964   5.504  0.6186 -0.5504  2.2815
   7723SM  H18T10186   0.927   1.075   5.496 -0.0493 -0.2470  1.5093
   7723SM  H18U10187   0.920   0.908   5.440  1.2387 -0.3901 -0.0026
   7723SM   C1F10188   1.546   2.182   6.636 -0.0370  0.2907 -0.6258
   7723SM    OF10189   1.621   2.250   6.705 -0.5143  0.4614 -0.1076
   7723SM   C2F10190   1.484   2.236   6.517 -0.2172  0.0103  0.1199
   7723SM   H2F10191   1.376   2.211   6.504 -0.4245  0.9786 -0.0724
   7723SM   H2G10192   1.540   2.190   6.432  0.4869  0.5521  0.2804
   7723SM   C3F10193   1.496   2.389   6.532  0.6946 -0.3712  0.3077
   7723SM   H3F10194   1.599   2.425   6.553  0.4933 -0.7409  2.0458
   7723SM   H3G10195   1.424   2.420   6.611  2.0325 -2.0349  2.2767
   7723SM   C4F10196   1.445   2.454   6.407  0.4645 -0.9930  0.2945
   7723SM   H4F10197   1.434   2.563   6.428  0.6735 -0.6572 -1.2127
   7723SM   H4G10198   1.344   2.419   6.376 -0.1568 -1.7760  2.9500
   7723SM   C5F10199   1.531   2.438   6.282 -0.3161 -0.2193  0.5363
   7723SM   H5F10200   1.551   2.330   6.261 -1.5133 -0.5056  0.8289
   7723SM   H5G10201   1.626   2.489   6.307 -0.0265 -1.1301  1.3782
   7723SM   C6F10202   1.462   2.496   6.159 -0.1528  0.5673  0.1948
   7723SM   H6F10203   1.443   2.606   6.162 -3.8290  0.1286 -1.4619
   7723SM   H6G10204   1.370   2.439   6.136 -1.0896  2.1693 -0.2277
   7723SM   C7F10205   1.558   2.474   6.044 -0.0760  0.1328 -0.3018
   7723SM   H7F10206   1.584   2.366   6.042 -1.1224 -0.1530  0.5516
   7723SM   H7G10207   1.645   2.538   6.069  0.8033 -0.3014 -2.0784
   7723SM   C8F10208   1.493   2.504   5.906  0.0153  0.4809 -0.7058
   7723SM   H8F10209   1.457   2.607   5.886  0.2667  0.1035 -3.5900
   7723SM   H8G10210   1.403   2.439   5.913 -0.3297  1.0001 -0.2117
   7723SM   C9F10211   1.580   2.477   5.780 -0.3101  0.6525 -0.0918
   7723SM   H9F10212   1.608   2.369   5.783 -1.8719  0.2325  1.2837
   7723SM   H9G10213   1.668   2.544   5.784 -0.4183  0.7439  1.1402
   7723SM  C10F10214   1.495   2.499   5.656  0.2809  0.1635 -0.0669
   7723SM  H10F10215   1.479   2.609   5.655 -0.1568  0.1574 -3.1125
   7723SM  H10G10216   1.406   2.434   5.673 -0.0658  1.0595  1.8210
   7723SM  C11F10217   1.559   2.460   5.524 -0.0029  0.5860 -0.8123
   7723SM  H11F10218   1.608   2.361   5.532  0.7321  1.1050  2.6530
   7723SM  H11G10219   1.645   2.526   5.498  0.7637 -0.1310 -0.1404
   7723SM  C12F10220   1.451   2.450   5.411  0.3578  0.3931 -0.0326
   7723SM  H12F10221   1.404   2.549   5.389 -1.4987 -0.8590 -2.1337
   7723SM  H12G10222   1.374   2.377   5.443 -0.1239  0.3017 -1.3504
   7723SM  C13F10223   1.518   2.410   5.283 -0.4940  0.0536  0.4788
   7723SM  H13F10224   1.583   2.321   5.299 -1.9218 -0.6692  2.7292
   7723SM  H13G10225   1.585   2.493   5.252  0.3733 -0.4263  1.0101
   7723SM  C14F10226   1.413   2.390   5.168 -1.1445  0.7495  0.0197
   7723SM  H14F10227   1.381   2.493   5.139 -2.0617  0.6289  0.5434
   7723SM  H14G10228   1.334   2.320   5.203  0.8533 -0.1575  3.0352
   7723SM  C15F10229   1.475   2.310   5.044  0.2550 -0.7630  0.3392
   7723SM  H15F10230   1.496   2.205   5.070  0.0083 -0.5427  1.4718
   7723SM  H15G10231   1.580   2.337   5.020  0.1029 -0.5896 -0.1591
   7723SM  C16F10232   1.398   2.329   4.913  0.2260 -0.4122 -0.0327
   7723SM  H16F10233   1.404   2.434   4.880 -1.2593  0.1994  1.5220
   7723SM  H16G10234   1.291   2.304   4.929 -0.0446  0.8209  0.1150
   7723SM  C17F10235   1.467   2.225   4.818 -0.0715  0.2740 -0.1776
   7723SM  H17F10236   1.465   2.120   4.853  0.4355 -0.0770 -1.1690
   7723SM  H17G10237   1.571   2.251   4.790  0.0398  1.1118  0.9106
   7723SM  C18F10238   1.390   2.220   4.684  0.0725 -0.4308 -0.3364
   7723SM  H18F10239   1.379   2.321   4.639  1.1116  0.0858  0.5195
   7723SM  H18G10240   1.286   2.200   4.718  0.0607  0.2637  0.0487
   7723SM  C19F10241   1.450   2.122   4.584  0.0776  0.1061 -0.1005
   7723SM  H19F10242   1.478   2.028   4.636 -2.5480 -0.3257  0.6958
   7723SM  H19G10243   1.539   2.167   4.535 -0.7672  0.5882 -1.2477
   7723SM  C20F10244   1.350   2.068   4.475 -0.5213 -0.1547 -1.1834
   7723SM  H20F10245   1.307   2.157   4.425 -1.8586 -1.4465 -2.4433
   7723SM  H20G10246   1.267   2.013   4.525  0.0138 -1.5270 -1.7398
   7723SM  C21F10247   1.427   1.977   4.385 -0.0508  0.0033  0.0215
   7723SM  H21F10248   1.485   1.914   4.456 -0.0324 -0.8282 -0.7034
   7723SM  H21G10249   1.493   2.036   4.318 -0.1061  0.6611  0.5415
   7723SM  C22F10250   1.338   1.904   4.288 -0.0463  0.1729  0.6980
   7723SM  H22F10251   1.286   1.988   4.235  0.5278  0.6536  0.8865
   7723SM  H22G10252   1.252   1.852   4.336 -1.8269  1.2692 -1.1050
   7723SM  C23F10253   1.418   1.817   4.184 -0.4482  0.1008 -0.7334
   7723SM  H23F10254   1.354   1.768   4.109 -1.1748 -2.0357  1.1673
   7723SM  H23G10255   1.476   1.735   4.229 -0.2886  1.8439  2.5839
   7723SM  H23H10256   1.487   1.888   4.134  3.5983 -0.1683  3.6978
   7823SM     N10257   2.362   6.943   7.416 -0.2414  0.4171 -0.9030
   7823SM   C1510258   2.318   6.821   7.351  0.0353  0.6100 -0.5436
   7823SM  H15A10259   2.313   6.827   7.244 -3.0105  0.1841 -0.5152
   7823SM  H15B10260   2.220   6.782   7.372 -0.3168 -0.1820 -3.2724
   7823SM  H15C10261   2.388   6.739   7.363 -2.0923 -1.6414 -2.6134
   7823SM   C1410262   2.381   6.917   7.566 -0.2431  0.3773 -0.4580
   7823SM  H14A10263   2.295   6.919   7.631  1.6202 -0.6495  2.1680
   7823SM  H14B10264   2.451   6.990   7.605 -1.0973  0.2158  1.4956
   7823SM  H14C10265   2.432   6.822   7.567 -1.2706 -0.2079 -1.3127
   7823SM   C1310266   2.492   7.002   7.361  0.1764  0.4003 -0.0888
   7823SM  H13A10267   2.536   7.074   7.429 -0.0542  1.7848 -1.3511
   7823SM  H13B10268   2.471   7.063   7.274  0.0459  2.5921  1.4063
   7823SM  H13C10269   2.571   6.933   7.334 -0.0100 -0.4577  1.4212
   7823SM   C1210270   2.263   7.061   7.407 -0.4260  0.0150 -0.9096
   7823SM  H12A10271   2.297   7.129   7.483  1.0355 -0.3529 -1.1949
   7823SM  H12B10272   2.166   7.025   7.440 -1.5042  2.2797 -1.4269
   7823SM   C1110273   2.243   7.133   7.275  0.6291  0.4322 -0.1240
   7823SM  H11A10274   2.283   7.072   7.191  1.4503 -0.2621  0.7407
   7823SM  H11B10275   2.300   7.228   7.280  2.3911 -0.3835 -2.3620
   7823SM     P10276   2.021   7.116   7.142  0.1553 -0.0038 -0.1574
   7823SM   O1310277   1.984   6.974   7.152  0.1017  0.1655  0.8407
   7823SM   O1410278   1.919   7.219   7.124  0.5052 -0.7685  0.0074
   7823SM   O1110279   2.123   7.129   7.013  0.3493 -0.7366 -0.2534
   7823SM   O1210280   2.105   7.160   7.267 -0.0442 -0.4029  0.4575
   7823SM   C1S10281   2.059   7.160   6.894  0.0394  1.1157 -0.0465
   7823SM   H1S10282   2.040   7.269   6.886 -0.3112  1.0273 -0.4314
   7823SM   H1T10283   1.959   7.112   6.886 -0.7749  2.6014  0.6576
   7823SM    NF10284   2.079   7.178   6.649  0.3022  0.3704  0.2075
   7823SM   HNF10285   2.041   7.114   6.582  4.7186 -2.0063 -0.4021
   7823SM   C2S10286   2.143   7.119   6.764 -0.0365  0.4271 -0.1031
   7823SM   H2S10287   2.245   7.165   6.766 -0.0062  0.5302 -1.9542
   7823SM   C3S10288   2.162   6.963   6.756 -0.3456 -0.3295  0.0869
   7823SM   H3S10289   2.063   6.917   6.738 -1.5661  2.6941 -1.6270
   7823SM    O310290   2.212   6.904   6.873 -0.3990 -0.0824 -0.0217
   7823SM   HO310291   2.202   6.979   6.932 -1.8575 -0.7994  0.6791
   7823SM   C4S10292   2.257   6.940   6.640  0.1793  0.7081 -0.2499
   7823SM   H4S10293   2.351   6.997   6.646 -0.2266  1.3189  0.3487
   7823SM   C5S10294   2.240   6.846   6.550 -0.2004  0.0297 -0.0915
   7823SM   H5S10295   2.154   6.777   6.545  0.4360 -0.7210 -0.8809
   7823SM   C6S10296   2.338   6.831   6.435 -0.6958  0.4908  0.4923
   7823SM   H6S10297   2.418   6.756   6.456 -0.5372  0.4305 -0.3120
   7823SM   H6T10298   2.394   6.926   6.424  1.4214 -0.6649  0.7651
   7823SM   C7S10299   2.260   6.798   6.306  0.2792 -0.2422  0.6870
   7823SM   H7S10300   2.218   6.696   6.321 -0.1809 -0.2615 -0.5942
   7823SM   H7T10301   2.322   6.784   6.215 -0.7517 -0.9948  0.0688
   7823SM   C8S10302   2.140   6.894   6.268  0.4323  0.2993  0.2321
   7823SM   H8S10303   2.159   7.003   6.282 -0.8676  0.7252 -1.0537
   7823SM   H8T10304   2.064   6.863   6.342  0.7838 -1.6527 -0.1754
   7823SM   C9S10305   2.079   6.857   6.128 -0.1816  0.2346 -0.1106
   7823SM   H9S10306   2.048   6.751   6.129  4.0305 -1.2326  1.8667
   7823SM   H9T10307   2.161   6.858   6.053 -0.2511  1.8936 -0.2055
   7823SM  C10S10308   1.965   6.949   6.087 -0.4706  0.3520 -0.1948
   7823SM  H10S10309   1.987   7.056   6.108  1.0837 -0.0873  0.5500
   7823SM  H10T10310   1.875   6.918   6.143 -1.0168  1.5510 -0.3821
   7823SM  C11S10311   1.931   6.936   5.938  0.2360  0.1253 -0.0564
   7823SM  H11S10312   1.948   6.833   5.898  0.6221  0.9147 -2.0303
   7823SM  H11T10313   1.996   6.995   5.870  0.1969 -1.7306 -1.7893
   7823SM  C12S10314   1.788   6.982   5.905 -0.6194  0.3867  0.9918
   7823SM  H12S10315   1.794   7.091   5.926  0.5538  0.3004  1.1868
   7823SM  H12T10316   1.714   6.938   5.976 -2.3143  1.1688 -0.2255
   7823SM  C13S10317   1.748   6.969   5.756 -0.0064 -0.3021  0.5961
   7823SM  H13S10318   1.727   6.865   5.724  1.4350 -0.5274  0.3259
   7823SM  H13T10319   1.838   7.002   5.700 -0.1828 -2.1616 -0.8682
   7823SM  C14S10320   1.633   7.066   5.717  0.3721 -0.4734 -0.1032
   7823SM  H14S10321   1.661   7.172   5.734  0.2311 -0.4556  0.0179
   7823SM  H14T10322   1.539   7.046   5.773 -0.2051  0.0556 -0.8551
   7823SM  C15S10323   1.598   7.072   5.561 -0.4347 -0.5496  0.0792
   7823SM  H15S10324   1.503   7.129   5.555 -0.0318  0.2980  1.3895
   7823SM  H15T10325   1.563   6.972   5.527  2.7497 -1.2628 -1.4142
   7823SM  C16S10326   1.714   7.133   5.478  0.0505  0.2959 -0.3212
   7823SM  H16S10327   1.794   7.057   5.462  0.0678  0.0081  1.0452
   7823SM  H16T10328   1.764   7.216   5.534 -0.3553  0.6188 -0.4338
   7823SM  C17S10329   1.657   7.183   5.344 -0.5536 -0.0376 -0.1610
   7823SM  H17S10330   1.724   7.265   5.310  1.6663 -1.8483 -0.3233
   7823SM  H17T10331   1.560   7.238   5.348 -0.6504 -0.2495  0.4727
   7823SM  C18S10332   1.645   7.080   5.233 -0.2461 -0.7060  1.1769
   7823SM  H18S10333   1.744   7.038   5.206 -0.3585 -0.4426  0.3343
   7823SM  H18T10334   1.616   7.125   5.136  0.1943 -2.0533  0.3946
   7823SM  H18U10335   1.564   7.006   5.253 -2.3919  1.2613  0.2872
   7823SM   C1F10336   2.084   7.307   6.617 -0.0652 -0.8169  0.0311
   7823SM    OF10337   2.145   7.386   6.688  0.0733  0.5487  0.0450
   7823SM   C2F10338   2.016   7.344   6.493 -0.2410 -0.6823  0.2563
   7823SM   H2F10339   1.908   7.358   6.510  0.0664  0.9509  1.0207
   7823SM   H2G10340   2.036   7.271   6.411 -1.5356 -2.1880  1.2275
   7823SM   C3F10341   2.067   7.478   6.428 -0.1522  0.3543 -0.1304
   7823SM   H3F10342   2.168   7.452   6.390 -0.6372 -1.7349 -0.1079
   7823SM   H3G10343   2.075   7.565   6.496  1.5009  0.3230 -0.2366
   7823SM   C4F10344   1.978   7.514   6.308 -0.7307  0.4225  0.0576
   7823SM   H4F10345   1.871   7.512   6.337 -0.4918  0.9316  1.0233
   7823SM   H4G10346   1.999   7.435   6.233  0.3003  0.2959  0.4546
   7823SM   C5F10347   1.999   7.653   6.246  0.7238  1.0881 -0.0343
   7823SM   H5F10348   1.983   7.729   6.325 -1.2024 -0.1957  0.8975
   7823SM   H5G10349   1.911   7.658   6.178 -0.3291 -0.7412  1.0986
   7823SM   C6F10350   2.126   7.647   6.170 -0.5191 -0.4110  0.0456
   7823SM   H6F10351   2.130   7.545   6.124 -0.0812 -0.2611 -0.2624
   7823SM   H6G10352   2.214   7.651   6.237  0.9179 -0.2416 -1.7460
   7823SM   C7F10353   2.132   7.751   6.053  0.1692  0.4029 -0.4277
   7823SM   H7F10354   2.120   7.849   6.104  2.7571  0.7745 -0.4118
   7823SM   H7G10355   2.044   7.741   5.986  1.2525  2.0721 -2.1911
   7823SM   C8F10356   2.256   7.763   5.978 -1.0611 -0.2660 -0.1819
   7823SM   H8F10357   2.295   7.664   5.945  1.0629 -0.2605  2.0221
   7823SM   H8G10358   2.333   7.801   6.048 -1.3092 -0.1859  0.0456
   7823SM   C9F10359   2.240   7.849   5.844 -0.8058  0.8308 -0.0852
   7823SM   H9F10360   2.204   7.950   5.874 -0.6531  0.9940 -0.4344
   7823SM   H9G10361   2.159   7.797   5.788 -0.4461  0.7424 -0.5289
   7823SM  C10F10362   2.365   7.856   5.753 -0.4502 -0.9045 -0.0439
   7823SM  H10F10363   2.401   7.758   5.714 -0.1395  0.1810 -2.7335
   7823SM  H10G10364   2.448   7.894   5.817  0.6498 -1.4140 -1.1254
   7823SM  C11F10365   2.357   7.958   5.632  0.5147 -0.5066  0.0392
   7823SM  H11F10366   2.450   7.938   5.574  1.4305 -1.0342  1.6311
   7823SM  H11G10367   2.369   8.066   5.656  1.6158 -0.5604 -0.2167
   7823SM  C12F10368   2.234   7.941   5.537 -0.4610  0.7614 -0.1102
   7823SM  H12F10369   2.147   7.987   5.589 -1.7473 -1.5282 -0.0769
   7823SM  H12G10370   2.224   7.831   5.520  1.8827  0.2025  1.5286
   7823SM  C13F10371   2.241   8.020   5.398  0.0530 -0.7885 -0.2185
   7823SM  H13F10372   2.334   7.999   5.341 -0.1471 -0.2482 -0.7621
   7823SM  H13G10373   2.259   8.128   5.416  0.6693 -0.7556 -0.9742
   7823SM  C14F10374   2.120   7.998   5.311  0.0245 -0.2906 -0.4637
   7823SM  H14F10375   2.027   8.012   5.371  0.3359 -0.4997  0.0774
   7823SM  H14G10376   2.123   7.891   5.280  0.8932 -0.3202 -0.3159
   7823SM  C15F10377   2.113   8.100   5.197 -0.4849 -0.0900 -0.1758
   7823SM  H15F10378   2.137   8.198   5.243 -0.6365  0.3403 -0.9989
   7823SM  H15G10379   2.010   8.089   5.158 -1.1270 -1.0071  1.6679
   7823SM  C16F10380   2.207   8.062   5.080 -0.8572  0.1704 -0.1406
   7823SM  H16F10381   2.198   7.957   5.046  1.1955 -0.5401  1.3213
   7823SM  H16G10382   2.310   8.054   5.121 -0.6393  2.1606 -0.1713
   7823SM  C17F10383   2.215   8.149   4.956 -0.1594 -0.3711 -0.4135
   7823SM  H17F10384   2.297   8.105   4.896  0.6212 -0.6665  0.8317
   7823SM  H17G10385   2.247   8.250   4.990 -0.5088 -0.1708 -0.6767
   7823SM  C18F10386   2.089   8.157   4.873 -0.3659 -0.0140  0.7667
   7823SM  H18F10387   2.011   8.200   4.939  0.8333 -0.5295  2.6018
   7823SM  H18G10388   2.056   8.063   4.824 -0.0556 -0.6754  1.8102
   7823SM  C19F10389   2.125   8.250   4.749 -0.4447 -0.5907  0.5396
   7823SM  H19F10390   2.211   8.211   4.691 -0.5421 -0.4536  0.3016
   7823SM  H19G10391   2.158   8.351   4.783 -1.1537  0.6273 -2.1445
   7823SM  C20F10392   2.007   8.281   4.654  0.5515  0.2145  0.2343
   7823SM  H20F10393   1.922   8.346   4.684  1.5078  2.4448 -1.5107
   7823SM  H20G10394   1.970   8.180   4.627 -0.4344  0.6586 -0.0959
   7823SM  C21F10395   2.041   8.343   4.518  0.3416  0.1870 -0.4187
   7823SM  H21F10396   2.122   8.291   4.462  1.3365  0.0390  1.1069
   7823SM  H21G10397   2.075   8.449   4.529  1.6275 -0.1603 -0.8308
   7823SM  C22F10398   1.923   8.370   4.427  0.4450  0.1428 -0.1587
   7823SM  H22F10399   1.863   8.279   4.405  0.2845  0.1424  0.2692
   7823SM  H22G10400   1.976   8.387   4.331 -1.1082 -0.7709 -1.2216
   7823SM  C23F10401   1.833   8.484   4.466 -0.7315  0.1760 -0.5517
   7823SM  H23F10402   1.772   8.509   4.376  2.2067  2.1217 -2.1853
   7823SM  H23G10403   1.890   8.579   4.480 -1.0604  0.0960  1.6040
   7823SM  H23H10404   1.769   8.457   4.552 -0.2320  1.4336  0.2541
   7923SM     N10405   7.524   6.598   7.718  0.5511  0.0137  0.0231
   7923SM   C1510406   7.490   6.642   7.860  0.4389 -0.2370 -0.4059
   7923SM  H15A10407   7.523   6.571   7.934  0.9617  1.0149  0.5890
   7923SM  H15B10408   7.383   6.653   7.871  0.6019 -0.8873  2.4357
   7923SM  H15C10409   7.527   6.739   7.889  3.0291  0.0859 -4.0395
   7923SM   C1410410   7.671   6.604   7.701  0.2060  0.1602 -0.2655
   7923SM  H14A10411   7.694   6.588   7.597 -1.9525 -0.8317 -0.6330
   7923SM  H14B10412   7.711   6.525   7.763 -1.5093 -1.7307 -1.4566
   7923SM  H14C10413   7.712   6.700   7.727  0.4230 -0.2326  0.9000
   7923SM   C1310414   7.476   6.457   7.707  0.2830  0.8624  0.0375
   7923SM  H13A10415   7.370   6.443   7.720  0.0525  0.9168 -1.5320
   7923SM  H13B10416   7.527   6.388   7.772  1.0229  1.5384  0.1881
   7923SM  H13C10417   7.503   6.424   7.608 -0.9973 -1.1617  0.3063
   7923SM   C1210418   7.455   6.692   7.618 -0.5319  0.4293 -0.1244
   7923SM  H12A10419   7.492   6.794   7.621  1.4768 -0.1609 -1.7818
   7923SM  H12B10420   7.354   6.698   7.653 -0.1363 -1.2606  1.4486
   7923SM   C1110421   7.448   6.654   7.471  0.6975  0.1926 -0.1249
   7923SM  H11A10422   7.373   6.721   7.424 -0.2556 -1.5716 -1.2047
   7923SM  H11B10423   7.404   6.552   7.468  0.6363 -0.0130  3.2618
   7923SM     P10424   7.661   6.796   7.397  0.4487  0.0671  0.0109
   7923SM   O1310425   7.642   6.898   7.505 -0.0619 -0.7860  0.3028
   7923SM   O1410426   7.799   6.755   7.381 -0.1029 -0.3464  0.4173
   7923SM   O1110427   7.600   6.862   7.265 -0.0587 -0.7656  0.3391
   7923SM   O1210428   7.573   6.669   7.416 -0.0232 -0.2317  0.0421
   7923SM   C1S10429   7.561   6.780   7.160  0.3504  0.0586  0.0116
   7923SM   H1S10430   7.466   6.726   7.184  0.0020  1.2717  1.5591
   7923SM   H1T10431   7.636   6.704   7.130  0.2680  0.1505 -0.4313
   7923SM    NF10432   7.493   6.785   6.913 -0.1880  0.0510 -0.4660
   7923SM   HNF10433   7.556   6.739   6.851 -1.7392 -1.5590 -0.9313
   7923SM   C2S10434   7.547   6.858   7.031  0.8112 -0.2086  0.3291
   7923SM   H2S10435   7.483   6.946   7.051  2.5738  1.8921 -2.5097
   7923SM   C3S10436   7.681   6.926   6.999  0.3419 -0.5757 -0.0878
   7923SM   H3S10437   7.761   6.849   6.991  0.8485  0.1577 -3.3385
   7923SM    O310438   7.726   7.018   7.104  0.1252  0.7376  0.0415
   7923SM   HO310439   7.667   6.988   7.174  1.0949 -1.9294 -0.2074
   7923SM   C4S10440   7.671   7.001   6.866  0.2238 -0.0143  0.5082
   7923SM   H4S10441   7.710   6.940   6.782  1.6961  1.5376 -0.0009
   7923SM   C5S10442   7.622   7.125   6.835  0.3288  0.2584  0.0292
   7923SM   H5S10443   7.572   7.175   6.919  1.0304 -1.4006  1.4712
   7923SM   C6S10444   7.611   7.192   6.701 -0.3568  0.7024 -0.0548
   7923SM   H6S10445   7.638   7.300   6.699 -0.7585  0.7960 -1.9382
   7923SM   H6T10446   7.501   7.200   6.684 -0.2648  0.1634 -0.9728
   7923SM   C7S10447   7.678   7.114   6.598  0.1071 -0.7480 -0.4510
   7923SM   H7S10448   7.645   7.011   6.573  1.4038 -0.8042 -2.1065
   7923SM   H7T10449   7.786   7.099   6.619 -0.1186  0.3053  1.6694
   7923SM   C8S10450   7.682   7.192   6.466 -0.4611 -0.1690  0.4538
   7923SM   H8S10451   7.743   7.284   6.483 -1.0841  0.4562 -0.6314
   7923SM   H8T10452   7.584   7.221   6.424 -0.6263 -0.4572  0.6353
   7923SM   C9S10453   7.770   7.108   6.368  0.0574  0.2952 -0.6171
   7923SM   H9S10454   7.727   7.009   6.341  0.3895  0.2005 -0.8044
   7923SM   H9T10455   7.868   7.105   6.422  0.2140  1.3223 -0.8319
   7923SM  C10S10456   7.793   7.187   6.244  0.6358 -0.2405 -0.3119
   7923SM  H10S10457   7.869   7.261   6.278 -0.0405  1.0808 -1.5520
   7923SM  H10T10458   7.703   7.236   6.200 -0.4636 -1.6667  0.2842
   7923SM  C11S10459   7.848   7.102   6.130 -0.5312  0.2848 -0.5697
   7923SM  H11S10460   7.777   7.017   6.134  1.7371 -1.6843 -0.0778
   7923SM  H11T10461   7.948   7.062   6.156 -0.5206  0.3605 -0.4943
   7923SM  C12S10462   7.841   7.173   5.995 -0.0666 -0.4756 -0.3014
   7923SM  H12S10463   7.736   7.189   5.960 -0.8881 -2.9318  0.8590
   7923SM  H12T10464   7.884   7.100   5.923  0.9702  0.6075 -0.8170
   7923SM  C13S10465   7.928   7.299   5.985 -0.1625  0.2659 -0.3037
   7923SM  H13S10466   8.013   7.278   6.054 -0.6252 -0.2394  0.1133
   7923SM  H13T10467   7.868   7.384   6.024 -0.8881 -0.5193  0.3253
   7923SM  C14S10468   7.968   7.321   5.837 -0.3504  0.7615 -0.3360
   7923SM  H14S10469   7.875   7.304   5.779 -1.8102  1.3755  1.7053
   7923SM  H14T10470   8.041   7.241   5.813 -0.0159  0.4730  1.4906
   7923SM  C15S10471   8.038   7.454   5.809 -0.2850 -0.5197  0.8563
   7923SM  H15S10472   8.092   7.484   5.901  0.1457 -1.6111  0.9705
   7923SM  H15T10473   7.960   7.530   5.787 -1.4775 -1.9289  0.0599
   7923SM  C16S10474   8.143   7.450   5.688 -0.0548  0.1654 -0.4814
   7923SM  H16S10475   8.219   7.376   5.723 -1.2448 -1.1939 -0.6672
   7923SM  H16T10476   8.199   7.545   5.679 -1.0107  0.9994  1.8252
   7923SM  C17S10477   8.085   7.409   5.553 -0.0811 -0.0414  0.4011
   7923SM  H17S10478   8.004   7.476   5.517  1.2396  0.8705 -1.0115
   7923SM  H17T10479   8.054   7.303   5.563  0.2465 -0.1576  0.2076
   7923SM  C18S10480   8.201   7.414   5.445 -0.2795  0.3611  0.8739
   7923SM  H18S10481   8.161   7.377   5.348  1.2716 -1.5317  0.9104
   7923SM  H18T10482   8.267   7.331   5.476 -2.1086 -1.3945  0.2247
   7923SM  H18U10483   8.249   7.510   5.414  0.3723 -0.5103 -0.9556
   7923SM   C1F10484   7.362   6.755   6.909  0.3854 -0.4208  0.3487
   7923SM    OF10485   7.284   6.820   6.978  0.7107 -0.1004  0.0837
   7923SM   C2F10486   7.320   6.630   6.838  0.0043 -0.2850  1.1908
   7923SM   H2F10487   7.284   6.559   6.915 -0.8528  0.7863  1.7971
   7923SM   H2G10488   7.402   6.590   6.774 -1.9751 -3.7827  0.5618
   7923SM   C3F10489   7.200   6.653   6.743 -0.6092  0.2219 -0.3549
   7923SM   H3F10490   7.112   6.680   6.805  0.9235  1.0066  1.5931
   7923SM   H3G10491   7.174   6.557   6.694  0.7134 -0.2803 -0.1064
   7923SM   C4F10492   7.229   6.762   6.635  0.9636  0.2856 -0.2481
   7923SM   H4F10493   7.327   6.742   6.586  0.3358 -2.4391 -0.5305
   7923SM   H4G10494   7.236   6.857   6.693  1.1383  0.2542 -0.2187
   7923SM   C5F10495   7.129   6.759   6.527  0.4022 -1.4275  0.3682
   7923SM   H5F10496   7.146   6.850   6.467  2.4822 -0.7816  1.8169
   7923SM   H5G10497   7.026   6.769   6.567  0.9439  0.0123  1.5068
   7923SM   C6F10498   7.152   6.647   6.425 -0.5547  0.2156 -0.6839
   7923SM   H6F10499   7.147   6.551   6.482  3.7367  0.6659  0.7917
   7923SM   H6G10500   7.247   6.633   6.369 -2.0157 -2.3214 -2.8033
   7923SM   C7F10501   7.052   6.659   6.302 -0.1268  0.7486 -0.5908
   7923SM   H7F10502   7.041   6.757   6.252  0.1819  0.4927 -1.1688
   7923SM   H7G10503   6.961   6.622   6.355  1.2717 -0.5498  1.0417
   7923SM   C8F10504   7.074   6.552   6.192 -0.4177 -0.4169  0.2333
   7923SM   H8F10505   7.119   6.460   6.234  0.2515 -0.0861  0.2479
   7923SM   H8G10506   7.153   6.607   6.137 -0.8425  0.9937  0.9987
   7923SM   C9F10507   6.960   6.524   6.099  0.8065  0.6374  0.1462
   7923SM   H9F10508   6.927   6.622   6.056  1.7342  0.5465 -0.8076
   7923SM   H9G10509   6.882   6.481   6.166  1.1696 -1.0362 -0.4715
   7923SM  C10F10510   6.988   6.429   5.980  0.0715 -0.2616 -0.6907
   7923SM  H10F10511   7.026   6.335   6.025 -0.6277 -0.3394 -0.2463
   7923SM  H10G10512   7.062   6.488   5.922 -0.7420  1.7979  0.2617
   7923SM  C11F10513   6.852   6.399   5.921  0.4931  0.4770 -0.0375
   7923SM  H11F10514   6.784   6.487   5.920  0.0512  0.1713  1.0069
   7923SM  H11G10515   6.801   6.324   5.986  1.8279  0.0880  0.5936
   7923SM  C12F10516   6.871   6.362   5.775 -0.3347 -0.7372  0.0498
   7923SM  H12F10517   6.890   6.455   5.717  0.3644 -2.6447 -3.0368
   7923SM  H12G10518   6.773   6.318   5.746  0.1982 -1.8236 -0.1323
   7923SM  C13F10519   6.987   6.255   5.750 -0.0558  0.0844 -0.3487
   7923SM  H13F10520   6.989   6.177   5.829  0.6768  0.3561 -0.1001
   7923SM  H13G10521   7.085   6.306   5.755  0.0531 -0.0334 -1.1694
   7923SM  C14F10522   6.969   6.176   5.617 -0.3768 -0.5554  0.7218
   7923SM  H14F10523   6.945   6.249   5.536  0.5947 -0.9918  0.0246
   7923SM  H14G10524   6.870   6.126   5.626 -0.3715 -0.8030 -0.4894
   7923SM  C15F10525   7.082   6.083   5.568  0.2027  0.7881 -0.5649
   7923SM  H15F10526   7.105   6.004   5.642 -0.9721 -1.3775 -2.4158
   7923SM  H15G10527   7.177   6.137   5.546  0.8893 -0.3002 -0.3239
   7923SM  C16F10528   7.046   5.992   5.454 -0.0871  0.1852  1.0862
   7923SM  H16F10529   7.135   5.932   5.426 -0.6564 -1.3011  2.3453
   7923SM  H16G10530   7.018   6.052   5.365 -0.5768 -0.1159  1.0330
   7923SM  C17F10531   6.929   5.898   5.491 -0.1908 -0.4990  0.0660
   7923SM  H17F10532   6.846   5.963   5.526  1.1338  2.6247 -2.1412
   7923SM  H17G10533   6.965   5.830   5.571 -0.2691 -0.0495  0.4839
   7923SM  C18F10534   6.873   5.834   5.361  0.0780  0.1658  0.1891
   7923SM  H18F10535   6.931   5.742   5.336  0.1034  0.2212  0.0450
   7923SM  H18G10536   6.894   5.907   5.281 -1.2810  0.3408 -0.0275
   7923SM  C19F10537   6.724   5.804   5.379  0.0731  0.4135 -0.5198
   7923SM  H19F10538   6.671   5.901   5.389  0.7124  0.7065  0.1637
   7923SM  H19G10539   6.703   5.741   5.468 -1.6534  0.6925 -0.6962
   7923SM  C20F10540   6.673   5.725   5.258  0.9419 -0.9183 -0.3133
   7923SM  H20F10541   6.591   5.657   5.288  0.5967 -0.1339  0.5772
   7923SM  H20G10542   6.757   5.666   5.216  0.8080 -1.0810 -0.3528
   7923SM  C21F10543   6.607   5.810   5.147  0.2492 -0.1155 -0.0365
   7923SM  H21F10544   6.677   5.890   5.115 -0.7866  1.8559  2.2603
   7923SM  H21G10545   6.524   5.858   5.204  0.0338 -0.8722  0.2960
   7923SM  C22F10546   6.550   5.725   5.032 -0.6107 -0.6635 -0.1629
   7923SM  H22F10547   6.474   5.657   5.076 -0.0011 -0.9252  0.4981
   7923SM  H22G10548   6.627   5.652   4.998  0.4425  0.5971 -0.5893
   7923SM  C23F10549   6.486   5.806   4.919  0.2550 -0.6315  0.2426
   7923SM  H23F10550   6.557   5.876   4.870  0.7877 -1.6753 -0.5164
   7923SM  H23G10551   6.400   5.871   4.947 -1.7331 -1.5418 -3.0794
   7923SM  H23H10552   6.453   5.742   4.834 -0.6482  2.4858 -1.9678
   8023SM     N10553   1.343   7.572   7.062 -1.2061 -0.4179  0.4043
   8023SM   C1510554   1.467   7.522   7.121  0.4754 -0.1896  0.2842
   8023SM  H15A10555   1.460   7.497   7.226 -1.9564 -1.6249 -0.1380
   8023SM  H15B10556   1.536   7.604   7.138  1.2280 -0.1410 -2.4821
   8023SM  H15C10557   1.506   7.440   7.062  0.2732  0.2932 -0.5399
   8023SM   C1410558   1.369   7.613   6.918 -0.5972  0.2343  0.2095
   8023SM  H14A10559   1.401   7.527   6.862 -1.9348  0.9703 -1.8138
   8023SM  H14B10560   1.450   7.683   6.908 -0.2292 -0.2494 -0.2248
   8023SM  H14C10561   1.280   7.656   6.874 -0.8952 -0.9371 -0.3556
   8023SM   C1310562   1.251   7.458   7.052  0.1399  0.4985  0.2933
   8023SM  H13A10563   1.291   7.383   6.985 -0.0072 -0.2355  1.0086
   8023SM  H13B10564   1.153   7.485   7.015  0.9209  2.5342 -0.4236
   8023SM  H13C10565   1.237   7.403   7.144  0.7083 -1.6582 -0.8537
   8023SM   C1210566   1.286   7.689   7.147 -0.2720 -0.1969  0.6115
   8023SM  H12A10567   1.352   7.773   7.136  0.5967 -0.8683  0.5427
   8023SM  H12B10568   1.291   7.661   7.251  0.6527  0.8242  0.8486
   8023SM   C1110569   1.143   7.739   7.113  0.7513  0.1523  0.2710
   8023SM  H11A10570   1.115   7.817   7.187 -3.0671 -1.0926  0.3573
   8023SM  H11B10571   1.058   7.668   7.124 -1.1093  1.9067 -1.6561
   8023SM     P10572   1.151   7.945   6.951 -0.1821  0.2796 -0.1347
   8023SM   O1310573   1.043   8.008   7.022 -0.0380 -0.4668  0.3928
   8023SM   O1410574   1.284   7.987   6.995  0.7614  0.0668 -0.0188
   8023SM   O1110575   1.134   7.978   6.800  0.2874  0.1358  0.0031
   8023SM   O1210576   1.144   7.791   6.980 -0.1470 -0.2523 -0.5012
   8023SM   C1S10577   1.027   7.910   6.729 -0.3470 -0.0051  0.4144
   8023SM   H1S10578   0.947   7.987   6.725 -0.2689  0.0646  0.1515
   8023SM   H1T10579   0.994   7.814   6.773  0.1228 -1.8531 -2.9418
   8023SM    NF10580   0.951   7.868   6.489  0.4466  0.2228 -0.0415
   8023SM   HNF10581   0.935   7.775   6.455  0.3690  0.9604 -2.1304
   8023SM   C2S10582   1.072   7.881   6.579  0.0516  0.7197 -0.2108
   8023SM   H2S10583   1.137   7.967   6.552 -0.7030  1.1103 -0.8147
   8023SM   C3S10584   1.162   7.755   6.577 -0.3136  0.9694 -0.1868
   8023SM   H3S10585   1.119   7.680   6.646  0.1012  0.0249 -0.9362
   8023SM    O310586   1.292   7.789   6.634 -0.4207 -0.8591  0.5142
   8023SM   HO310587   1.270   7.880   6.655 -0.5120 -0.6680 -0.3762
   8023SM   C4S10588   1.185   7.706   6.441  0.0705  0.4571  0.2670
   8023SM   H4S10589   1.276   7.748   6.396 -0.7587 -0.1975 -2.1966
   8023SM   C5S10590   1.120   7.611   6.374 -0.5006  0.0892 -0.2498
   8023SM   H5S10591   1.028   7.567   6.416  0.6293 -1.8759  0.2925
   8023SM   C6S10592   1.166   7.567   6.234 -1.7138  0.4032  0.4392
   8023SM   H6S10593   1.152   7.458   6.223 -0.6183  0.2584  0.4129
   8023SM   H6T10594   1.273   7.582   6.207 -1.5955  0.0553  0.7049
   8023SM   C7S10595   1.084   7.618   6.110  0.9424  0.5821 -0.2489
   8023SM   H7S10596   0.977   7.592   6.125  1.8320 -4.9587 -1.4160
   8023SM   H7T10597   1.124   7.564   6.022  1.0690 -0.9612  0.7080
   8023SM   C8S10598   1.095   7.769   6.086 -0.6276  0.5783  0.4270
   8023SM   H8S10599   1.204   7.791   6.082 -0.8385  1.5239 -3.2788
   8023SM   H8T10600   1.064   7.827   6.176  0.3702  0.5297  0.8154
   8023SM   C9S10601   1.034   7.817   5.956 -0.5795 -0.8201  0.5634
   8023SM   H9S10602   1.043   7.927   5.964 -2.3523 -0.7199  1.8442
   8023SM   H9T10603   0.927   7.787   5.962 -1.1946  1.3542  1.2081
   8023SM  C10S10604   1.102   7.769   5.827  1.0560  0.2908 -0.3193
   8023SM  H10S10605   1.081   7.660   5.825  1.9743  0.1199 -0.7098
   8023SM  H10T10606   1.213   7.769   5.831  1.0777 -0.4173 -0.7799
   8023SM  C11S10607   1.049   7.838   5.703  0.1333 -0.1797  0.6484
   8023SM  H11S10608   1.020   7.944   5.718 -2.8850 -1.0430  1.5530
   8023SM  H11T10609   0.962   7.772   5.684 -0.7983  1.0272  0.6267
   8023SM  C12S10610   1.144   7.833   5.575 -0.1723 -0.1527  0.4621
   8023SM  H12S10611   1.238   7.891   5.591  0.6484 -0.3282 -2.9341
   8023SM  H12T10612   1.096   7.867   5.481  0.8007 -0.3398 -0.1169
   8023SM  C13S10613   1.195   7.692   5.542 -0.2015  0.6507  0.1160
   8023SM  H13S10614   1.109   7.620   5.542 -0.1488  0.5808 -0.5902
   8023SM  H13T10615   1.262   7.668   5.627 -0.7381  0.2216  0.4248
   8023SM  C14S10616   1.259   7.674   5.403  0.2867  0.5473 -0.0953
   8023SM  H14S10617   1.366   7.703   5.398  0.4284 -0.0824 -1.0717
   8023SM  H14T10618   1.202   7.725   5.322 -2.7671 -1.6202  0.4983
   8023SM  C15S10619   1.268   7.525   5.361 -0.0001  0.4881 -0.0497
   8023SM  H15S10620   1.166   7.490   5.336 -0.1382 -0.3375  1.5513
   8023SM  H15T10621   1.295   7.467   5.452 -1.8819 -1.8676 -0.8906
   8023SM  C16S10622   1.362   7.498   5.235 -0.5965 -0.0519 -0.0128
   8023SM  H16S10623   1.372   7.388   5.235 -0.4717 -0.0755  1.6053
   8023SM  H16T10624   1.454   7.558   5.255 -0.0578 -0.7861 -0.2316
   8023SM  C17S10625   1.298   7.554   5.106 -0.3437  0.2795 -0.1121
   8023SM  H17S10626   1.284   7.664   5.101 -0.2292  0.2369 -2.5396
   8023SM  H17T10627   1.197   7.510   5.097 -0.3295 -0.1789  1.5889
   8023SM  C18S10628   1.370   7.513   4.977 -0.1412 -0.6740 -0.3137
   8023SM  H18S10629   1.327   7.548   4.881  2.0441  1.6676 -0.5720
   8023SM  H18T10630   1.378   7.403   4.980  3.8283 -0.5025  1.2416
   8023SM  H18U10631   1.474   7.552   4.982  0.3265 -2.0011  0.5973
   8023SM   C1F10632   0.866   7.966   6.455  0.1300 -0.7730 -0.3629
   8023SM    OF10633   0.855   8.071   6.519  0.7450  0.2799  0.5310
   8023SM   C2F10634   0.784   7.945   6.326  0.2877  0.5134  0.7638
   8023SM   H2F10635   0.822   8.021   6.254 -2.9461  1.1397 -0.4999
   8023SM   H2G10636   0.677   7.974   6.340 -0.3534 -0.6126 -1.3787
   8023SM   C3F10637   0.774   7.805   6.259 -0.3656  0.2367  0.1597
   8023SM   H3F10638   0.770   7.730   6.341  0.1924 -0.2196 -0.2263
   8023SM   H3G10639   0.862   7.791   6.192 -0.3242 -1.6409  0.5622
   8023SM   C4F10640   0.649   7.768   6.165  0.6519  0.7592 -0.3134
   8023SM   H4F10641   0.570   7.774   6.244  0.8675 -3.5841  0.5066
   8023SM   H4G10642   0.657   7.660   6.140  0.3301  0.3608  1.1948
   8023SM   C5F10643   0.617   7.857   6.046  1.0698  0.0436 -0.1765
   8023SM   H5F10644   0.700   7.850   5.974  0.0011  0.1873 -1.4577
   8023SM   H5G10645   0.607   7.957   6.093 -0.3630  0.4215 -1.1983
   8023SM   C6F10646   0.491   7.814   5.964 -0.1129  0.4887 -0.1688
   8023SM   H6F10647   0.400   7.845   6.020 -0.8670 -2.2543  0.2636
   8023SM   H6G10648   0.485   7.704   5.970  3.3557  0.1140 -1.1254
   8023SM   C7F10649   0.492   7.866   5.823 -0.2407 -0.2334  0.1198
   8023SM   H7F10650   0.559   7.795   5.770  0.4022  0.5408 -0.1218
   8023SM   H7G10651   0.534   7.969   5.822 -0.8358  0.0665  1.9309
   8023SM   C8F10652   0.361   7.862   5.740  0.3610 -0.3132  0.3485
   8023SM   H8F10653   0.291   7.929   5.796  1.5748  0.4970  0.9338
   8023SM   H8G10654   0.305   7.766   5.747 -3.3399  1.7289  1.4867
   8023SM   C9F10655   0.378   7.884   5.595 -0.4847  0.3345  0.5992
   8023SM   H9F10656   0.461   7.816   5.567 -0.0292  0.7447  0.9617
   8023SM   H9G10657   0.415   7.986   5.571 -0.2453 -0.4523 -3.0300
   8023SM  C10F10658   0.250   7.853   5.507 -0.2539 -0.0531 -0.4082
   8023SM  H10F10659   0.160   7.901   5.550  0.6807  0.3319  1.2108
   8023SM  H10G10660   0.237   7.742   5.515  1.3971 -0.3304 -1.1567
   8023SM  C11F10661   0.270   7.890   5.361  0.4049 -0.5822  0.2510
   8023SM  H11F10662   0.300   7.997   5.355  0.8509 -0.6344  1.3105
   8023SM  H11G10663   0.176   7.889   5.301 -1.0264  3.4457  2.0390
   8023SM  C12F10664   0.368   7.806   5.274 -0.4096  0.1463  0.5499
   8023SM  H12F10665   0.461   7.779   5.328 -1.2431 -2.0198  1.0093
   8023SM  H12G10666   0.389   7.851   5.175 -1.2487  0.2828  0.4293
   8023SM  C13F10667   0.319   7.670   5.229  0.1210 -0.0002 -0.4776
   8023SM  H13F10668   0.215   7.682   5.191 -0.8734 -0.3580  1.9257
   8023SM  H13G10669   0.315   7.594   5.310  3.2337 -2.6618 -2.5719
   8023SM  C14F10670   0.409   7.610   5.121  0.1739 -0.2752 -0.5908
   8023SM  H14F10671   0.505   7.578   5.169 -1.3039 -1.5266  1.7703
   8023SM  H14G10672   0.439   7.685   5.046 -0.7800  0.7935  0.0704
   8023SM  C15F10673   0.338   7.488   5.059  0.0985 -0.3491  0.0801
   8023SM  H15F10674   0.231   7.499   5.086  0.1661  0.6671  0.0037
   8023SM  H15G10675   0.380   7.393   5.096  0.5645 -0.1680  0.0221
   8023SM  C16F10676   0.344   7.498   4.901 -0.4366 -0.8907 -0.1312
   8023SM  H16F10677   0.452   7.490   4.875 -0.4108 -0.0466 -0.3150
   8023SM  H16G10678   0.320   7.603   4.875 -0.8073 -0.7405  0.8080
   8023SM  C17F10679   0.228   7.429   4.829 -0.2610  0.1686  0.0737
   8023SM  H17F10680   0.134   7.450   4.885  0.9109  1.4282  1.6243
   8023SM  H17G10681   0.233   7.318   4.831 -0.7581  0.0877 -1.3376
   8023SM  C18F10682   0.230   7.471   4.679  0.0453 -0.7641  0.5577
   8023SM  H18F10683   0.222   7.582   4.678  2.8436 -0.4853 -1.4868
   8023SM  H18G10684   0.143   7.424   4.629 -0.4155  0.4979  0.1331
   8023SM  C19F10685   0.355   7.416   4.606 -0.3077 -0.5940 -0.7089
   8023SM  H19F10686   0.378   7.309   4.625  1.2806 -0.1664 -0.0144
   8023SM  H19G10687   0.442   7.482   4.629  0.4554 -0.3482 -3.8687
   8023SM  C20F10688   0.345   7.417   4.455  0.0612  0.2525 -0.4652
   8023SM  H20F10689   0.334   7.525   4.430 -0.1121  0.7890  1.7247
   8023SM  H20G10690   0.249   7.377   4.416  0.1804 -0.6096  0.0998
   8023SM  C21F10691   0.471   7.364   4.376  0.5926 -0.2362  0.1527
   8023SM  H21F10692   0.473   7.255   4.401 -4.3649 -0.4788  0.4361
   8023SM  H21G10693   0.559   7.413   4.423 -0.1466  0.9535  0.3297
   8023SM  C22F10694   0.471   7.402   4.227  0.3497  0.0208 -0.2258
   8023SM  H22F10695   0.452   7.510   4.215  0.1615  0.1931  1.4439
   8023SM  H22G10696   0.378   7.361   4.181 -1.1202  1.4264  1.3915
   8023SM  C23F10697   0.593   7.360   4.148  0.1883  0.6689 -0.4133
   8023SM  H23F10698   0.595   7.397   4.043 -0.3958  5.5806  1.0604
   8023SM  H23G10699   0.593   7.250   4.139  0.9512  0.6319 -0.0354
   8023SM  H23H10700   0.690   7.401   4.184  0.2538  0.7738 -0.6991
   8123SM     N10701   5.216   4.432   2.838 -0.8579 -0.3329  0.0324
   8123SM   C1510702   5.211   4.349   2.715  0.4646 -0.1094  0.3442
   8123SM  H15A10703   5.117   4.317   2.674  1.6698  0.0127 -2.7468
   8123SM  H15B10704   5.258   4.253   2.728  3.2831  1.2357  0.9534
   8123SM  H15C10705   5.266   4.387   2.630  0.3219 -0.6000  0.0295
   8123SM   C1410706   5.193   4.580   2.820  0.3507  0.4416 -0.9283
   8123SM  H14A10707   5.262   4.628   2.753  3.1070  0.4213  1.6702
   8123SM  H14B10708   5.204   4.629   2.916  1.5010  0.1634 -0.9072
   8123SM  H14C10709   5.092   4.595   2.785  0.1377 -1.4800 -1.2449
   8123SM   C1310710   5.109   4.376   2.928 -0.1808  0.4674  0.5364
   8123SM  H13A10711   5.124   4.416   3.027 -0.2423  0.1517  0.6717
   8123SM  H13B10712   5.112   4.268   2.929 -1.6484  0.3134 -2.1156
   8123SM  H13C10713   5.008   4.399   2.897 -0.7771 -2.2742  0.2508
   8123SM   C1210714   5.350   4.410   2.903  0.9844  0.4519  0.0018
   8123SM  H12A10715   5.347   4.464   2.997  1.8656  0.3117  0.1195
   8123SM  H12B10716   5.424   4.459   2.841  1.0412  0.3768  0.0102
   8123SM   C1110717   5.404   4.273   2.935  0.4107  0.5756  0.5519
   8123SM  H11A10718   5.339   4.225   3.011  1.1217  0.6277  1.2043
   8123SM  H11B10719   5.499   4.289   2.990  0.2621 -2.1117  1.7617
   8123SM     P10720   5.500   4.056   2.816 -0.0011  0.2862 -0.0182
   8123SM   O1310721   5.466   3.998   2.682  0.0461 -0.4857  0.0668
   8123SM   O1410722   5.641   4.073   2.845  0.7403 -0.2031 -0.2183
   8123SM   O1110723   5.436   3.974   2.938 -0.2637 -0.2363  0.1210
   8123SM   O1210724   5.419   4.187   2.823  0.0954  0.0315  0.0330
   8123SM   C1S10725   5.301   3.940   2.960 -0.0148 -0.1503 -0.5399
   8123SM   H1S10726   5.254   3.919   2.861 -0.4873  0.9559 -0.5653
   8123SM   H1T10727   5.254   4.032   3.001  1.4789  1.4094 -2.2038
   8123SM    NF10728   5.187   3.737   3.054  0.6206 -0.5464  0.3281
   8123SM   HNF10729   5.141   3.728   3.143  1.2368  0.2390  0.7333
   8123SM   C2S10730   5.303   3.827   3.069  0.9830  0.2990 -0.1600
   8123SM   H2S10731   5.394   3.765   3.051  2.7703  1.8983  2.5613
   8123SM   C3S10732   5.326   3.877   3.213 -0.0252 -0.1996  0.2800
   8123SM   H3S10733   5.236   3.937   3.241 -0.6289 -0.9146 -0.0882
   8123SM    O310734   5.440   3.961   3.241  0.2127  0.1121  0.6226
   8123SM   HO310735   5.486   3.952   3.157 -0.8092  0.8223 -0.0348
   8123SM   C4S10736   5.359   3.758   3.306 -0.6415  0.3815  0.5982
   8123SM   H4S10737   5.445   3.698   3.271 -0.9658  0.6602 -0.7457
   8123SM   C5S10738   5.292   3.730   3.418  0.2594  0.5845 -0.3070
   8123SM   H5S10739   5.201   3.788   3.435  0.9733  1.8883 -0.8230
   8123SM   C6S10740   5.329   3.619   3.514 -0.6902  0.0982 -0.3602
   8123SM   H6S10741   5.247   3.544   3.522 -1.0228  0.1059 -2.9379
   8123SM   H6T10742   5.343   3.663   3.615 -2.8375  0.6584 -0.2542
   8123SM   C7S10743   5.454   3.527   3.482  0.2548 -0.2327 -0.0113
   8123SM   H7S10744   5.549   3.584   3.485  0.0001  0.1815  1.7688
   8123SM   H7T10745   5.436   3.500   3.376  0.6616 -0.1601 -0.0997
   8123SM   C8S10746   5.464   3.391   3.547 -0.2468 -0.7505 -0.2836
   8123SM   H8S10747   5.563   3.348   3.522  0.2550 -0.1490  0.6437
   8123SM   H8T10748   5.388   3.325   3.500 -0.4272 -0.3774 -0.5252
   8123SM   C9S10749   5.458   3.394   3.703  0.6213 -0.4515 -0.3323
   8123SM   H9S10750   5.355   3.426   3.733  0.2992 -0.9742 -0.8674
   8123SM   H9T10751   5.527   3.468   3.749 -2.0252  1.5758  0.6760
   8123SM  C10S10752   5.491   3.255   3.769 -0.0328 -0.3883  0.3675
   8123SM  H10S10753   5.599   3.237   3.754 -0.4997 -1.1084 -2.8292
   8123SM  H10T10754   5.433   3.171   3.724  1.5771  0.0007 -2.7357
   8123SM  C11S10755   5.474   3.273   3.918 -0.0385  0.2970 -0.4114
   8123SM  H11S10756   5.377   3.323   3.938  0.2947  1.1453 -0.8596
   8123SM  H11T10757   5.552   3.344   3.953 -0.5868  0.6771  0.0497
   8123SM  C12S10758   5.478   3.138   3.984 -0.0974  0.8882 -0.0166
   8123SM  H12S10759   5.565   3.082   3.944  0.0726  0.7904  0.4914
   8123SM  H12T10760   5.382   3.085   3.964 -0.2477  0.1296  2.3571
   8123SM  C13S10761   5.490   3.138   4.140 -0.7580  0.2500  0.7252
   8123SM  H13S10762   5.398   3.177   4.189 -0.7708  1.7759 -0.4100
   8123SM  H13T10763   5.575   3.202   4.170 -0.1130 -0.3959  0.2987
   8123SM  C14S10764   5.510   2.998   4.198 -0.0831  0.0875 -0.2883
   8123SM  H14S10765   5.553   2.929   4.122 -0.0387  0.0101 -0.1931
   8123SM  H14T10766   5.411   2.951   4.216  0.0216  0.2797  0.8576
   8123SM  C15S10767   5.594   3.006   4.326  0.6279 -0.3454  0.5564
   8123SM  H15S10768   5.554   3.092   4.383  1.9604  0.0668  0.9037
   8123SM  H15T10769   5.701   3.022   4.303  0.3450 -1.2345 -1.6366
   8123SM  C16S10770   5.577   2.878   4.402  0.3576 -0.1181 -0.4641
   8123SM  H16S10771   5.630   2.800   4.344  0.0286 -0.4381 -0.3355
   8123SM  H16T10772   5.470   2.857   4.422 -0.2071  2.4735 -0.3461
   8123SM  C17S10773   5.643   2.885   4.542  0.5418  0.3730  0.5421
   8123SM  H17S10774   5.606   2.972   4.599 -2.0583 -0.5471  0.4098
   8123SM  H17T10775   5.751   2.908   4.535  0.3025  1.1029 -1.6721
   8123SM  C18S10776   5.630   2.749   4.612 -0.3871 -0.1217 -0.3346
   8123SM  H18S10777   5.669   2.753   4.716  2.3880  1.0422 -1.3287
   8123SM  H18T10778   5.683   2.666   4.561  0.4922  0.1623  0.1019
   8123SM  H18U10779   5.521   2.730   4.609 -0.2019 -1.2119 -2.6170
   8123SM   C1F10780   5.160   3.664   2.949  0.1229 -0.4244 -0.0236
   8123SM    OF10781   5.225   3.675   2.844  0.5724  0.4824 -0.2239
   8123SM   C2F10782   5.044   3.573   2.959 -0.1818 -0.1161  0.6288
   8123SM   H2F10783   4.982   3.596   2.871  1.0948  0.1441 -0.2354
   8123SM   H2G10784   4.981   3.589   3.049  0.3416  2.0158  0.6610
   8123SM   C3F10785   5.101   3.428   2.946 -0.4905 -0.2501  0.0568
   8123SM   H3F10786   5.175   3.428   2.863 -0.2595 -0.0876  0.2629
   8123SM   H3G10787   5.022   3.359   2.909  1.3994 -1.6477 -1.5772
   8123SM   C4F10788   5.163   3.382   3.082 -0.3949 -0.3022 -1.1727
   8123SM   H4F10789   5.225   3.467   3.119 -2.0804  1.1453 -1.5115
   8123SM   H4G10790   5.220   3.288   3.067 -1.6493 -0.8575 -2.6914
   8123SM   C5F10791   5.066   3.344   3.196 -0.0351  0.3685 -0.0539
   8123SM   H5F10792   5.012   3.251   3.168  1.0953 -0.0090 -1.1006
   8123SM   H5G10793   4.992   3.421   3.225 -2.6765 -1.8824 -0.4756
   8123SM   C6F10794   5.152   3.307   3.316  0.4857 -0.2619  0.7350
   8123SM   H6F10795   5.193   3.404   3.354  0.8086  0.3892 -1.1987
   8123SM   H6G10796   5.243   3.247   3.292 -0.2485 -0.4086 -2.0105
   8123SM   C7F10797   5.074   3.235   3.428 -0.5505  0.4280  0.4993
   8123SM   H7F10798   5.075   3.129   3.395 -2.4448  1.0442 -1.8260
   8123SM   H7G10799   4.970   3.273   3.416  0.5227  3.4012 -0.3683
   8123SM   C8F10800   5.121   3.260   3.580  0.3003 -0.1345  0.5196
   8123SM   H8F10801   5.125   3.370   3.594 -2.1972 -0.2374  2.7777
   8123SM   H8G10802   5.220   3.208   3.583  0.6917  0.5039 -0.7089
   8123SM   C9F10803   5.031   3.203   3.693 -0.6227 -0.2611 -0.2401
   8123SM   H9F10804   4.989   3.101   3.678 -1.3729 -0.0436  0.3011
   8123SM   H9G10805   4.939   3.265   3.691 -0.7589 -0.4694 -2.1255
   8123SM  C10F10806   5.094   3.204   3.835 -0.1136 -0.5161  0.5520
   8123SM  H10F10807   5.147   3.301   3.842 -0.2431 -0.4065  0.0478
   8123SM  H10G10808   5.171   3.126   3.818  0.9644  0.8516 -1.2096
   8123SM  C11F10809   5.014   3.181   3.955 -0.0911 -0.0733 -0.5106
   8123SM  H11F10810   4.968   3.080   3.958  2.0926 -1.0912  1.6861
   8123SM  H11G10811   4.931   3.254   3.969 -1.3692 -1.4770 -0.5075
   8123SM  C12F10812   5.108   3.182   4.081 -0.0310 -0.3112  0.7586
   8123SM  H12F10813   5.136   3.288   4.099 -0.4951  0.3723 -2.0979
   8123SM  H12G10814   5.198   3.118   4.071 -0.5631 -0.7242 -2.7554
   8123SM  C13F10815   5.032   3.123   4.202 -0.0374 -0.1146  0.0374
   8123SM  H13F10816   5.008   3.016   4.185  3.8557 -1.5088  2.0675
   8123SM  H13G10817   4.937   3.172   4.232  0.5873  0.8690  0.4812
   8123SM  C14F10818   5.117   3.118   4.333 -0.0087 -0.1155  0.2852
   8123SM  H14F10819   5.132   3.224   4.364 -0.9862 -0.1915  1.0776
   8123SM  H14G10820   5.215   3.074   4.305 -0.9173 -1.5840 -0.7064
   8123SM  C15F10821   5.055   3.023   4.431  0.3577  0.5049  0.2387
   8123SM  H15F10822   5.032   2.926   4.382 -1.2798  0.2240  1.4670
   8123SM  H15G10823   4.959   3.053   4.478 -0.8365 -0.7733 -1.2613
   8123SM  C16F10824   5.163   3.003   4.548 -0.3137 -0.8472  0.3376
   8123SM  H16F10825   5.261   2.970   4.507  0.6021 -0.0477  1.7613
   8123SM  H16G10826   5.125   2.928   4.621  1.1757  0.0192  2.1046
   8123SM  C17F10827   5.175   3.137   4.623 -0.1385 -0.1170  0.2041
   8123SM  H17F10828   5.075   3.163   4.664 -0.8528 -2.0469 -0.2433
   8123SM  H17G10829   5.219   3.219   4.561 -0.2725 -0.0681  0.1731
   8123SM  C18F10830   5.271   3.122   4.743  0.2817  0.1284 -0.4197
   8123SM  H18F10831   5.372   3.093   4.707 -0.7407 -1.2205 -2.4452
   8123SM  H18G10832   5.238   3.039   4.811  0.3750  0.7099  0.3500
   8123SM  C19F10833   5.271   3.257   4.817 -0.3598  0.0486 -0.3108
   8123SM  H19F10834   5.180   3.267   4.881  0.4261  1.9991  0.5847
   8123SM  H19G10835   5.269   3.336   4.739  0.6442  0.0826 -0.3152
   8123SM  C20F10836   5.396   3.275   4.905  0.3866  0.1750  1.1830
   8123SM  H20F10837   5.488   3.250   4.847  0.4943 -0.6293  1.6809
   8123SM  H20G10838   5.397   3.198   4.986  0.6025 -0.8648  0.2137
   8123SM  C21F10839   5.413   3.423   4.954  0.2611  0.4849 -0.2783
   8123SM  H21F10840   5.323   3.462   5.005 -0.5011 -0.5610 -0.7813
   8123SM  H21G10841   5.411   3.487   4.863  0.9308  0.6177 -0.2000
   8123SM  C22F10842   5.540   3.457   5.034  0.7897 -1.1087  0.4005
   8123SM  H22F10843   5.539   3.567   5.042 -0.4838 -1.1406  0.8754
   8123SM  H22G10844   5.628   3.442   4.968 -1.1399  0.4207 -2.7625
   8123SM  C23F10845   5.544   3.407   5.177  0.3594 -0.4769  0.0833
   8123SM  H23F10846   5.543   3.296   5.171 -1.1730 -0.5426  1.1044
   8123SM  H23G10847   5.453   3.427   5.236  1.8422  0.2586  2.2369
   8123SM  H23H10848   5.622   3.461   5.235 -1.1490  2.2894 -0.3083
   8223SM     N10849   4.642   4.124   2.501  0.5077  0.6141 -0.1147
   8223SM   C1510850   4.548   4.001   2.480 -0.0584 -0.7615 -0.0884
   8223SM  H15A10851   4.574   3.965   2.382  1.1304  1.4456 -0.6426
   8223SM  H15B10852   4.452   4.050   2.482  0.1195 -0.4175  0.1561
   8223SM  H15C10853   4.557   3.920   2.551 -0.8202 -0.3434  0.4985
   8223SM   C1410854   4.783   4.099   2.451  0.1301 -0.7509 -0.8947
   8223SM  H14A10855   4.834   4.029   2.516  0.5459 -0.8896 -1.3596
   8223SM  H14B10856   4.836   4.192   2.465  0.9964 -1.3983  0.3412
   8223SM  H14C10857   4.786   4.066   2.348 -1.6367 -1.1262 -0.8547
   8223SM   C1310858   4.594   4.246   2.423 -0.7265  0.4065 -0.3403
   8223SM  H13A10859   4.493   4.269   2.454 -0.7766 -0.0248 -0.1805
   8223SM  H13B10860   4.604   4.222   2.318 -0.5634 -0.1151 -0.2074
   8223SM  H13C10861   4.656   4.333   2.441 -0.0115 -0.1724  0.0134
   8223SM   C1210862   4.645   4.170   2.641  0.1989  1.1102  0.8800
   8223SM  H12A10863   4.545   4.190   2.676  0.7062  0.4346  2.8269
   8223SM  H12B10864   4.694   4.264   2.657  0.8963  0.7109  1.1099
   8223SM   C1110865   4.680   4.066   2.746  0.0429 -0.0312  0.1999
   8223SM  H11A10866   4.593   3.998   2.760  0.8636 -0.9543  0.9926
   8223SM  H11B10867   4.684   4.118   2.844 -2.7602 -2.2457  1.6437
   8223SM     P10868   4.948   4.036   2.746  0.4848 -0.3677  0.1187
   8223SM   O1310869   5.041   3.932   2.701  0.1473 -0.5562  0.1477
   8223SM   O1410870   4.979   4.164   2.683  0.0922 -0.2336  0.2769
   8223SM   O1110871   4.943   4.051   2.907  0.4557 -0.3822  0.0984
   8223SM   O1210872   4.796   3.994   2.713 -0.0956 -0.2375  0.5235
   8223SM   C1S10873   4.880   3.949   2.993 -0.1732  0.0294 -0.5837
   8223SM   H1S10874   4.952   3.865   2.989 -0.6071 -0.4768  1.1956
   8223SM   H1T10875   4.783   3.910   2.953 -1.0621  0.5309  0.9870
   8223SM    NF10876   4.803   3.875   3.212 -0.0910 -0.5018 -0.4078
   8223SM   HNF10877   4.704   3.869   3.214 -0.0362 -3.4187 -1.3434
   8223SM   C2S10878   4.859   3.989   3.140 -0.0607  0.3630  0.4158
   8223SM   H2S10879   4.961   4.012   3.178  1.0742 -2.3809 -0.7145
   8223SM   C3S10880   4.772   4.119   3.147  0.0264  0.2026 -0.7165
   8223SM   H3S10881   4.674   4.095   3.103  0.0727 -2.7832  0.5740
   8223SM    O310882   4.820   4.222   3.061 -0.6862  0.2302 -0.2689
   8223SM   HO310883   4.872   4.171   2.998  0.7539 -0.0389  1.0966
   8223SM   C4S10884   4.773   4.155   3.293 -0.1580 -0.0453  0.4727
   8223SM   H4S10885   4.865   4.213   3.311  1.8857 -2.9031 -0.0652
   8223SM   C5S10886   4.672   4.145   3.376  0.4734 -0.9896  0.5956
   8223SM   H5S10887   4.577   4.097   3.349  0.1687 -0.3541  0.5041
   8223SM   C6S10888   4.697   4.193   3.517 -0.5540 -0.5641  0.1970
   8223SM   H6S10889   4.613   4.256   3.553 -0.5064  1.0235 -2.2277
   8223SM   H6T10890   4.790   4.253   3.527 -1.5448  0.9122  0.9188
   8223SM   C7S10891   4.711   4.075   3.620  0.0193 -0.1832  0.2763
   8223SM   H7S10892   4.810   4.096   3.665  0.0595  1.2418 -0.4380
   8223SM   H7T10893   4.720   3.984   3.556  1.2187  0.2445 -0.1829
   8223SM   C8S10894   4.614   4.074   3.737 -0.4821  0.7474  1.2851
   8223SM   H8S10895   4.504   4.071   3.721 -0.5907 -0.7346  2.1038
   8223SM   H8T10896   4.622   4.169   3.792 -0.6734  1.5895 -0.0932
   8223SM   C9S10897   4.644   3.960   3.831  0.1455 -0.4140  0.1844
   8223SM   H9S10898   4.753   3.947   3.850 -0.1159 -0.7010  1.5906
   8223SM   H9T10899   4.604   3.865   3.789  0.7826 -0.8107  0.4640
   8223SM  C10S10900   4.569   3.982   3.967  0.6451  0.1345 -0.5115
   8223SM  H10S10901   4.468   4.022   3.944 -0.1314 -1.5345 -0.2148
   8223SM  H10T10902   4.627   4.064   4.015 -0.6876 -0.5233  2.5033
   8223SM  C11S10903   4.569   3.859   4.051  0.2179 -0.0035  0.0073
   8223SM  H11S10904   4.677   3.840   4.071  0.3788 -0.3910 -1.1652
   8223SM  H11T10905   4.523   3.777   3.993 -0.2511  0.1941  0.0929
   8223SM  C12S10906   4.488   3.879   4.184  0.0353  0.2964  0.1583
   8223SM  H12S10907   4.381   3.866   4.156  0.6460 -0.3865 -2.0245
   8223SM  H12T10908   4.502   3.982   4.224  0.8345  0.7404 -1.2180
   8223SM  C13S10909   4.503   3.771   4.294  0.5191 -0.3068 -0.1319
   8223SM  H13S10910   4.608   3.774   4.331  0.0241  4.2893  1.6184
   8223SM  H13T10911   4.481   3.671   4.253 -1.0952 -0.0649  0.0837
   8223SM  C14S10912   4.406   3.809   4.414 -1.1674 -0.0478 -0.1432
   8223SM  H14S10913   4.304   3.796   4.371 -0.1046 -1.1923 -2.4914
   8223SM  H14T10914   4.415   3.918   4.430  0.3414 -0.3267  1.1789
   8223SM  C15S10915   4.429   3.730   4.547 -0.1299  0.0716 -0.5116
   8223SM  H15S10916   4.378   3.795   4.622  0.6990  0.9279 -0.6639
   8223SM  H15T10917   4.539   3.738   4.561 -0.2742  0.5438  0.5194
   8223SM  C16S10918   4.375   3.591   4.534  0.2603  0.0590 -0.4255
   8223SM  H16S10919   4.379   3.560   4.427  0.7720 -0.1491 -0.3522
   8223SM  H16T10920   4.269   3.588   4.567 -0.1935 -0.4108 -1.8654
   8223SM  C17S10921   4.454   3.487   4.617 -0.0836 -1.4147 -0.1134
   8223SM  H17S10922   4.559   3.479   4.582  0.8370 -0.3396  2.1930
   8223SM  H17T10923   4.408   3.388   4.594 -1.7431 -0.4694 -1.0275
   8223SM  C18S10924   4.457   3.516   4.767 -0.6018 -0.0033 -0.5103
   8223SM  H18S10925   4.510   3.611   4.788 -0.0252 -0.1738 -1.1812
   8223SM  H18T10926   4.504   3.435   4.826 -0.7167  0.7528  0.6548
   8223SM  H18U10927   4.351   3.526   4.799 -1.7184 -0.9767 -3.5529
   8223SM   C1F10928   4.880   3.783   3.259  0.4602 -0.2878  0.5811
   8223SM    OF10929   4.999   3.795   3.264  0.0156 -0.2913  0.0134
   8223SM   C2F10930   4.811   3.657   3.312 -0.1987  0.3812  0.4013
   8223SM   H2F10931   4.810   3.588   3.224 -2.3519  0.2883  0.4442
   8223SM   H2G10932   4.708   3.692   3.334 -0.5939  0.6028 -1.6113
   8223SM   C3F10933   4.901   3.596   3.425  0.1123  0.4001 -0.1266
   8223SM   H3F10934   5.009   3.614   3.405  0.3277 -0.5572  0.1263
   8223SM   H3G10935   4.873   3.488   3.423 -2.1872  0.8322  2.3744
   8223SM   C4F10936   4.878   3.659   3.554  0.0984  0.0837 -0.0421
   8223SM   H4F10937   4.767   3.661   3.564  0.2238 -1.2886  2.2232
   8223SM   H4G10938   4.920   3.762   3.545  2.5158 -0.9224 -0.9862
   8223SM   C5F10939   4.941   3.595   3.674  0.1989  0.1510 -0.5589
   8223SM   H5F10940   5.047   3.582   3.645  0.3362  0.7768 -0.3599
   8223SM   H5G10941   4.891   3.496   3.677 -0.6242  0.5717  0.3332
   8223SM   C6F10942   4.938   3.669   3.806  0.6532 -0.3183  0.6374
   8223SM   H6F10943   4.828   3.680   3.822  0.1094 -0.6826 -2.2428
   8223SM   H6G10944   4.982   3.770   3.793 -0.6300  0.2792  0.6888
   8223SM   C7F10945   5.007   3.603   3.921 -0.1167  0.2418  0.3703
   8223SM   H7F10946   5.113   3.585   3.891 -0.3094  0.5307 -0.5330
   8223SM   H7G10947   4.974   3.498   3.938  0.1376 -0.1779 -1.5052
   8223SM   C8F10948   4.993   3.674   4.057 -0.1326  0.1537 -0.3777
   8223SM   H8F10949   4.885   3.691   4.077  0.2338  2.3153  0.0028
   8223SM   H8G10950   5.054   3.766   4.063  2.6935 -1.6945  3.0981
   8223SM   C9F10951   5.056   3.603   4.169  0.3598  0.0215 -0.5793
   8223SM   H9F10952   5.011   3.501   4.168 -0.8724  0.3931  3.0256
   8223SM   H9G10953   5.030   3.635   4.272  1.2637 -2.9079  0.6694
   8223SM  C10F10954   5.211   3.589   4.165  0.2003 -0.3010  0.1326
   8223SM  H10F10955   5.271   3.680   4.140  1.2231 -0.6792  1.1714
   8223SM  H10G10956   5.236   3.527   4.077 -2.5378 -0.9345 -0.3125
   8223SM  C11F10957   5.262   3.508   4.289  0.5944 -0.6005  0.5903
   8223SM  H11F10958   5.207   3.416   4.317 -0.0189  0.0889  1.7541
   8223SM  H11G10959   5.239   3.580   4.370  0.1882  0.5011 -0.4740
   8223SM  C12F10960   5.409   3.485   4.306  0.1384 -0.2067  0.5992
   8223SM  H12F10961   5.461   3.582   4.294 -0.7122  0.4789  2.1610
   8223SM  H12G10962   5.441   3.418   4.223 -1.9992  0.3012 -0.6949
   8223SM  C13F10963   5.450   3.436   4.446  1.0391  1.2476  0.2865
   8223SM  H13F10964   5.389   3.348   4.476  0.4944  0.8999 -1.7247
   8223SM  H13G10965   5.433   3.516   4.522  0.4442  0.0195  1.4861
   8223SM  C14F10966   5.598   3.414   4.456 -0.0881  0.1626 -0.3575
   8223SM  H14F10967   5.651   3.503   4.417  0.1646  0.3561  0.4128
   8223SM  H14G10968   5.630   3.330   4.390 -0.8363  0.6993 -1.4357
   8223SM  C15F10969   5.644   3.378   4.595  0.1283 -0.4220  0.1454
   8223SM  H15F10970   5.558   3.317   4.630 -3.9356  2.1017 -4.2197
   8223SM  H15G10971   5.659   3.467   4.660  1.4373 -0.9115  0.5311
   8223SM  C16F10972   5.772   3.300   4.593  0.1820  0.1386 -0.0031
   8223SM  H16F10973   5.858   3.367   4.572 -0.5167  0.6917 -1.2079
   8223SM  H16G10974   5.759   3.213   4.526 -0.8912 -0.7380  1.3009
   8223SM  C17F10975   5.807   3.249   4.733  0.0466 -0.4554  0.8346
   8223SM  H17F10976   5.715   3.203   4.775 -0.2998  0.6682  1.3544
   8223SM  H17G10977   5.835   3.333   4.801 -1.3746  0.0622  0.8118
   8223SM  C18F10978   5.920   3.149   4.729  0.2326  0.3165  0.2130
   8223SM  H18F10979   6.009   3.195   4.681  1.3401 -0.6993  1.2354
   8223SM  H18G10980   5.892   3.059   4.670  1.6688  1.4771 -2.4149
   8223SM  C19F10981   5.972   3.117   4.869  0.5727  0.2450 -0.0287
   8223SM  H19F10982   5.885   3.101   4.937  1.7073 -0.8176  1.2497
   8223SM  H19G10983   6.021   3.207   4.912  1.3131  0.2326 -0.8360
   8223SM  C20F10984   6.066   3.007   4.889  0.1928  0.6846  0.1320
   8223SM  H20F10985   6.161   3.023   4.835  0.1795 -1.5484 -0.6838
   8223SM  H20G10986   6.026   2.911   4.850 -0.4052  2.0128 -2.7561
   8223SM  C21F10987   6.093   2.989   5.035 -0.4835 -0.0174  0.3135
   8223SM  H21F10988   5.996   2.985   5.088  0.0361 -2.4773  1.2508
   8223SM  H21G10989   6.146   3.076   5.078  0.6242 -0.0319 -0.9270
   8223SM  C22F10990   6.181   2.867   5.074  0.7108  0.4621  0.5281
   8223SM  H22F10991   6.145   2.776   5.022  2.0562  1.4629 -2.3716
   8223SM  H22G10992   6.163   2.841   5.180 -2.5932 -0.9851 -0.2684
   8223SM  C23F10993   6.323   2.877   5.035 -0.1540 -0.6591 -0.3737
   8223SM  H23F10994   6.356   2.982   5.022  0.8161 -0.9519 -0.3504
   8223SM  H23G10995   6.343   2.830   4.936  0.8745 -1.9252  0.3992
   8223SM  H23H10996   6.388   2.838   5.117 -0.0013  0.7135  0.1784
   8323SM     N10997   5.373   5.068   3.094 -0.1096 -0.1120 -0.5178
   8323SM   C1510998   5.505   5.061   3.036 -0.1521 -0.2390  0.3464
   8323SM  H15A10999   5.530   4.956   3.026 -0.7191 -0.4092  0.6109
   8323SM  H15B11000   5.586   5.104   3.092  0.3633  0.5025 -0.9501
   8323SM  H15C11001   5.510   5.090   2.933 -0.8971 -1.1891  0.0229
   8323SM   C1411002   5.338   5.212   3.083 -0.5263  0.0796  0.0264
   8323SM  H14A11003   5.406   5.272   3.025 -1.0710 -0.5875 -1.3477
   8323SM  H14B11004   5.344   5.254   3.182  0.5558 -2.0181  0.9329
   8323SM  H14C11005   5.240   5.231   3.042  0.6090  1.7655 -2.0835
   8323SM   C1311006   5.278   4.995   3.008  0.1812  0.1214  0.3564
   8323SM  H13A11007   5.179   5.000   3.052 -1.3845 -0.9413 -2.7818
   8323SM  H13B11008   5.305   4.892   2.994 -0.8470 -0.1995  0.6704
   8323SM  H13C11009   5.256   5.048   2.916  1.7224 -0.3354 -0.3077
   8323SM   C1211010   5.371   5.007   3.234 -0.3224 -0.3314  0.1627
   8323SM  H12A11011   5.266   4.989   3.253 -0.4142 -0.9584 -0.8972
   8323SM  H12B11012   5.413   5.081   3.301 -1.1300  1.1466 -0.9040
   8323SM   C1111013   5.432   4.869   3.267 -0.2052 -0.1189 -0.4692
   8323SM  H11A11014   5.424   4.831   3.371 -0.7793  0.3789 -0.3289
   8323SM  H11B11015   5.542   4.881   3.261 -0.0940 -1.7572 -3.3098
   8323SM     P11016   5.244   4.701   3.194  0.1102  0.0941  0.0772
   8323SM   O1311017   5.202   4.737   3.327 -0.0037 -0.0408  0.3081
   8323SM   O1411018   5.158   4.737   3.078 -0.3532 -0.1133  0.0180
   8323SM   O1111019   5.262   4.546   3.201  0.0204  0.5066  0.2461
   8323SM   O1211020   5.390   4.772   3.176  0.1759  0.2967 -0.0276
   8323SM   C1S11021   5.350   4.483   3.284 -0.3244  0.0654 -0.3711
   8323SM   H1S11022   5.418   4.560   3.326 -1.2674  1.2605 -0.9725
   8323SM   H1T11023   5.417   4.412   3.231  1.7702 -0.4207  2.6691
   8323SM    NF11024   5.404   4.361   3.484 -0.3010  0.0882  0.1495
   8323SM   HNF11025   5.467   4.291   3.452  0.5251 -0.4844  2.7561
   8323SM   C2S11026   5.296   4.410   3.401  0.0383 -0.2059  0.1717
   8323SM   H2S11027   5.232   4.477   3.461  0.9978 -0.0761  1.0722
   8323SM   C3S11028   5.207   4.295   3.348  0.3379  0.1658 -1.4852
   8323SM   H3S11029   5.270   4.234   3.279  0.7545  0.8273 -1.7009
   8323SM    O311030   5.088   4.341   3.273  0.1332 -0.3713 -0.2094
   8323SM   HO311031   5.096   4.437   3.263 -2.7762  0.4391  2.9990
   8323SM   C4S11032   5.153   4.205   3.460 -0.2793 -0.1573  0.2026
   8323SM   H4S11033   5.076   4.264   3.512  0.4990  0.9232  0.1744
   8323SM   C5S11034   5.184   4.078   3.501  0.2960  0.0393  0.1662
   8323SM   H5S11035   5.270   4.030   3.453  0.5154  2.1610 -1.7256
   8323SM   C6S11036   5.115   4.002   3.618 -0.3637 -0.5427 -0.2082
   8323SM   H6S11037   5.050   3.920   3.581 -0.5038 -0.0288 -1.1130
   8323SM   H6T11038   5.043   4.066   3.674  1.1790  0.5579  0.5907
   8323SM   C7S11039   5.221   3.961   3.719 -0.3319 -0.5405  0.0535
   8323SM   H7S11040   5.299   3.893   3.680 -0.9114 -1.2327  0.0732
   8323SM   H7T11041   5.164   3.893   3.786 -0.7550 -1.8425 -1.5411
   8323SM   C8S11042   5.291   4.077   3.785 -0.4421  0.5857  0.0072
   8323SM   H8S11043   5.216   4.158   3.797 -1.9680 -0.7133 -0.2983
   8323SM   H8T11044   5.371   4.099   3.711 -0.9934  1.6155 -0.2916
   8323SM   C9S11045   5.345   4.050   3.927 -0.8736  0.3553  0.4894
   8323SM   H9S11046   5.394   4.137   3.976 -1.6570  1.7342 -1.0548
   8323SM   H9T11047   5.425   3.973   3.918  1.4965  2.6047  1.0556
   8323SM  C10S11048   5.234   4.012   4.022 -0.9585 -1.0242 -0.3617
   8323SM  H10S11049   5.167   3.929   3.992 -1.4520 -0.6275 -0.3714
   8323SM  H10T11050   5.175   4.106   4.031  0.4958 -0.2454  1.8526
   8323SM  C11S11051   5.294   3.966   4.157 -0.2025 -0.2548  0.4155
   8323SM  H11S11052   5.377   3.894   4.140 -0.8547 -0.7468 -0.8582
   8323SM  H11T11053   5.215   3.905   4.206 -1.3607  1.6479  1.0036
   8323SM  C12S11054   5.340   4.079   4.242 -0.3492 -0.4682 -0.1975
   8323SM  H12S11055   5.309   4.182   4.215 -1.4973 -0.1592  2.0386
   8323SM  H12T11056   5.451   4.087   4.249 -0.4308 -0.1707  1.2362
   8323SM  C13S11057   5.292   4.066   4.388  0.1743  0.4234  0.6296
   8323SM  H13S11058   5.181   4.073   4.379  0.0658 -1.9025 -0.8970
   8323SM  H13T11059   5.331   4.152   4.447 -1.7117  1.5810  0.2634
   8323SM  C14S11060   5.342   3.936   4.455  0.1577 -0.1617 -0.3355
   8323SM  H14S11061   5.449   3.914   4.433  0.6341 -0.5400  2.0859
   8323SM  H14T11062   5.285   3.846   4.421 -1.8891  1.3752 -1.2383
   8323SM  C15S11063   5.342   3.942   4.608 -0.5884  0.5083 -0.1200
   8323SM  H15S11064   5.239   3.953   4.648 -0.7097 -2.2321  0.5748
   8323SM  H15T11065   5.396   4.032   4.643  0.1230 -0.1394  0.4962
   8323SM  C16S11066   5.402   3.809   4.676 -0.6193 -0.0930 -0.3507
   8323SM  H16S11067   5.509   3.823   4.651 -0.0852  1.3737  2.3464
   8323SM  H16T11068   5.376   3.716   4.621  0.9153 -0.2734 -0.8168
   8323SM  C17S11069   5.393   3.790   4.832 -0.2870  0.0510 -0.3080
   8323SM  H17S11070   5.445   3.699   4.870 -0.3479 -0.1588 -0.7219
   8323SM  H17T11071   5.285   3.783   4.856 -0.1587  0.4256  0.3978
   8323SM  C18S11072   5.442   3.903   4.915  0.1395  0.0090 -0.4315
   8323SM  H18S11073   5.546   3.938   4.894  0.4614  0.1177  1.2191
   8323SM  H18T11074   5.447   3.889   5.025 -3.0264  0.5461 -0.1298
   8323SM  H18U11075   5.375   3.990   4.900 -0.7800 -0.6029  0.0626
   8323SM   C1F11076   5.432   4.420   3.607 -0.2817  0.1883  0.0869
   8323SM    OF11077   5.370   4.520   3.640  0.0743  0.1536  0.2983
   8323SM   C2F11078   5.552   4.363   3.684 -0.1905 -0.0603  0.0040
   8323SM   H2F11079   5.639   4.366   3.614 -0.5154  1.7019 -0.3666
   8323SM   H2G11080   5.533   4.256   3.706  3.3877 -0.7208  0.5708
   8323SM   C3F11081   5.588   4.438   3.824 -0.6582  1.1469 -0.1391
   8323SM   H3F11082   5.602   4.545   3.798  1.7406  0.8393 -0.3596
   8323SM   H3G11083   5.683   4.403   3.870 -0.7802  1.6973  0.5594
   8323SM   C4F11084   5.484   4.436   3.939 -0.4118  0.1198  0.4103
   8323SM   H4F11085   5.489   4.331   3.975 -2.4997 -0.6416 -1.2741
   8323SM   H4G11086   5.381   4.455   3.901  0.2845  2.0336 -0.6860
   8323SM   C5F11087   5.522   4.529   4.043  0.0058 -0.4969 -0.3193
   8323SM   H5F11088   5.577   4.616   4.002  0.8675 -1.0337 -0.3189
   8323SM   H5G11089   5.598   4.481   4.109  0.6099  0.7849 -0.0429
   8323SM   C6F11090   5.406   4.585   4.128  0.3260  0.6020 -0.3583
   8323SM   H6F11091   5.319   4.597   4.060  0.3990 -1.1186 -0.7993
   8323SM   H6G11092   5.424   4.691   4.155 -0.7583  0.3377  1.5741
   8323SM   C7F11093   5.366   4.502   4.248  0.0421  0.6594 -0.0786
   8323SM   H7F11094   5.366   4.394   4.218 -0.6739  1.2431 -2.3960
   8323SM   H7G11095   5.275   4.544   4.296  0.8783  4.1303 -1.2724
   8323SM   C8F11096   5.471   4.526   4.363  0.0883  0.9568  0.5594
   8323SM   H8F11097   5.482   4.635   4.381  1.3392  1.0623 -0.6040
   8323SM   H8G11098   5.574   4.490   4.343 -0.1555  0.4892  0.0929
   8323SM   C9F11099   5.420   4.461   4.487 -0.3036 -0.0499 -0.9172
   8323SM   H9F11100   5.400   4.354   4.469  2.4629 -0.8835  0.4625
   8323SM   H9G11101   5.318   4.498   4.511  0.4264  0.4601  1.7572
   8323SM  C10F11102   5.515   4.472   4.609 -0.8249  0.6404 -0.0179
   8323SM  H10F11103   5.529   4.570   4.661 -0.2523 -0.4673  2.0297
   8323SM  H10G11104   5.618   4.435   4.586 -1.9032 -2.7839  0.1158
   8323SM  C11F11105   5.461   4.391   4.727 -0.1533  0.3474  0.1149
   8323SM  H11F11106   5.462   4.281   4.711 -0.2814 -0.3628  3.9328
   8323SM  H11G11107   5.354   4.417   4.743 -0.8737 -1.3929 -1.4703
   8323SM  C12F11108   5.543   4.396   4.864  0.0587  0.6180 -0.2672
   8323SM  H12F11109   5.550   4.503   4.893 -3.0947  0.3159  2.2461
   8323SM  H12G11110   5.640   4.350   4.836 -0.0954  1.1885 -1.8409
   8323SM  C13F11111   5.475   4.315   4.972  0.1657 -0.2079  0.5236
   8323SM  H13F11112   5.457   4.211   4.937  0.4907 -0.2414  0.4452
   8323SM  H13G11113   5.377   4.364   4.987  0.1838 -0.4749  1.6007
   8323SM  C14F11114   5.560   4.324   5.101  0.3511 -0.2321 -0.1240
   8323SM  H14F11115   5.594   4.426   5.127 -1.7854  0.0301  1.8968
   8323SM  H14G11116   5.654   4.265   5.108  0.7658  0.6133  2.8343
   8323SM  C15F11117   5.478   4.277   5.226  0.1135  0.1395 -0.3390
   8323SM  H15F11118   5.539   4.278   5.318  0.3835 -2.0630 -0.4249
   8323SM  H15G11119   5.450   4.170   5.212 -0.0349 -0.3450  2.8773
   8323SM  C16F11120   5.334   4.346   5.241  0.4903  0.5969 -0.1625
   8323SM  H16F11121   5.298   4.320   5.343  0.1597 -4.0408 -1.2273
   8323SM  H16G11122   5.255   4.318   5.168  0.3805 -0.2701  0.2795
   8323SM  C17F11123   5.344   4.498   5.245 -0.1486 -0.1009 -0.6737
   8323SM  H17F11124   5.385   4.536   5.149 -0.2040  1.5285 -0.0834
   8323SM  H17G11125   5.411   4.525   5.329 -0.2384 -0.3188 -0.5320
   8323SM  C18F11126   5.209   4.574   5.258  0.2366 -0.1997  0.2954
   8323SM  H18F11127   5.152   4.544   5.168  1.1253  0.0757 -0.3763
   8323SM  H18G11128   5.236   4.682   5.247 -0.6093  0.1837  1.6890
   8323SM  C19F11129   5.126   4.560   5.385  0.0704  0.1057 -0.2967
   8323SM  H19F11130   5.184   4.589   5.475  0.0914  2.5018 -1.0067
   8323SM  H19G11131   5.114   4.450   5.395 -2.4538  0.2843 -0.7273
   8323SM  C20F11132   4.982   4.629   5.383  0.0010  0.4558  0.4299
   8323SM  H20F11133   4.996   4.739   5.385 -1.9637  0.7372  0.9951
   8323SM  H20G11134   4.948   4.599   5.484 -2.1761  0.0864 -0.3549
   8323SM  C21F11135   4.891   4.571   5.274  0.3324 -0.5006  0.6154
   8323SM  H21F11136   4.947   4.500   5.209  0.0096 -1.0706  0.9528
   8323SM  H21G11137   4.872   4.662   5.213  1.3613 -1.1531 -0.7241
   8323SM  C22F11138   4.759   4.507   5.322 -0.2030 -0.0901 -0.5855
   8323SM  H22F11139   4.797   4.417   5.376 -1.0639 -0.2786 -0.2707
   8323SM  H22G11140   4.696   4.474   5.236 -0.2356 -0.2413 -0.5048
   8323SM  C23F11141   4.668   4.591   5.404 -0.4259 -0.2759 -0.4386
   8323SM  H23F11142   4.633   4.682   5.350 -1.4324  0.7153  1.7792
   8323SM  H23G11143   4.722   4.627   5.494 -1.4241 -0.2120  0.1507
   8323SM  H23H11144   4.570   4.545   5.427 -0.9671  1.5651  1.2547
   8423SM     N11145   4.933   1.045   2.689 -0.3215  0.2904  0.0669
   8423SM   C1511146   4.794   0.994   2.676  0.3350 -0.3363 -0.3710
   8423SM  H15A11147   4.755   1.028   2.581  0.9985  2.6209  0.3084
   8423SM  H15B11148   4.738   1.021   2.764  0.1831 -1.3674 -0.1300
   8423SM  H15C11149   4.796   0.886   2.678 -1.9055 -0.4152  0.8005
   8423SM   C1411150   5.010   1.001   2.568  0.0711 -0.1279  0.7176
   8423SM  H14A11151   5.110   1.043   2.559  0.1242 -0.3397  0.3015
   8423SM  H14B11152   4.955   1.036   2.483 -1.7993  1.0812  2.3518
   8423SM  H14C11153   5.024   0.894   2.561 -0.5039 -0.0984 -2.0039
   8423SM   C1311154   4.921   1.193   2.677  0.1740  0.3482 -0.3711
   8423SM  H13A11155   4.874   1.232   2.765  0.6180  1.2597 -0.5292
   8423SM  H13B11156   4.871   1.220   2.585  0.4312 -0.4509 -0.7611
   8423SM  H13C11157   5.018   1.242   2.673  1.6132 -2.3429 -1.0747
   8423SM   C1211158   4.995   1.000   2.820  0.3642 -0.2969  0.1546
   8423SM  H12A11159   4.994   0.892   2.814  1.2744 -0.2919 -0.2026
   8423SM  H12B11160   4.923   1.026   2.897  1.8100  1.3599  1.0094
   8423SM   C1111161   5.133   1.056   2.875 -1.0363  0.5933 -0.2214
   8423SM  H11A11162   5.194   1.055   2.783 -1.8059 -2.0745 -0.7681
   8423SM  H11B11163   5.164   0.983   2.953 -1.1510  0.9040  0.1227
   8423SM     P11164   5.054   1.232   3.063  0.0023 -0.0068  0.0909
   8423SM   O1311165   5.056   1.376   3.088  0.2284 -0.8117  0.4106
   8423SM   O1411166   4.922   1.171   3.055  0.1765  0.0156  0.2509
   8423SM   O1111167   5.148   1.163   3.164  0.5432 -0.3886  0.2676
   8423SM   O1211168   5.126   1.191   2.922  0.1296 -0.3418 -0.3486
   8423SM   C1S11169   5.288   1.185   3.150 -0.0041  0.1897 -0.4994
   8423SM   H1S11170   5.325   1.233   3.057  0.5502 -0.3717 -0.5768
   8423SM   H1T11171   5.343   1.088   3.155  1.3963  0.9116 -1.5097
   8423SM    NF11172   5.483   1.292   3.245  0.4345  0.1770 -0.3247
   8423SM   HNF11173   5.542   1.218   3.276  0.2675 -0.1245 -0.7287
   8423SM   C2S11174   5.337   1.271   3.274 -0.3734  0.3351 -0.2095
   8423SM   H2S11175   5.280   1.367   3.265 -0.0020  0.6353  0.5591
   8423SM   C3S11176   5.315   1.204   3.413  0.4412  0.6923  0.5200
   8423SM   H3S11177   5.370   1.108   3.413  2.0938  1.5653 -1.3405
   8423SM    O311178   5.182   1.168   3.444 -0.0544  0.0629  0.1836
   8423SM   HO311179   5.144   1.194   3.359 -0.9919 -0.8947  0.2831
   8423SM   C4S11180   5.384   1.281   3.521 -0.0028 -0.0688  0.7140
   8423SM   H4S11181   5.454   1.231   3.589 -0.9099 -0.3591  1.4520
   8423SM   C5S11182   5.353   1.411   3.555  0.2662  0.3064  0.6788
   8423SM   H5S11183   5.272   1.467   3.507  1.0559  0.6542 -0.2854
   8423SM   C6S11184   5.415   1.490   3.659 -0.0900  0.0284 -0.8399
   8423SM   H6S11185   5.342   1.552   3.715  0.4614  1.3919 -1.5930
   8423SM   H6T11186   5.506   1.545   3.626 -1.5442  3.5156  0.4939
   8423SM   C7S11187   5.479   1.393   3.764 -0.3760  0.0829 -0.2664
   8423SM   H7S11188   5.577   1.363   3.721 -0.1677  0.7630 -0.2734
   8423SM   H7T11189   5.418   1.309   3.805 -0.9394  0.1585 -0.9305
   8423SM   C8S11190   5.528   1.469   3.887  0.2179 -0.5259  0.0156
   8423SM   H8S11191   5.433   1.507   3.931  0.1458 -0.4014 -0.2465
   8423SM   H8T11192   5.590   1.554   3.853  2.3966 -1.5674  1.1861
   8423SM   C9S11193   5.609   1.389   3.991  0.1367 -0.3269  0.9492
   8423SM   H9S11194   5.708   1.371   3.943 -0.4189  0.9072 -0.7614
   8423SM   H9T11195   5.557   1.297   4.023 -0.7960  0.1490  0.8446
   8423SM  C10S11196   5.622   1.477   4.110 -0.0948 -0.2956  0.8714
   8423SM  H10S11197   5.526   1.529   4.124  0.1206  0.4729 -0.4028
   8423SM  H10T11198   5.700   1.554   4.091  0.2007 -1.0258 -1.2355
   8423SM  C11S11199   5.663   1.391   4.230 -0.0800  0.6322  0.2697
   8423SM  H11S11200   5.750   1.328   4.200 -0.1556  0.7762 -0.2730
   8423SM  H11T11201   5.585   1.316   4.255 -1.6748  1.3086 -2.2787
   8423SM  C12S11202   5.690   1.468   4.356 -1.1305  0.2054  0.0924
   8423SM  H12S11203   5.597   1.518   4.391 -0.6842 -0.4688  2.4133
   8423SM  H12T11204   5.773   1.537   4.331 -1.1370 -0.7141 -2.7440
   8423SM  C13S11205   5.745   1.381   4.469  0.0816  0.0295 -0.7729
   8423SM  H13S11206   5.798   1.447   4.540  0.0989 -0.5202 -0.2635
   8423SM  H13T11207   5.804   1.294   4.431 -1.4184 -1.2275 -0.3209
   8423SM  C14S11208   5.632   1.307   4.547  0.3535  0.1380  0.6169
   8423SM  H14S11209   5.564   1.254   4.477 -2.5515 -1.3030  4.1442
   8423SM  H14T11210   5.562   1.386   4.579 -0.2609  1.3931 -3.3218
   8423SM  C15S11211   5.679   1.198   4.636 -0.4502 -0.7782 -0.2846
   8423SM  H15S11212   5.756   1.236   4.707 -0.2364  0.7137 -1.2630
   8423SM  H15T11213   5.737   1.127   4.574  1.3627  1.5377 -1.4154
   8423SM  C16S11214   5.566   1.131   4.731 -0.0699 -0.4280 -0.7086
   8423SM  H16S11215   5.607   1.042   4.784 -0.1833 -0.5494 -0.8247
   8423SM  H16T11216   5.483   1.105   4.663  1.1585 -0.6986 -2.1748
   8423SM  C17S11217   5.518   1.241   4.829 -0.8396 -0.0797 -0.2863
   8423SM  H17S11218   5.473   1.329   4.777 -3.0215 -0.9577  0.0103
   8423SM  H17T11219   5.612   1.265   4.883  0.7218 -0.4784 -2.6726
   8423SM  C18S11220   5.413   1.191   4.930  0.2955  0.4179 -0.2319
   8423SM  H18S11221   5.384   1.276   4.995  1.6398  1.1081 -0.4870
   8423SM  H18T11222   5.462   1.115   4.995  1.2140 -0.3684 -1.7902
   8423SM  H18U11223   5.325   1.146   4.880  0.3986 -0.7803  0.6278
   8423SM   C1F11224   5.532   1.385   3.157  0.4937  0.3693 -0.3823
   8423SM    OF11225   5.460   1.462   3.099 -0.3114  0.3517  0.9929
   8423SM   C2F11226   5.675   1.371   3.123 -0.0536 -0.1537 -0.5611
   8423SM   H2F11227   5.685   1.372   3.012  0.2371  1.0599 -0.5410
   8423SM   H2G11228   5.719   1.278   3.164  1.3875  0.3258 -0.9705
   8423SM   C3F11229   5.760   1.493   3.178 -0.9880  0.4671  0.1691
   8423SM   H3F11230   5.704   1.585   3.149 -1.0238  1.1803  2.3089
   8423SM   H3G11231   5.863   1.501   3.137 -0.2704  0.1004  1.8182
   8423SM   C4F11232   5.768   1.490   3.332  0.2950  0.1699 -0.1507
   8423SM   H4F11233   5.665   1.473   3.370  0.5358 -1.9809 -0.3035
   8423SM   H4G11234   5.789   1.593   3.367 -1.5069  0.5956 -0.1931
   8423SM   C5F11235   5.864   1.387   3.389 -0.3921  0.5498 -1.0080
   8423SM   H5F11236   5.963   1.391   3.338  0.6926 -0.7733  0.8672
   8423SM   H5G11237   5.830   1.282   3.375  0.6317 -0.1562  1.3081
   8423SM   C6F11238   5.888   1.416   3.538 -0.7927  0.7412  0.0108
   8423SM   H6F11239   5.811   1.366   3.601 -0.0506 -0.1325  0.2390
   8423SM   H6G11240   5.885   1.526   3.551 -0.1608  0.5969  1.4585
   8423SM   C7F11241   6.031   1.366   3.574  0.6513 -0.0277  0.5254
   8423SM   H7F11242   6.101   1.392   3.492  0.4968 -2.5521 -0.4759
   8423SM   H7G11243   6.039   1.256   3.573  4.0634  0.0927 -1.3239
   8423SM   C8F11244   6.088   1.420   3.705 -0.1616 -0.4827  0.7075
   8423SM   H8F11245   6.063   1.528   3.714 -0.7367 -0.5840  0.3628
   8423SM   H8G11246   6.198   1.411   3.691 -0.3749  0.2037 -1.9772
   8423SM   C9F11247   6.032   1.352   3.825  0.4182  0.3426  0.5450
   8423SM   H9F11248   6.064   1.246   3.829  0.2242  0.2269 -0.7329
   8423SM   H9G11249   5.921   1.361   3.818  0.3983  0.4492  0.9721
   8423SM  C10F11250   6.069   1.414   3.958 -0.1203  0.1149  0.3215
   8423SM  H10F11251   6.003   1.373   4.037 -1.6892  0.3055 -0.8563
   8423SM  H10G11252   6.067   1.524   3.949  0.0062 -0.0067 -1.6063
   8423SM  C11F11253   6.212   1.368   4.000 -0.3972  0.1878  0.1537
   8423SM  H11F11254   6.277   1.393   3.914 -1.8190  0.2205 -0.9398
   8423SM  H11G11255   6.215   1.259   4.017  2.3705  0.0897 -0.3885
   8423SM  C12F11256   6.266   1.444   4.120 -0.4208 -0.4612  0.0426
   8423SM  H12F11257   6.248   1.553   4.105 -0.2743 -0.5127 -0.5465
   8423SM  H12G11258   6.373   1.424   4.145 -0.5633  0.4546  1.5245
   8423SM  C13F11259   6.186   1.400   4.246 -0.7194  0.1107 -0.1211
   8423SM  H13F11260   6.212   1.297   4.279 -3.1868 -0.7494 -0.6216
   8423SM  H13G11261   6.078   1.381   4.227 -0.9272 -0.0920  1.1506
   8423SM  C14F11262   6.199   1.497   4.371  0.0192  0.2334  0.3522
   8423SM  H14F11263   6.169   1.594   4.327 -0.1801 -0.7064 -1.6738
   8423SM  H14G11264   6.307   1.508   4.398  0.0415 -0.2631  0.4736
   8423SM  C15F11265   6.113   1.449   4.493 -0.0684 -1.1201  0.4343
   8423SM  H15F11266   6.160   1.354   4.528  2.0900 -1.0557 -1.9952
   8423SM  H15G11267   6.010   1.438   4.454 -0.7841  0.0810  1.8652
   8423SM  C16F11268   6.103   1.567   4.593  0.2405  0.1268  0.0343
   8423SM  H16F11269   6.036   1.649   4.558 -1.7448 -1.3916  0.0654
   8423SM  H16G11270   6.207   1.602   4.604  0.7949 -0.8902 -1.5417
   8423SM  C17F11271   6.058   1.517   4.729 -0.7684  0.4076 -0.9422
   8423SM  H17F11272   6.136   1.448   4.767 -1.6818  0.1632  0.5472
   8423SM  H17G11273   5.959   1.472   4.706 -1.2503  2.2356 -2.7887
   8423SM  C18F11274   6.037   1.628   4.829 -0.0713  0.2728  0.1560
   8423SM  H18F11275   5.960   1.701   4.796  0.0824  0.9172  1.1925
   8423SM  H18G11276   6.132   1.681   4.853 -0.3164  0.0317  1.7765
   8423SM  C19F11277   5.979   1.573   4.961 -0.0612 -0.2097  0.2859
   8423SM  H19F11278   5.903   1.494   4.942  0.2143 -0.1870 -1.0349
   8423SM  H19G11279   5.928   1.658   5.010  1.9017  1.2813 -0.1318
   8423SM  C20F11280   6.087   1.516   5.054 -0.1164 -0.3660 -0.2162
   8423SM  H20F11281   6.167   1.593   5.067 -1.4523  1.0198  0.0811
   8423SM  H20G11282   6.137   1.433   5.000 -0.5580  0.1388 -1.4392
   8423SM  C21F11283   6.025   1.448   5.179  0.4521 -0.1934 -0.3003
   8423SM  H21F11284   5.957   1.363   5.158 -0.2822  0.4903 -0.7585
   8423SM  H21G11285   5.959   1.521   5.230 -1.0751 -1.2299 -0.7123
   8423SM  C22F11286   6.135   1.400   5.269  0.4660  0.1695 -1.0509
   8423SM  H22F11287   6.214   1.474   5.292 -1.1634  2.5106 -2.6465
   8423SM  H22G11288   6.189   1.316   5.219 -0.7416  0.8145 -3.5896
   8423SM  C23F11289   6.088   1.342   5.403 -0.0954  0.1877 -0.1965
   8423SM  H23F11290   6.036   1.421   5.461 -1.1395 -0.8824  0.3850
   8423SM  H23G11291   6.177   1.296   5.450  0.2104  1.7190  0.7938
   8423SM  H23H11292   6.016   1.261   5.378  1.9224 -2.2985  1.5438
   8523SM     N11293   0.203   3.232   3.001 -0.4545  0.2182  0.6589
   8523SM   C1511294   0.247   3.146   2.890 -0.2756  0.1105 -0.0884
   8523SM  H15A11295   0.183   3.165   2.805 -1.8536  1.3116  1.3006
   8523SM  H15B11296   0.243   3.040   2.911 -1.5104  0.5944  2.5127
   8523SM  H15C11297   0.346   3.164   2.851 -0.8172  0.0022 -1.5804
   8523SM   C1411298   0.304   3.238   3.110 -0.1807  0.5502 -0.2855
   8523SM  H14A11299   0.300   3.314   3.187 -0.9271  1.3551 -1.0973
   8523SM  H14B11300   0.398   3.268   3.067  0.0450 -0.4763 -0.5280
   8523SM  H14C11301   0.307   3.142   3.160 -1.1389  1.1597  0.9968
   8523SM   C1311302   0.180   3.375   2.956 -0.0299  0.0861 -0.4312
   8523SM  H13A11303   0.112   3.369   2.873 -0.2030  0.6255 -0.3371
   8523SM  H13B11304   0.274   3.415   2.921  0.3938 -0.2035  0.3435
   8523SM  H13C11305   0.140   3.439   3.034  1.4127  0.2025  0.2601
   8523SM   C1211306   0.071   3.172   3.051  0.5467 -0.1574  0.6266
   8523SM  H12A11307   0.029   3.232   3.131  0.7846  0.0124  0.6262
   8523SM  H12B11308   0.095   3.076   3.093 -0.2888  0.3713  2.4537
   8523SM   C1111309  -0.045   3.155   2.952  0.5890  0.5586 -0.7797
   8523SM  H11A11310  -0.128   3.097   2.998  1.7190 -0.8679 -0.4603
   8523SM  H11B11311  -0.010   3.092   2.868  0.0196 -2.9469  1.4154
   8523SM     P11312  -0.225   3.354   2.937 -0.2321  0.1743  0.3670
   8523SM   O1311313  -0.236   3.468   2.843 -0.2168  0.2613  0.4119
   8523SM   O1411314  -0.329   3.253   2.941  0.6174  0.6077  0.9008
   8523SM   O1111315  -0.208   3.410   3.077 -0.2386  0.0169 -0.4183
   8523SM   O1211316  -0.100   3.270   2.894  0.1204  0.1477 -0.3905
   8523SM   C1S11317  -0.256   3.340   3.197 -0.3591 -0.4259 -0.3136
   8523SM   H1S11318  -0.185   3.271   3.248  0.8039  0.9445  0.0222
   8523SM   H1T11319  -0.359   3.307   3.174 -0.7568  1.1090 -0.8793
   8523SM    NF11320  -0.330   3.359   3.430 -0.8270  0.0100 -0.3424
   8523SM   HNF11321  -0.429   3.353   3.422 -1.1004  0.2641  2.1429
   8523SM   C2S11322  -0.278   3.433   3.315 -0.8966 -0.5664  0.3313
   8523SM   H2S11323  -0.181   3.483   3.334 -1.7446  0.4529  2.3918
   8523SM   C3S11324  -0.375   3.554   3.285 -0.8265  0.3697 -0.0185
   8523SM   H3S11325  -0.470   3.506   3.253 -1.1371  0.5936  0.5610
   8523SM    O311326  -0.349   3.625   3.167  0.3086 -0.4942 -0.0859
   8523SM   HO311327  -0.279   3.567   3.136  0.3401 -1.3985  1.5502
   8523SM   C4S11328  -0.409   3.632   3.414  0.0176 -0.1804 -0.0580
   8523SM   H4S11329  -0.324   3.678   3.467  0.1285  0.1319 -0.5017
   8523SM   C5S11330  -0.518   3.634   3.483  0.6352  0.5491 -0.9167
   8523SM   H5S11331  -0.589   3.555   3.456 -0.3567  1.0975  0.0475
   8523SM   C6S11332  -0.533   3.698   3.620  0.6554  1.0928 -0.7884
   8523SM   H6S11333  -0.559   3.613   3.686  0.9513  0.3745 -1.5869
   8523SM   H6T11334  -0.612   3.777   3.618  0.2115  0.7518  1.1868
   8523SM   C7S11335  -0.407   3.754   3.689  0.1883  0.3992 -0.0376
   8523SM   H7S11336  -0.372   3.842   3.631  0.0182 -0.0286 -0.7933
   8523SM   H7T11337  -0.331   3.673   3.690  1.5315  1.6138 -0.1728
   8523SM   C8S11338  -0.435   3.788   3.837  0.0053  0.2923  0.1673
   8523SM   H8S11339  -0.488   3.705   3.888 -1.3716  0.9585 -0.1240
   8523SM   H8T11340  -0.489   3.885   3.843  1.9661  1.6248 -2.0891
   8523SM   C9S11341  -0.299   3.816   3.914 -0.0947  0.2327  0.5474
   8523SM   H9S11342  -0.251   3.896   3.854 -2.5100  0.3232 -1.4302
   8523SM   H9T11343  -0.231   3.729   3.918 -1.7892 -1.1123  1.1256
   8523SM  C10S11344  -0.310   3.877   4.061  0.2869  0.2904  0.4501
   8523SM  H10S11345  -0.211   3.900   4.105  0.8657 -1.5433  0.1883
   8523SM  H10T11346  -0.341   3.795   4.128  0.9650 -0.5791 -0.2774
   8523SM  C11S11347  -0.410   3.992   4.090 -1.1289  0.2231 -0.5334
   8523SM  H11S11348  -0.514   3.971   4.057 -1.6204 -1.1568  1.6812
   8523SM  H11T11349  -0.367   4.085   4.047  1.7015 -0.2431  1.0849
   8523SM  C12S11350  -0.405   4.016   4.246  1.1488  0.1685 -0.1370
   8523SM  H12S11351  -0.299   4.001   4.274  1.2035  1.1851  0.2671
   8523SM  H12T11352  -0.461   3.944   4.310 -0.3927  0.3067 -1.2538
   8523SM  C13S11353  -0.433   4.156   4.302  0.9243  0.3684  0.3521
   8523SM  H13S11354  -0.543   4.171   4.291  1.0583  1.2249  0.1416
   8523SM  H13T11355  -0.378   4.229   4.240  0.1980  1.4129  0.9041
   8523SM  C14S11356  -0.398   4.166   4.446  0.1765 -0.0013  0.6213
   8523SM  H14S11357  -0.327   4.089   4.482  0.8135 -0.2968 -1.1693
   8523SM  H14T11358  -0.490   4.136   4.501  0.0024 -3.6237 -1.2902
   8523SM  C15S11359  -0.364   4.303   4.501  0.4073 -0.1020  0.7190
   8523SM  H15S11360  -0.439   4.373   4.457 -0.4401 -0.9142  0.8237
   8523SM  H15T11361  -0.263   4.336   4.470 -0.8945  3.1704 -0.5807
   8523SM  C16S11362  -0.370   4.312   4.652 -0.2225 -0.5850 -0.0617
   8523SM  H16S11363  -0.473   4.303   4.692  0.3242 -0.8372  1.3471
   8523SM  H16T11364  -0.325   4.408   4.685  1.8154 -0.7211 -2.1611
   8523SM  C17S11365  -0.288   4.195   4.716 -0.1885  0.5471 -0.2614
   8523SM  H17S11366  -0.198   4.188   4.651 -1.8997 -0.5753 -2.6455
   8523SM  H17T11367  -0.338   4.096   4.703 -0.0496  0.1746  1.7704
   8523SM  C18S11368  -0.257   4.222   4.858  0.0057  0.1037 -0.0447
   8523SM  H18S11369  -0.350   4.245   4.914 -0.1065  0.2564 -0.2898
   8523SM  H18T11370  -0.181   4.303   4.862 -0.9543  1.0532 -0.6181
   8523SM  H18U11371  -0.218   4.124   4.893 -0.2841 -0.0210 -0.0726
   8523SM   C1F11372  -0.257   3.279   3.510  0.5628 -0.0711 -0.9635
   8523SM    OF11373  -0.136   3.283   3.501  0.0433  0.4764  0.8042
   8523SM   C2F11374  -0.319   3.183   3.590 -0.3947  0.1607 -0.4485
   8523SM   H2F11375  -0.289   3.083   3.554  0.1916 -0.2481  1.0880
   8523SM   H2G11376  -0.429   3.195   3.586 -0.6876 -0.4568  2.7535
   8523SM   C3F11377  -0.279   3.190   3.745  0.5348 -0.8963 -0.2220
   8523SM   H3F11378  -0.170   3.202   3.764 -0.2014  2.9440  2.7356
   8523SM   H3G11379  -0.305   3.095   3.795  1.1274 -1.3693 -0.7912
   8523SM   C4F11380  -0.340   3.308   3.828 -0.3417 -0.4391  0.6567
   8523SM   H4F11381  -0.441   3.326   3.784  0.5643  1.4910 -0.8044
   8523SM   H4G11382  -0.279   3.396   3.802 -2.0429  0.1243 -1.8549
   8523SM   C5F11383  -0.360   3.288   3.974  0.7142 -0.5137 -0.8060
   8523SM   H5F11384  -0.262   3.264   4.021 -0.1795 -1.3205  0.7331
   8523SM   H5G11385  -0.409   3.190   3.995  0.1711 -0.2698 -0.9144
   8523SM   C6F11386  -0.440   3.407   4.032  0.1707  0.0761  0.2867
   8523SM   H6F11387  -0.547   3.402   4.001  0.4088 -0.7288 -0.4601
   8523SM   H6G11388  -0.399   3.503   3.994  0.5726 -0.1321  0.1868
   8523SM   C7F11389  -0.441   3.400   4.183  0.3684  0.0629 -0.0667
   8523SM   H7F11390  -0.334   3.386   4.209  0.1913 -1.4900 -0.1080
   8523SM   H7G11391  -0.494   3.307   4.210  0.4357  0.0068 -0.1267
   8523SM   C8F11392  -0.496   3.527   4.244  0.1837  0.0650 -0.1090
   8523SM   H8F11393  -0.605   3.545   4.237 -0.3459 -1.2463  2.9709
   8523SM   H8G11394  -0.453   3.616   4.192  0.2701  0.9490  1.4295
   8523SM   C9F11395  -0.453   3.532   4.394 -0.1094  0.1844 -0.3118
   8523SM   H9F11396  -0.355   3.483   4.413 -0.5956 -1.0337 -0.8663
   8523SM   H9G11397  -0.532   3.473   4.444  0.6504  0.2856  1.0718
   8523SM  C10F11398  -0.448   3.668   4.466 -0.6322  0.5606  0.4662
   8523SM  H10F11399  -0.537   3.730   4.438  0.5217  2.1340  0.1543
   8523SM  H10G11400  -0.355   3.719   4.434  1.8225 -2.8810  1.6512
   8523SM  C11F11401  -0.453   3.654   4.618 -0.7982  0.2953 -0.1196
   8523SM  H11F11402  -0.389   3.567   4.644 -0.0588  1.1160  0.8608
   8523SM  H11G11403  -0.556   3.614   4.632 -1.2300  0.9691 -1.2660
   8523SM  C12F11404  -0.428   3.785   4.695 -0.5661 -0.0183 -0.2258
   8523SM  H12F11405  -0.497   3.864   4.657 -0.7037 -0.6820 -1.4034
   8523SM  H12G11406  -0.321   3.813   4.688 -0.2905 -1.1174 -0.6639
   8523SM  C13F11407  -0.452   3.762   4.848  0.2974 -0.1470  0.3537
   8523SM  H13F11408  -0.378   3.687   4.883  0.3285 -0.6171 -0.7043
   8523SM  H13G11409  -0.556   3.724   4.841  0.1661  0.4534 -1.2559
   8523SM  C14F11410  -0.448   3.882   4.942  0.1634  0.2138 -0.5365
   8523SM  H14F11411  -0.465   3.979   4.891 -0.3959  1.0962  1.2475
   8523SM  H14G11412  -0.342   3.886   4.976  0.2562  2.7756 -0.9354
   8523SM  C15F11413  -0.552   3.871   5.061 -0.4551  0.6017  0.0849
   8523SM  H15F11414  -0.565   3.766   5.096 -3.2098  1.3260  1.5315
   8523SM  H15G11415  -0.646   3.898   5.009 -1.1260 -2.3115 -0.3637
   8523SM  C16F11416  -0.523   3.950   5.187 -0.1287  0.2105  0.2739
   8523SM  H16F11417  -0.523   4.057   5.157  2.2661 -0.2824 -1.8152
   8523SM  H16G11418  -0.419   3.925   5.217  0.4982 -1.1588 -2.6522
   8523SM  C17F11419  -0.623   3.921   5.297  0.1940  0.6994 -0.3019
   8523SM  H17F11420  -0.678   3.828   5.271 -0.4423  1.0206 -0.1192
   8523SM  H17G11421  -0.704   3.996   5.307 -1.1690 -0.8874  1.3243
   8523SM  C18F11422  -0.557   3.907   5.431  0.4467 -0.3361 -0.9707
   8523SM  H18F11423  -0.484   3.990   5.440  0.0931 -0.1410  0.3408
   8523SM  H18G11424  -0.493   3.817   5.417  1.5041  0.0846  0.8661
   8523SM  C19F11425  -0.648   3.876   5.545  0.5363 -0.2679  0.5026
   8523SM  H19F11426  -0.580   3.843   5.627  0.1084  1.0866  1.4456
   8523SM  H19G11427  -0.713   3.787   5.526  0.8431 -0.2038 -0.8874
   8523SM  C20F11428  -0.732   3.993   5.579 -0.2463 -0.4253  0.5589
   8523SM  H20F11429  -0.789   4.022   5.489  2.9814  0.7294 -1.2504
   8523SM  H20G11430  -0.676   4.086   5.602 -0.8784  0.0513  0.1687
   8523SM  C21F11431  -0.830   3.966   5.689  0.3544 -0.2921 -0.2913
   8523SM  H21F11432  -0.781   3.920   5.778  1.5222 -1.5994 -1.5669
   8523SM  H21G11433  -0.899   3.889   5.648 -2.3572  1.8692 -0.1158
   8523SM  C22F11434  -0.925   4.080   5.721  1.0604 -0.2070  0.0162
   8523SM  H22F11435  -0.973   4.112   5.626  1.6294 -0.6553 -0.4342
   8523SM  H22G11436  -0.864   4.164   5.762  0.2199 -0.3833  1.7466
   8523SM  C23F11437  -1.032   4.044   5.822 -1.0167  0.0771 -0.1787
   8523SM  H23F11438  -1.105   4.128   5.830 -1.1990  0.0884 -1.7323
   8523SM  H23G11439  -0.985   4.042   5.923 -0.1498  1.3463 -0.5330
   8523SM  H23H11440  -1.085   3.949   5.801 -0.2716  0.1043 -2.4298
   8623SM     N11441   3.752   1.679   2.680  0.3564  0.0194  0.0810
   8623SM   C1511442   3.839   1.768   2.607 -0.1932 -0.1186 -0.2255
   8623SM  H15A11443   3.849   1.863   2.657 -0.7233  0.3578 -1.0014
   8623SM  H15B11444   3.805   1.776   2.504  0.4050 -1.8125 -0.5858
   8623SM  H15C11445   3.939   1.726   2.609 -1.6524 -3.9614  0.6223
   8623SM   C1411446   3.649   1.761   2.740 -0.0669 -0.0099  0.3816
   8623SM  H14A11447   3.562   1.706   2.773 -0.8011 -0.3574 -1.9657
   8623SM  H14B11448   3.606   1.834   2.674  1.2739  0.7114  0.2580
   8623SM  H14C11449   3.687   1.812   2.827 -2.2154 -0.7200  1.7976
   8623SM   C1311450   3.699   1.578   2.587 -0.0518 -0.4384 -0.1193
   8623SM  H13A11451   3.645   1.625   2.506  2.0178 -1.1078 -1.9847
   8623SM  H13B11452   3.625   1.519   2.638 -0.9974  0.5011 -0.3627
   8623SM  H13C11453   3.772   1.523   2.530 -1.2150 -3.0734  0.7751
   8623SM   C1211454   3.826   1.612   2.792  0.0286 -0.0955  0.1095
   8623SM  H12A11455   3.888   1.543   2.738  0.0006  0.0244 -0.0767
   8623SM  H12B11456   3.750   1.551   2.838 -2.4643  0.8161 -2.4756
   8623SM   C1111457   3.898   1.690   2.898 -0.1253 -0.3775  0.0816
   8623SM  H11A11458   3.920   1.620   2.981  0.4725  0.2374  0.4603
   8623SM  H11B11459   3.829   1.765   2.943 -0.2574  0.9581 -2.2029
   8623SM     P11460   4.150   1.683   2.842 -0.7428 -0.1258  0.6753
   8623SM   O1311461   4.141   1.549   2.788 -0.9436  0.6769  0.2306
   8623SM   O1411462   4.241   1.774   2.768 -0.3494  0.3638 -0.2133
   8623SM   O1111463   4.178   1.675   2.996  0.0963  0.5336 -0.6272
   8623SM   O1211464   4.007   1.750   2.838  0.1426  0.2204 -0.3141
   8623SM   C1S11465   4.195   1.800   3.065 -0.5166 -0.6476  0.4026
   8623SM   H1S11466   4.095   1.849   3.059 -1.6038 -2.6951  0.6419
   8623SM   H1T11467   4.265   1.867   3.012 -1.5596 -1.5629 -2.3666
   8623SM    NF11468   4.260   1.886   3.298  0.7276  0.1245  0.4579
   8623SM   HNF11469   4.354   1.894   3.330  0.6153 -2.5885  1.7416
   8623SM   C2S11470   4.239   1.770   3.214  0.4983  0.2286 -0.2457
   8623SM   H2S11471   4.159   1.712   3.265 -0.2150  2.6805  1.5970
   8623SM   C3S11472   4.371   1.683   3.217 -0.5005  0.1810  0.4192
   8623SM   H3S11473   4.458   1.743   3.185 -0.2102 -0.3339  0.2333
   8623SM    O311474   4.357   1.569   3.131 -0.1361  0.3035 -0.1646
   8623SM   HO311475   4.277   1.583   3.081 -0.1544  1.5058  0.1733
   8623SM   C4S11476   4.404   1.647   3.360 -0.1535  0.5662  0.0842
   8623SM   H4S11477   4.478   1.710   3.411  1.3178 -0.8776 -0.1533
   8623SM   C5S11478   4.366   1.530   3.417 -0.3300 -0.1776 -0.5271
   8623SM   H5S11479   4.304   1.472   3.348  1.0552 -0.7125 -1.3465
   8623SM   C6S11480   4.408   1.479   3.554  0.7284 -0.3735 -0.6037
   8623SM   H6S11481   4.459   1.381   3.534 -0.1114 -0.9839  0.2028
   8623SM   H6T11482   4.315   1.466   3.613  0.3720 -0.2054 -1.1239
   8623SM   C7S11483   4.515   1.570   3.635 -0.2405  0.2065 -0.2108
   8623SM   H7S11484   4.461   1.665   3.655 -1.6980 -0.7539  0.6107
   8623SM   H7T11485   4.606   1.587   3.574  0.1652  1.0198  0.6055
   8623SM   C8S11486   4.560   1.508   3.764  0.6976  0.3800 -0.1275
   8623SM   H8S11487   4.639   1.430   3.755  0.1436 -0.2070  0.0208
   8623SM   H8T11488   4.468   1.468   3.811  0.0004  1.0687 -0.8884
   8623SM   C9S11489   4.620   1.615   3.852 -0.5061 -0.2265  0.4508
   8623SM   H9S11490   4.551   1.702   3.842 -0.5566  0.1501  3.1434
   8623SM   H9T11491   4.722   1.644   3.819  0.7490 -1.1189  3.1795
   8623SM  C10S11492   4.637   1.580   3.999 -0.0062  0.1820 -0.2791
   8623SM  H10S11493   4.671   1.474   4.000 -1.5445 -0.3420  0.7967
   8623SM  H10T11494   4.533   1.579   4.039  0.5300  0.6609  1.1805
   8623SM  C11S11495   4.720   1.679   4.085 -0.7144 -0.0024 -0.0076
   8623SM  H11S11496   4.660   1.772   4.077 -1.0834 -0.1375  0.9784
   8623SM  H11T11497   4.820   1.703   4.043 -0.2583 -0.4834  0.7814
   8623SM  C12S11498   4.735   1.640   4.231 -0.9847 -0.5632 -0.1493
   8623SM  H12S11499   4.757   1.531   4.240 -2.3237 -0.7095  2.3036
   8623SM  H12T11500   4.633   1.645   4.274 -0.9547 -2.2840  0.2142
   8623SM  C13S11501   4.844   1.722   4.310 -0.1168 -0.0790 -0.0185
   8623SM  H13S11502   4.812   1.828   4.310 -1.4588 -0.3657 -3.0572
   8623SM  H13T11503   4.933   1.708   4.244 -1.4016 -0.1055 -1.8214
   8623SM  C14S11504   4.866   1.679   4.453 -0.3324  0.0554  0.4971
   8623SM  H14S11505   4.887   1.572   4.472  0.8746  0.2129  0.1241
   8623SM  H14T11506   4.772   1.695   4.511 -1.7674  0.7732 -1.8747
   8623SM  C15S11507   4.989   1.747   4.521 -0.0945 -0.2399  0.4396
   8623SM  H15S11508   4.973   1.857   4.533  0.2925  0.0255 -1.2619
   8623SM  H15T11509   5.077   1.732   4.455  0.3218  3.0018  0.0705
   8623SM  C16S11510   5.023   1.686   4.656 -0.2712 -0.5063  0.0127
   8623SM  H16S11511   5.029   1.576   4.641 -1.1354 -0.5033 -0.4233
   8623SM  H16T11512   4.943   1.715   4.727  0.6792  0.2179  0.8189
   8623SM  C17S11513   5.160   1.723   4.710  0.1903  0.0209 -0.1008
   8623SM  H17S11514   5.168   1.833   4.725 -1.8799  0.6913 -3.1047
   8623SM  H17T11515   5.248   1.692   4.650  2.3262 -1.2584  3.3702
   8623SM  C18S11516   5.197   1.670   4.850 -0.5777 -0.1038  0.0722
   8623SM  H18S11517   5.243   1.570   4.840  0.9038  0.6386 -0.9002
   8623SM  H18T11518   5.109   1.669   4.917 -0.8425 -2.1051 -0.2648
   8623SM  H18U11519   5.275   1.736   4.895 -1.6208  0.5020  1.0409
   8623SM   C1F11520   4.155   1.962   3.319  0.0109 -0.4344  0.8122
   8623SM    OF11521   4.041   1.918   3.300 -0.0188 -0.0394 -0.2582
   8623SM   C2F11522   4.173   2.095   3.374 -0.4046 -0.1987  0.0354
   8623SM   H2F11523   4.147   2.171   3.297 -1.7886 -0.6820 -0.0073
   8623SM   H2G11524   4.279   2.104   3.404 -0.3329  1.1612 -0.5577
   8623SM   C3F11525   4.088   2.119   3.509  0.1373 -0.8136  0.7990
   8623SM   H3F11526   3.981   2.095   3.491  0.3909 -2.8738  1.7277
   8623SM   H3G11527   4.093   2.229   3.523 -1.0663 -0.9771  2.9390
   8623SM   C4F11528   4.142   2.041   3.624  0.3815 -0.6304  0.3306
   8623SM   H4F11529   4.250   2.064   3.632  0.6606 -2.2646  1.5509
   8623SM   H4G11530   4.135   1.932   3.602 -0.2701 -1.0948  2.6049
   8623SM   C5F11531   4.080   2.070   3.754  0.3367  0.3046 -0.4779
   8623SM   H5F11532   3.973   2.040   3.749  0.1492  0.6513  1.0052
   8623SM   H5G11533   4.067   2.179   3.769 -0.2553  0.2911 -0.8483
   8623SM   C6F11534   4.156   2.027   3.885  0.2472 -0.3037 -0.1053
   8623SM   H6F11535   4.116   2.090   3.967 -0.2383 -0.2511 -0.3812
   8623SM   H6G11536   4.261   2.061   3.870 -0.7805  3.2498 -0.0113
   8623SM   C7F11537   4.157   1.879   3.915  0.3976 -0.2068 -0.0267
   8623SM   H7F11538   4.164   1.843   3.810 -0.4451 -0.6478  0.0534
   8623SM   H7G11539   4.058   1.850   3.958  0.4694 -1.5095 -0.6788
   8623SM   C8F11540   4.277   1.839   4.004 -0.0567 -0.2332  0.0417
   8623SM   H8F11541   4.367   1.868   3.946 -0.8396 -0.1738 -1.1973
   8623SM   H8G11542   4.274   1.728   4.010 -0.7906 -0.3021 -1.1791
   8623SM   C9F11543   4.282   1.907   4.142  0.0333  0.0734 -0.6109
   8623SM   H9F11544   4.184   1.901   4.195  1.1068 -0.6616  1.4144
   8623SM   H9G11545   4.297   2.015   4.121 -1.8050  0.4217 -0.3556
   8623SM  C10F11546   4.402   1.854   4.214 -0.3967  0.2074 -0.0380
   8623SM  H10F11547   4.495   1.860   4.153 -0.4478  0.8861 -0.0535
   8623SM  H10G11548   4.380   1.749   4.243 -4.0329  1.1351  1.1134
   8623SM  C11F11549   4.426   1.927   4.349  0.1134 -0.4207  0.2981
   8623SM  H11F11550   4.327   1.945   4.395  0.2079  2.7076 -0.4343
   8623SM  H11G11551   4.454   2.033   4.332 -2.4600  0.4279  0.8549
   8623SM  C12F11552   4.521   1.867   4.446 -0.1269  0.3606 -0.4602
   8623SM  H12F11553   4.628   1.862   4.414 -0.3976 -2.9211 -1.1948
   8623SM  H12G11554   4.483   1.765   4.466 -1.2167  0.8875  0.2120
   8623SM  C13F11555   4.537   1.958   4.569  0.3247 -0.0960  0.1987
   8623SM  H13F11556   4.444   1.950   4.628  0.5683  0.8774  0.7343
   8623SM  H13G11557   4.565   2.059   4.532  2.1908 -1.0404 -1.0826
   8623SM  C14F11558   4.660   1.923   4.657 -0.7644  0.2648 -0.0923
   8623SM  H14F11559   4.756   1.941   4.605  0.0113 -0.2826  1.0896
   8623SM  H14G11560   4.657   1.815   4.685  1.0487  0.0826 -0.5313
   8623SM  C15F11561   4.673   2.009   4.783 -0.1063  0.5537  0.1013
   8623SM  H15F11562   4.576   2.036   4.830 -0.4811  2.7853 -1.8078
   8623SM  H15G11563   4.710   2.107   4.748 -0.7117  0.3146 -1.2846
   8623SM  C16F11564   4.774   1.948   4.888  0.1757  0.7281 -0.7919
   8623SM  H16F11565   4.877   1.959   4.848  0.6018 -0.3984 -0.0375
   8623SM  H16G11566   4.743   1.843   4.901  1.0523  0.3255 -1.7875
   8623SM  C17F11567   4.775   2.019   5.025 -0.3614 -0.5041  0.4806
   8623SM  H17F11568   4.670   2.042   5.052 -0.6375 -1.7036  0.4607
   8623SM  H17G11569   4.831   2.115   5.017 -2.0874  0.4084 -2.1566
   8623SM  C18F11570   4.822   1.936   5.136 -0.3385 -0.0304 -0.2525
   8623SM  H18F11571   4.915   1.880   5.114 -0.9012 -1.0713 -0.0198
   8623SM  H18G11572   4.752   1.850   5.145  0.3440 -0.6365 -0.6996
   8623SM  C19F11573   4.810   1.997   5.273  0.9907  0.4349 -0.3481
   8623SM  H19F11574   4.797   1.912   5.344 -2.4991  1.6216  0.6626
   8623SM  H19G11575   4.717   2.058   5.282  0.7610 -0.1731  1.8932
   8623SM  C20F11576   4.922   2.089   5.314  0.2525  0.5519 -0.4028
   8623SM  H20F11577   4.926   2.174   5.242  0.1852 -0.6290 -1.8384
   8623SM  H20G11578   5.015   2.028   5.313  0.3668  0.7200 -0.2030
   8623SM  C21F11579   4.907   2.157   5.451 -0.0505 -0.5512 -0.1426
   8623SM  H21F11580   4.808   2.204   5.473 -0.1010 -0.6314 -0.2002
   8623SM  H21G11581   4.983   2.238   5.451  0.8389 -1.3689 -1.3349
   8623SM  C22F11582   4.939   2.068   5.573 -0.2955 -0.1616  0.1828
   8623SM  H22F11583   5.033   2.012   5.549 -0.1352  0.6973 -1.2921
   8623SM  H22G11584   4.854   1.998   5.585 -0.4635  0.1966  1.1229
   8623SM  C23F11585   4.944   2.141   5.702  0.2478 -0.0853  0.1389
   8623SM  H23F11586   4.841   2.176   5.725  0.6579  0.8294  0.6514
   8623SM  H23G11587   5.030   2.207   5.726 -0.7074  1.2037  0.1052
   8623SM  H23H11588   4.951   2.069   5.786 -0.3871 -0.8724 -0.4633
   8723SM     N11589   4.388   1.657   2.419  1.1574  0.3267 -0.9083
   8723SM   C1511590   4.248   1.676   2.469  0.1975 -0.0119  0.2799
   8723SM  H15A11591   4.175   1.685   2.389 -0.4116 -3.6911  0.2492
   8723SM  H15B11592   4.236   1.758   2.538  1.4504  0.5828 -0.1865
   8723SM  H15C11593   4.214   1.594   2.530 -0.1655  1.7721  2.6258
   8723SM   C1411594   4.378   1.547   2.315 -0.5527  0.2666 -0.2349
   8723SM  H14A11595   4.477   1.527   2.275 -0.3748 -0.2196  0.4135
   8723SM  H14B11596   4.307   1.564   2.237 -1.6847 -0.6788  0.5595
   8723SM  H14C11597   4.355   1.454   2.366  0.3584  1.2511  2.1203
   8723SM   C1311598   4.440   1.777   2.350 -0.3810 -0.0394  0.1722
   8723SM  H13A11599   4.435   1.862   2.415  0.3891  1.4364 -1.6048
   8723SM  H13B11600   4.374   1.788   2.265 -0.5529 -0.2158  0.2806
   8723SM  H13C11601   4.536   1.752   2.307  0.7548 -1.2419  3.1364
   8723SM   C1211602   4.489   1.625   2.530  0.5105 -0.3462  0.0451
   8723SM  H12A11603   4.501   1.718   2.584  2.1457  0.0097 -0.8845
   8723SM  H12B11604   4.586   1.613   2.485  0.5001 -3.0824  0.5534
   8723SM   C1111605   4.451   1.524   2.626 -0.6213  0.0668  0.2914
   8723SM  H11A11606   4.361   1.555   2.685 -0.7195  2.2124 -0.8536
   8723SM  H11B11607   4.537   1.518   2.696 -0.0313  1.6150 -0.2419
   8723SM     P11608   4.513   1.267   2.607  0.1777 -0.2897  0.2701
   8723SM   O1311609   4.425   1.146   2.601  0.3049  0.3736 -0.4756
   8723SM   O1411610   4.633   1.257   2.517  0.0597 -0.0787  0.1173
   8723SM   O1111611   4.568   1.284   2.752  0.2798  0.4951  0.5027
   8723SM   O1211612   4.425   1.397   2.565 -0.1998  0.7358 -0.1781
   8723SM   C1S11613   4.493   1.275   2.870  0.9093  0.1388  0.1894
   8723SM   H1S11614   4.457   1.171   2.886  0.4413  0.0699 -1.2011
   8723SM   H1T11615   4.408   1.346   2.866  0.7648  0.0105  0.9311
   8723SM    NF11616   4.485   1.315   3.109  0.3774 -0.0071 -0.4840
   8723SM   HNF11617   4.434   1.398   3.131  1.0240  0.1873  0.3022
   8723SM   C2S11618   4.579   1.313   2.998  0.0941 -0.2725  0.8656
   8723SM   H2S11619   4.659   1.240   3.023  0.2541 -0.3165  0.2356
   8723SM   C3S11620   4.657   1.453   2.974  0.0349  0.1100  0.3257
   8723SM   H3S11621   4.582   1.529   2.943 -1.0335 -1.7946 -2.0868
   8723SM    O311622   4.755   1.429   2.874 -0.1365 -0.8191 -0.1889
   8723SM   HO311623   4.713   1.379   2.803 -0.6382  2.3014 -2.2969
   8723SM   C4S11624   4.722   1.490   3.100  0.0889 -0.2224  0.0077
   8723SM   H4S11625   4.791   1.414   3.139  1.1987  1.1082  0.7264
   8723SM   C5S11626   4.704   1.604   3.169 -0.4236  0.4587 -0.0110
   8723SM   H5S11627   4.636   1.676   3.121 -1.9223 -0.8107  0.1361
   8723SM   C6S11628   4.789   1.654   3.289  0.0946  0.0875 -0.0738
   8723SM   H6S11629   4.713   1.695   3.359 -0.7504  0.4569 -1.1701
   8723SM   H6T11630   4.857   1.736   3.258  1.0435  0.4604  2.7037
   8723SM   C7S11631   4.868   1.550   3.374 -0.1547 -0.5912 -0.6613
   8723SM   H7S11632   4.946   1.495   3.317  2.1533  2.5153 -0.7569
   8723SM   H7T11633   4.794   1.474   3.408 -1.4680  0.2881 -1.4399
   8723SM   C8S11634   4.912   1.618   3.507  1.4176 -0.1500 -0.0189
   8723SM   H8S11635   4.830   1.672   3.558  1.2713  0.1137 -0.5243
   8723SM   H8T11636   4.992   1.695   3.494 -0.1912  1.5469 -0.3366
   8723SM   C9S11637   4.961   1.521   3.612  0.3540  0.2067  0.3667
   8723SM   H9S11638   5.030   1.445   3.570 -0.2238 -0.7690  1.1481
   8723SM   H9T11639   4.877   1.456   3.644 -0.4676  1.6256  1.1811
   8723SM  C10S11640   5.024   1.588   3.734 -0.1851  0.3535  0.1906
   8723SM  H10S11641   4.954   1.660   3.781  0.8721  1.6003 -0.1075
   8723SM  H10T11642   5.118   1.636   3.700 -0.3724 -0.1415 -1.0616
   8723SM  C11S11643   5.055   1.493   3.849 -0.3762  0.8019  0.8005
   8723SM  H11S11644   5.105   1.401   3.812 -3.2352 -0.4818 -0.1261
   8723SM  H11T11645   4.955   1.454   3.880  0.1377 -2.4901 -1.1316
   8723SM  C12S11646   5.121   1.551   3.973  0.1685 -0.4704  0.1966
   8723SM  H12S11647   5.057   1.635   4.007 -1.7838 -1.4676 -0.8141
   8723SM  H12T11648   5.220   1.588   3.939 -0.5801  1.3245 -0.1685
   8723SM  C13S11649   5.113   1.469   4.103 -0.4496 -0.3376 -0.6672
   8723SM  H13S11650   5.173   1.378   4.085 -0.6813 -0.3991 -1.1301
   8723SM  H13T11651   5.007   1.455   4.132 -0.8695  1.6678 -1.0675
   8723SM  C14S11652   5.190   1.548   4.208  0.1932  0.2942  0.8724
   8723SM  H14S11653   5.135   1.630   4.259 -1.3787 -0.7289  0.9186
   8723SM  H14T11654   5.270   1.602   4.155  1.8191 -2.0367  0.7798
   8723SM  C15S11655   5.260   1.457   4.314 -0.1757  0.4014  0.0913
   8723SM  H15S11656   5.328   1.523   4.371 -1.6884  1.3171  0.9206
   8723SM  H15T11657   5.328   1.380   4.273 -0.5400 -1.6200  2.9546
   8723SM  C16S11658   5.166   1.388   4.411  0.0474 -0.3874  0.1583
   8723SM  H16S11659   5.127   1.291   4.374  2.2694 -1.6888  0.9993
   8723SM  H16T11660   5.081   1.455   4.436  1.4591  1.5080  0.1428
   8723SM  C17S11661   5.232   1.349   4.551  0.1960 -0.6397  0.3996
   8723SM  H17S11662   5.278   1.431   4.610  2.0999 -2.2645  1.2958
   8723SM  H17T11663   5.317   1.281   4.526  0.1416 -0.4932 -0.1931
   8723SM  C18S11664   5.129   1.282   4.645  0.5341  0.0419  0.0982
   8723SM  H18S11665   5.053   1.351   4.689 -1.9797 -1.8378 -1.0407
   8723SM  H18T11666   5.189   1.246   4.731 -1.1214  1.7147  2.0768
   8723SM  H18U11667   5.074   1.200   4.594  2.5166 -0.5671 -1.1901
   8723SM   C1F11668   4.443   1.191   3.158 -0.3523  0.7288  0.7451
   8723SM    OF11669   4.483   1.091   3.096  0.1171 -0.3386  0.2264
   8723SM   C2F11670   4.350   1.180   3.279 -0.2684 -0.0807  0.4107
   8723SM   H2F11671   4.249   1.213   3.246 -1.6846 -3.3520  1.0454
   8723SM   H2G11672   4.390   1.247   3.358 -2.4678  2.2566 -0.3465
   8723SM   C3F11673   4.328   1.034   3.342 -0.3141  0.0084 -0.2621
   8723SM   H3F11674   4.427   0.998   3.378 -1.3680 -2.2644  0.5101
   8723SM   H3G11675   4.277   0.968   3.270 -0.7126 -0.1090  0.1301
   8723SM   C4F11676   4.226   1.036   3.471 -0.0453 -0.0103 -0.0591
   8723SM   H4F11677   4.227   0.930   3.506  2.9439  0.3603  1.3040
   8723SM   H4G11678   4.125   1.064   3.436 -0.2730 -1.1001 -0.3226
   8723SM   C5F11679   4.280   1.124   3.579 -0.3984  0.2293  0.2000
   8723SM   H5F11680   4.291   1.230   3.547 -0.7284  0.3258  0.4007
   8723SM   H5G11681   4.386   1.095   3.591 -0.4668  0.2894  1.0031
   8723SM   C6F11682   4.224   1.113   3.719 -0.3001  0.3034  0.4579
   8723SM   H6F11683   4.258   1.018   3.766 -0.7821 -1.0543 -1.7776
   8723SM   H6G11684   4.117   1.088   3.701  0.6176 -1.9436 -2.8906
   8723SM   C7F11685   4.258   1.231   3.809 -0.1255  0.7192  0.2676
   8723SM   H7F11686   4.222   1.320   3.753 -1.6147 -0.8203 -1.3637
   8723SM   H7G11687   4.368   1.229   3.823 -0.0120 -0.8354 -0.6171
   8723SM   C8F11688   4.184   1.219   3.945  0.1687 -0.0254 -0.2841
   8723SM   H8F11689   4.198   1.112   3.968 -0.1554 -0.2696 -1.1681
   8723SM   H8G11690   4.074   1.222   3.927  0.1858  0.6178 -0.3214
   8723SM   C9F11691   4.234   1.325   4.053  0.9820 -0.0682  0.1279
   8723SM   H9F11692   4.166   1.337   4.139  2.0116 -0.2977  0.9916
   8723SM   H9G11693   4.246   1.426   4.008 -1.3744  1.8120  3.3186
   8723SM  C10F11694   4.354   1.270   4.124  0.3326  0.2358  0.2208
   8723SM  H10F11695   4.442   1.276   4.056  1.2239  1.7224  1.4330
   8723SM  H10G11696   4.335   1.161   4.139  2.3625 -0.9091 -4.0070
   8723SM  C11F11697   4.386   1.355   4.248 -0.2656 -0.6534 -0.7315
   8723SM  H11F11698   4.304   1.336   4.321 -0.3678  2.3907  0.1030
   8723SM  H11G11699   4.400   1.462   4.220 -1.5624 -0.1200  0.5297
   8723SM  C12F11700   4.518   1.302   4.305 -0.7614  0.1654 -0.2792
   8723SM  H12F11701   4.606   1.315   4.238  1.1889 -2.9789  1.4292
   8723SM  H12G11702   4.496   1.197   4.332 -2.7045  0.3535 -0.9642
   8723SM  C13F11703   4.562   1.368   4.436  0.6125 -0.1859  0.3836
   8723SM  H13F11704   4.496   1.352   4.525 -0.8257 -1.6822 -0.9016
   8723SM  H13G11705   4.565   1.478   4.420  0.9771 -0.2811 -0.2041
   8723SM  C14F11706   4.703   1.322   4.476  0.6932 -0.6148 -0.0718
   8723SM  H14F11707   4.780   1.375   4.416  0.4370 -1.2021 -0.9522
   8723SM  H14G11708   4.714   1.217   4.441 -0.5047 -0.9133  0.4026
   8723SM  C15F11709   4.724   1.333   4.624  0.8261  0.1128 -0.1828
   8723SM  H15F11710   4.831   1.307   4.636  0.5906 -1.1117 -0.6424
   8723SM  H15G11711   4.662   1.254   4.672 -0.0007 -0.2985 -1.8795
   8723SM  C16F11712   4.717   1.465   4.692 -0.0828 -0.1620  0.1617
   8723SM  H16F11713   4.624   1.515   4.660  0.4499  0.9267  0.2884
   8723SM  H16G11714   4.798   1.532   4.656 -1.8474  1.5614 -0.7242
   8723SM  C17F11715   4.720   1.463   4.839 -0.4413  0.5295 -0.4691
   8723SM  H17F11716   4.622   1.422   4.874 -0.1795  0.0251 -0.3254
   8723SM  H17G11717   4.736   1.561   4.889  1.4945 -0.0513  0.1156
   8723SM  C18F11718   4.838   1.382   4.894  0.3799  0.3643 -0.0036
   8723SM  H18F11719   4.929   1.444   4.885  1.0498 -0.7343 -1.1059
   8723SM  H18G11720   4.848   1.283   4.845  0.8932  0.7029 -0.5948
   8723SM  C19F11721   4.816   1.349   5.042  0.9844 -0.1824 -0.2122
   8723SM  H19F11722   4.713   1.308   5.049 -0.2201  2.4064 -1.4141
   8723SM  H19G11723   4.808   1.446   5.095 -5.0100 -0.4877  0.1265
   8723SM  C20F11724   4.924   1.255   5.097  0.2019 -0.3275  0.6188
   8723SM  H20F11725   5.014   1.282   5.038 -1.0483  0.8497 -0.8239
   8723SM  H20G11726   4.907   1.153   5.054  0.4546 -0.2607  0.3582
   8723SM  C21F11727   4.933   1.250   5.248 -0.2773 -0.7081  0.0814
   8723SM  H21F11728   4.852   1.186   5.291 -0.9717 -0.9470 -1.4804
   8723SM  H21G11729   4.923   1.354   5.285 -2.2478 -1.3115  1.4457
   8723SM  C22F11730   5.067   1.200   5.291  0.4521  0.1969 -0.2748
   8723SM  H22F11731   5.152   1.257   5.248  2.1471 -1.3732  0.8443
   8723SM  H22G11732   5.083   1.094   5.260  0.9166 -0.5093  2.1955
   8723SM  C23F11733   5.080   1.204   5.439 -0.5424  0.5885  0.4841
   8723SM  H23F11734   5.035   1.120   5.497  2.2067  0.9267  3.3109
   8723SM  H23G11735   5.029   1.291   5.485 -0.2548  1.0994 -0.1509
   8723SM  H23H11736   5.187   1.208   5.467 -0.0731  0.6729 -1.1820
   8823SM     N11737   2.884   1.092   2.299  0.0436  0.3641  0.3456
   8823SM   C1511738   3.000   1.128   2.381  0.6913 -0.5035 -0.0201
   8823SM  H15A11739   3.074   1.179   2.321  0.3300  0.1638  0.0863
   8823SM  H15B11740   3.046   1.043   2.429  1.4147  0.0812  0.3518
   8823SM  H15C11741   2.975   1.197   2.460  1.7322  0.5098 -0.5436
   8823SM   C1411742   2.778   1.039   2.389 -0.1561  0.2071 -0.1793
   8823SM  H14A11743   2.707   0.988   2.326 -0.1477 -0.0209 -0.0066
   8823SM  H14B11744   2.735   1.126   2.436 -0.9084  0.6351 -1.6172
   8823SM  H14C11745   2.818   0.968   2.460  1.0334 -0.5665 -1.5762
   8823SM   C1311746   2.833   1.213   2.221  0.0479  0.3041  0.4024
   8823SM  H13A11747   2.785   1.288   2.283  0.8530 -1.7591  3.8112
   8823SM  H13B11748   2.752   1.188   2.154 -0.6202  0.3373  1.1713
   8823SM  H13C11749   2.908   1.257   2.158 -0.3029  1.7560  0.9553
   8823SM   C1211750   2.926   0.988   2.195  0.4923  0.1394  0.3777
   8823SM  H12A11751   3.031   0.998   2.175  0.5125  0.2264  0.5256
   8823SM  H12B11752   2.870   1.002   2.104 -2.1566  1.2102  2.0455
   8823SM   C1111753   2.905   0.839   2.233  0.8173  0.6116  0.0279
   8823SM  H11A11754   2.942   0.813   2.335 -1.6503 -2.0951  0.3620
   8823SM  H11B11755   2.958   0.771   2.163  1.1624 -0.5798  1.3994
   8823SM     P11756   2.704   0.675   2.276  0.5773 -0.1936  0.0013
   8823SM   O1311757   2.557   0.672   2.250 -0.1228 -0.3529  0.3014
   8823SM   O1411758   2.780   0.570   2.207  0.1546  0.0741  0.7758
   8823SM   O1111759   2.742   0.689   2.429  0.1591  0.1973 -0.1958
   8823SM   O1211760   2.766   0.811   2.224  0.1212  0.9961 -0.1617
   8823SM   C1S11761   2.721   0.574   2.516 -0.1427 -0.5777 -0.2894
   8823SM   H1S11762   2.794   0.495   2.490 -1.0600 -1.9441  1.0984
   8823SM   H1T11763   2.621   0.527   2.504 -0.2142  0.0170 -2.5733
   8823SM    NF11764   2.741   0.480   2.752  0.0969  0.3515  0.3852
   8823SM   HNF11765   2.665   0.487   2.816 -0.5361 -0.2859 -0.2701
   8823SM   C2S11766   2.744   0.596   2.670 -0.7452  0.2859  0.2716
   8823SM   H2S11767   2.846   0.640   2.672 -1.2225  1.5153 -1.0226
   8823SM   C3S11768   2.649   0.715   2.719 -0.2514  0.0766 -0.5113
   8823SM   H3S11769   2.542   0.685   2.732 -0.3042  0.6247  0.3881
   8823SM    O311770   2.630   0.821   2.627 -0.1836  0.1605 -0.3357
   8823SM   HO311771   2.652   0.773   2.546  1.7041  0.0938  0.1698
   8823SM   C4S11772   2.688   0.763   2.857 -0.2938 -0.0568 -0.1762
   8823SM   H4S11773   2.661   0.697   2.942 -0.2713  1.9306  1.4492
   8823SM   C5S11774   2.776   0.866   2.884  0.0881 -0.1884 -0.1215
   8823SM   H5S11775   2.809   0.936   2.806  0.2253 -0.1123  0.0036
   8823SM   C6S11776   2.806   0.906   3.027 -0.0643  0.1413  0.1666
   8823SM   H6S11777   2.819   1.015   3.011 -1.1905  0.1296 -1.0034
   8823SM   H6T11778   2.903   0.859   3.051 -0.2913  0.0955  1.0373
   8823SM   C7S11779   2.697   0.885   3.132  0.1093  0.2885 -0.1515
   8823SM   H7S11780   2.671   0.778   3.148  0.4729  0.4677  1.9223
   8823SM   H7T11781   2.595   0.924   3.111 -1.2374 -1.3566  2.7397
   8823SM   C8S11782   2.742   0.931   3.274  0.1718 -0.6636  1.0666
   8823SM   H8S11783   2.772   1.038   3.266 -0.1330 -0.7234 -1.8023
   8823SM   H8T11784   2.829   0.870   3.306  0.3496 -0.3794  1.1292
   8823SM   C9S11785   2.632   0.914   3.376  0.9822 -0.1859  0.1907
   8823SM   H9S11786   2.599   0.808   3.385  0.7310 -0.3979 -2.4027
   8823SM   H9T11787   2.539   0.964   3.342  0.1959 -1.5509  0.2336
   8823SM  C10S11788   2.673   0.970   3.514  0.9035  0.7392  0.1142
   8823SM  H10S11789   2.665   1.080   3.522  0.6819  0.7795 -0.6156
   8823SM  H10T11790   2.777   0.936   3.534  0.5172 -1.2773 -1.0268
   8823SM  C11S11791   2.594   0.913   3.637 -0.2337  0.0599  0.0715
   8823SM  H11S11792   2.582   0.803   3.638 -0.1585  0.0433  1.4654
   8823SM  H11T11793   2.492   0.957   3.629  0.3220  1.4458  0.2499
   8823SM  C12S11794   2.644   0.951   3.779 -0.0414 -0.1702 -0.4471
   8823SM  H12S11795   2.634   1.061   3.785  1.5072 -0.0870  1.1035
   8823SM  H12T11796   2.752   0.924   3.782 -0.6543 -2.8532  0.6851
   8823SM  C13S11797   2.585   0.871   3.892  0.0021  0.1971  1.0091
   8823SM  H13S11798   2.586   0.761   3.874 -0.3495 -0.0947  2.6099
   8823SM  H13T11799   2.481   0.908   3.907  0.4966  0.9483  2.8264
   8823SM  C14S11800   2.668   0.902   4.017 -0.2516  0.3937  0.4675
   8823SM  H14S11801   2.679   1.012   4.028  2.5180  0.3239 -0.7910
   8823SM  H14T11802   2.763   0.849   3.997 -0.8705 -0.7273  0.3979
   8823SM  C15S11803   2.616   0.830   4.143 -0.0665  0.0344 -0.3137
   8823SM  H15S11804   2.581   0.728   4.114 -0.0648 -0.0254 -0.1083
   8823SM  H15T11805   2.512   0.864   4.164  0.5652  0.6327  2.1116
   8823SM  C16S11806   2.715   0.828   4.263 -0.1348  0.1072 -0.5538
   8823SM  H16S11807   2.736   0.932   4.297 -2.1586  0.3793  0.0187
   8823SM  H16T11808   2.811   0.783   4.229 -0.3894 -1.3725  0.5853
   8823SM  C17S11809   2.672   0.729   4.377  0.5146 -0.6149  0.6243
   8823SM  H17S11810   2.622   0.639   4.336 -0.7150  1.1567 -2.1034
   8823SM  H17T11811   2.592   0.784   4.430 -1.2543 -1.5064 -0.9885
   8823SM  C18S11812   2.788   0.696   4.470  0.9972 -0.5633 -0.4365
   8823SM  H18S11813   2.762   0.628   4.553 -0.8317  0.8877  0.2414
   8823SM  H18T11814   2.833   0.787   4.517  0.0901 -0.1333 -0.3775
   8823SM  H18U11815   2.878   0.656   4.418  2.8321 -0.0033  2.0916
   8823SM   C1F11816   2.838   0.389   2.752  1.2862  0.2594  0.0770
   8823SM    OF11817   2.917   0.371   2.660 -0.4265  0.1189  0.3389
   8823SM   C2F11818   2.836   0.291   2.873 -0.2885  0.1269 -0.4339
   8823SM   H2F11819   2.776   0.200   2.852  1.0430 -0.7286 -0.6867
   8823SM   H2G11820   2.787   0.350   2.953  0.6404 -0.3155  0.4841
   8823SM   C3F11821   2.971   0.238   2.914  0.1939  0.1454  0.3962
   8823SM   H3F11822   3.022   0.184   2.831  1.8252  0.6632  1.0211
   8823SM   H3G11823   2.959   0.162   2.994  0.9281  1.0290  1.3668
   8823SM   C4F11824   3.072   0.348   2.950 -0.6141 -0.0726 -0.0296
   8823SM   H4F11825   3.109   0.398   2.858  1.6624  0.1892  0.9605
   8823SM   H4G11826   3.166   0.293   2.973 -0.3858 -0.5563 -1.9216
   8823SM   C5F11827   3.024   0.444   3.051 -0.2242  0.0728 -0.2290
   8823SM   H5F11828   2.981   0.382   3.132  1.9528 -1.0318  0.1600
   8823SM   H5G11829   2.944   0.510   3.010  2.1051  3.6600  0.5994
   8823SM   C6F11830   3.129   0.525   3.122  0.1063  0.4787 -0.3700
   8823SM   H6F11831   3.167   0.611   3.063 -1.0046  0.6420 -0.8631
   8823SM   H6G11832   3.222   0.464   3.127  0.8031  0.9184 -4.5094
   8823SM   C7F11833   3.085   0.576   3.266  0.8671 -0.0321 -0.6146
   8823SM   H7F11834   3.102   0.502   3.347  0.4112  1.5549  1.0065
   8823SM   H7G11835   2.980   0.609   3.247  1.0297 -0.4505 -2.4670
   8823SM   C8F11836   3.173   0.687   3.314 -0.6440  0.0283  0.6700
   8823SM   H8F11837   3.152   0.767   3.240  2.0536  0.7306  0.5376
   8823SM   H8G11838   3.280   0.659   3.301 -0.5873  0.8649 -0.9377
   8823SM   C9F11839   3.145   0.744   3.458 -0.5179  0.1387 -0.5570
   8823SM   H9F11840   3.182   0.674   3.536  0.8299 -0.4472 -1.6666
   8823SM   H9G11841   3.036   0.758   3.478 -0.9541 -0.1732 -2.5124
   8823SM  C10F11842   3.213   0.886   3.471  0.1208  0.2910 -0.8552
   8823SM  H10F11843   3.173   0.954   3.392 -0.0650  1.2707  0.0623
   8823SM  H10G11844   3.320   0.870   3.449  0.0648 -0.0536 -0.8927
   8823SM  C11F11845   3.178   0.956   3.605 -0.6602  0.6871 -0.7023
   8823SM  H11F11846   3.067   0.961   3.607 -0.7075 -0.0397 -0.9971
   8823SM  H11G11847   3.214   1.061   3.606  0.9967  0.1849  2.0216
   8823SM  C12F11848   3.230   0.889   3.734 -0.5407 -0.6363  0.2035
   8823SM  H12F11849   3.341   0.881   3.734 -0.1128  3.2910  1.0795
   8823SM  H12G11850   3.200   0.782   3.740 -0.5961 -0.8041 -2.2302
   8823SM  C13F11851   3.200   0.954   3.878  0.4036 -0.4250  0.1455
   8823SM  H13F11852   3.090   0.969   3.880  0.1509 -2.0483 -0.0533
   8823SM  H13G11853   3.244   1.056   3.875 -1.5387  0.4265 -0.5397
   8823SM  C14F11854   3.251   0.883   4.006  0.5386  0.3530  0.3745
   8823SM  H14F11855   3.361   0.889   3.994  0.5223  1.4636  0.6399
   8823SM  H14G11856   3.229   0.774   3.998  0.0699  0.5035 -0.6046
   8823SM  C15F11857   3.186   0.943   4.134  0.8439 -0.4429  0.0580
   8823SM  H15F11858   3.077   0.945   4.118  0.8742  0.6161 -0.0660
   8823SM  H15G11859   3.226   1.045   4.150 -0.6685  0.0896  0.5964
   8823SM  C16F11860   3.210   0.864   4.261 -0.3849  0.8914  0.4107
   8823SM  H16F11861   3.317   0.835   4.255 -0.2653  1.4728 -0.6027
   8823SM  H16G11862   3.151   0.770   4.266 -2.2445  1.9141 -0.6880
   8823SM  C17F11863   3.188   0.945   4.386  0.2812  0.4415 -0.3284
   8823SM  H17F11864   3.082   0.942   4.418  0.2996 -2.2750 -0.2935
   8823SM  H17G11865   3.225   1.046   4.356 -0.8492  0.3845 -2.0376
   8823SM  C18F11866   3.261   0.901   4.509  0.1761 -0.4713 -0.0035
   8823SM  H18F11867   3.368   0.899   4.480  0.9096 -0.2760  2.4434
   8823SM  H18G11868   3.237   0.796   4.538 -2.2381  0.4712  1.7977
   8823SM  C19F11869   3.235   1.002   4.618 -0.0812 -0.2614 -0.8906
   8823SM  H19F11870   3.126   1.023   4.631  0.1279  0.8492 -0.8328
   8823SM  H19G11871   3.282   1.100   4.595 -0.8227  0.8535  1.8161
   8823SM  C20F11872   3.275   0.943   4.756  0.3399 -0.7925 -0.1434
   8823SM  H20F11873   3.209   0.857   4.782 -2.0771  1.2195  0.8415
   8823SM  H20G11874   3.237   1.025   4.821 -0.2128 -0.7195 -0.5523
   8823SM  C21F11875   3.419   0.920   4.778 -0.5323 -0.2974 -0.0328
   8823SM  H21F11876   3.473   1.003   4.727 -0.2165  0.2068  1.0852
   8823SM  H21G11877   3.452   0.837   4.712 -0.1041  1.1562 -1.7596
   8823SM  C22F11878   3.462   0.893   4.917  0.0652  0.4294 -0.0392
   8823SM  H22F11879   3.558   0.838   4.921  0.1303  0.5729  0.7447
   8823SM  H22G11880   3.379   0.833   4.960 -0.7301  1.4604 -0.0789
   8823SM  C23F11881   3.478   1.014   5.003 -0.1779  0.2368  0.0398
   8823SM  H23F11882   3.513   0.980   5.103  0.2480  1.0844  0.1927
   8823SM  H23G11883   3.381   1.069   5.009 -1.0328 -1.2537  0.3195
   8823SM  H23H11884   3.551   1.080   4.951 -0.7312  1.2017  0.4621
   8923SM     N11885   7.470   0.810   2.721  0.0990 -0.3103  0.0890
   8923SM   C1511886   7.593   0.804   2.645 -0.4317 -0.4925  0.4100
   8923SM  H15A11887   7.649   0.896   2.636 -0.8713 -0.3622 -1.7096
   8923SM  H15B11888   7.567   0.784   2.542 -1.8699 -1.9223  1.0018
   8923SM  H15C11889   7.648   0.714   2.670  2.4831  0.5260 -1.7574
   8923SM   C1411890   7.408   0.669   2.708 -0.1076  0.2326  0.0789
   8923SM  H14A11891   7.323   0.665   2.774 -0.1562  0.1971  0.0150
   8923SM  H14B11892   7.491   0.609   2.742 -0.9769 -1.0906 -0.0650
   8923SM  H14C11893   7.379   0.655   2.605  3.0588  1.0419 -1.0488
   8923SM   C1311894   7.512   0.828   2.860 -0.1444  0.2540 -0.0627
   8923SM  H13A11895   7.609   0.788   2.883  0.1612  1.7974  1.5682
   8923SM  H13B11896   7.433   0.789   2.922 -1.5868  0.1765 -1.8674
   8923SM  H13C11897   7.522   0.935   2.870 -1.8451  0.6618 -1.9796
   8923SM   C1211898   7.373   0.920   2.680  0.0208  0.2336  0.2332
   8923SM  H12A11899   7.353   0.910   2.574  0.4430  0.4038  0.1352
   8923SM  H12B11900   7.427   1.013   2.688  1.5364 -0.6761  1.0931
   8923SM   C1111901   7.247   0.913   2.761  0.3207  0.1908  0.0809
   8923SM  H11A11902   7.264   0.848   2.850  0.0593  0.1113  0.0746
   8923SM  H11B11903   7.162   0.867   2.706 -0.5098 -0.0072  1.4615
   8923SM     P11904   7.248   1.119   2.914 -0.2036  0.3340  0.1750
   8923SM   O1311905   7.388   1.158   2.871  0.0734 -0.6454 -0.1508
   8923SM   O1411906   7.158   1.229   2.960  0.7482  0.2333  0.1848
   8923SM   O1111907   7.264   1.014   3.029 -0.1401  0.0255 -0.0727
   8923SM   O1211908   7.188   1.035   2.800  0.2984 -0.5998  0.3410
   8923SM   C1S11909   7.318   1.048   3.157 -0.2794 -0.4222 -0.3554
   8923SM   H1S11910   7.362   1.150   3.157  1.8538 -1.2940 -0.1793
   8923SM   H1T11911   7.396   0.972   3.177 -1.2026 -1.8725 -1.9965
   8923SM    NF11912   7.262   1.051   3.410 -0.2771 -0.3216  0.0636
   8923SM   HNF11913   7.297   0.984   3.475  1.3553  0.4352 -0.0057
   8923SM   C2S11914   7.212   1.019   3.275 -0.2595  0.0055 -0.0209
   8923SM   H2S11915   7.125   1.082   3.247  0.0709 -0.5375 -2.5462
   8923SM   C3S11916   7.163   0.873   3.263 -0.0482 -0.3596  0.2725
   8923SM   H3S11917   7.245   0.803   3.291  0.1490 -0.7954 -1.2855
   8923SM    O311918   7.132   0.818   3.138 -0.2191 -0.0743  0.2286
   8923SM   HO311919   7.158   0.888   3.079 -1.8432  1.3926  1.1424
   8923SM   C4S11920   7.049   0.846   3.359  0.2720 -0.9344 -1.1508
   8923SM   H4S11921   7.095   0.828   3.458 -0.5011  0.1047 -0.5859
   8923SM   C5S11922   6.918   0.823   3.340 -0.0851  0.2515  0.1260
   8923SM   H5S11923   6.880   0.825   3.237 -0.7632 -0.7694  0.3315
   8923SM   C6S11924   6.820   0.779   3.445 -0.1403 -0.6360 -0.0322
   8923SM   H6S11925   6.743   0.860   3.445  1.8672  1.3842 -1.1511
   8923SM   H6T11926   6.876   0.790   3.540 -2.0628 -0.1052  1.0991
   8923SM   C7S11927   6.767   0.643   3.404  0.6716  0.1909  0.0546
   8923SM   H7S11928   6.846   0.566   3.415  0.5255 -0.4850 -2.8079
   8923SM   H7T11929   6.743   0.640   3.295 -0.6416  0.7571  0.3091
   8923SM   C8S11930   6.633   0.603   3.466  0.2443  0.5479  0.6931
   8923SM   H8S11931   6.614   0.497   3.440  0.1452  1.1346 -1.8826
   8923SM   H8T11932   6.551   0.666   3.425 -0.2680 -1.6272 -1.9624
   8923SM   C9S11933   6.645   0.616   3.616 -0.4905 -0.0296 -0.4290
   8923SM   H9S11934   6.657   0.721   3.650  0.5019 -0.3492  0.2754
   8923SM   H9T11935   6.739   0.569   3.652 -1.7513 -0.9254  1.9514
   8923SM  C10S11936   6.519   0.552   3.680 -0.7694  0.0642  0.0668
   8923SM  H10S11937   6.541   0.445   3.660 -0.1212 -0.8234  4.4160
   8923SM  H10T11938   6.428   0.581   3.625  0.8985  1.0521 -2.3330
   8923SM  C11S11939   6.517   0.558   3.838 -0.1207 -0.3161 -0.4378
   8923SM  H11S11940   6.623   0.546   3.873 -0.1225 -1.5149 -0.8005
   8923SM  H11T11941   6.465   0.465   3.871  0.5454 -0.4868  0.1777
   8923SM  C12S11942   6.439   0.676   3.892 -0.2785 -0.2681 -0.0919
   8923SM  H12S11943   6.332   0.684   3.866 -0.1830  0.4155 -0.3141
   8923SM  H12T11944   6.492   0.764   3.849 -0.2726 -0.9433 -1.5365
   8923SM  C13S11945   6.466   0.690   4.044 -0.2048  0.3539  0.3937
   8923SM  H13S11946   6.451   0.792   4.083 -0.7241 -0.2550  1.8570
   8923SM  H13T11947   6.573   0.662   4.055 -0.0838  0.3214 -0.7698
   8923SM  C14S11948   6.402   0.587   4.137  0.2293 -0.0721  0.4302
   8923SM  H14S11949   6.405   0.482   4.101 -3.5334 -0.3969  0.7212
   8923SM  H14T11950   6.292   0.598   4.149 -0.2186 -0.7540 -2.3273
   8923SM  C15S11951   6.461   0.596   4.275 -0.7045 -0.0580 -0.1591
   8923SM  H15S11952   6.455   0.702   4.307  2.1232  0.6733 -1.7152
   8923SM  H15T11953   6.564   0.556   4.270  0.0908  2.0307 -2.6620
   8923SM  C16S11954   6.386   0.520   4.385 -0.0591  0.5166 -0.2392
   8923SM  H16S11955   6.284   0.494   4.350  0.0738 -1.0047  0.3890
   8923SM  H16T11956   6.370   0.584   4.474 -0.8686 -0.9218  0.6927
   8923SM  C17S11957   6.453   0.391   4.432 -0.3803  0.4826 -0.3134
   8923SM  H17S11958   6.560   0.418   4.446 -0.5273  0.7502  0.3674
   8923SM  H17T11959   6.442   0.312   4.355  2.1876 -0.1725 -0.0692
   8923SM  C18S11960   6.387   0.354   4.568 -0.1017 -0.0164 -0.4033
   8923SM  H18S11961   6.398   0.437   4.641  0.6424 -1.2032  0.8882
   8923SM  H18T11962   6.440   0.269   4.615 -2.6828 -0.0946  2.6688
   8923SM  H18U11963   6.278   0.332   4.562 -0.0012 -1.5219  2.0743
   8923SM   C1F11964   7.313   1.170   3.432  0.3962 -0.0382 -0.4969
   8923SM    OF11965   7.265   1.269   3.369  0.5393  0.3560  0.6684
   8923SM   C2F11966   7.410   1.183   3.549  0.4000  0.1770  0.7070
   8923SM   H2F11967   7.513   1.160   3.517  0.3653  0.1718  0.5975
   8923SM   H2G11968   7.374   1.105   3.620 -3.9528  3.0784  2.1402
   8923SM   C3F11969   7.399   1.309   3.628  0.3687 -0.2138 -0.3419
   8923SM   H3F11970   7.307   1.305   3.690  0.4728 -1.9780 -0.2521
   8923SM   H3G11971   7.395   1.391   3.554  2.5220  0.3710  0.1192
   8923SM   C4F11972   7.520   1.349   3.717  0.2886  0.2631 -0.0670
   8923SM   H4F11973   7.603   1.380   3.650 -0.6943 -0.4387 -1.6565
   8923SM   H4G11974   7.556   1.260   3.773  0.1457  0.1919 -0.0882
   8923SM   C5F11975   7.488   1.458   3.822 -0.6238 -0.0944 -0.3178
   8923SM   H5F11976   7.397   1.443   3.883  0.0516  1.9360  1.3102
   8923SM   H5G11977   7.460   1.539   3.752 -2.1971  0.8233  1.2766
   8923SM   C6F11978   7.613   1.476   3.916  0.2470  0.1163 -0.4174
   8923SM   H6F11979   7.609   1.579   3.958 -1.2958 -0.4001  0.8237
   8923SM   H6G11980   7.707   1.462   3.859  0.7444  1.5477  0.0082
   8923SM   C7F11981   7.618   1.374   4.031  0.2565  0.5780  0.0210
   8923SM   H7F11982   7.619   1.270   3.991  3.3506 -0.5767  2.6759
   8923SM   H7G11983   7.523   1.372   4.089  0.0155 -1.7577 -0.3338
   8923SM   C8F11984   7.745   1.382   4.111 -0.4482  0.0641 -0.1850
   8923SM   H8F11985   7.763   1.486   4.146  0.6482 -0.9952  2.6970
   8923SM   H8G11986   7.839   1.358   4.056  0.0844  0.2936  0.6120
   8923SM   C9F11987   7.716   1.297   4.242  0.6688  0.0329  0.4261
   8923SM   H9F11988   7.696   1.191   4.217  0.0748 -0.1367  1.5252
   8923SM   H9G11989   7.621   1.340   4.282 -0.0615  0.2031 -1.4164
   8923SM  C10F11990   7.815   1.320   4.363  0.4500 -0.8559  1.1260
   8923SM  H10F11991   7.808   1.423   4.405 -0.0695 -1.4308  2.5318
   8923SM  H10G11992   7.915   1.301   4.319  1.1461  2.7003  0.8443
   8923SM  C11F11993   7.782   1.221   4.473  0.7206 -0.3903 -0.3663
   8923SM  H11F11994   7.823   1.124   4.436 -0.8178 -0.4647 -2.0086
   8923SM  H11G11995   7.672   1.204   4.480  0.9260 -1.7699 -0.0881
   8923SM  C12F11996   7.846   1.249   4.610  0.3395 -0.6324 -0.0756
   8923SM  H12F11997   7.957   1.250   4.617  0.3309  1.2999  0.4362
   8923SM  H12G11998   7.811   1.170   4.680 -0.5037 -1.6937 -1.6354
   8923SM  C13F11999   7.790   1.382   4.666 -0.4114  0.2451  0.2818
   8923SM  H13F12000   7.680   1.370   4.655  0.0114 -2.3818 -2.2492
   8923SM  H13G12001   7.814   1.477   4.612 -0.7358  0.1795  0.0111
   8923SM  C14F12002   7.821   1.410   4.812  0.3065 -0.3725  0.9118
   8923SM  H14F12003   7.766   1.325   4.858 -3.1250 -0.3487 -2.6169
   8923SM  H14G12004   7.780   1.507   4.846  0.9647 -0.4010  1.8122
   8923SM  C15F12005   7.975   1.425   4.850 -0.0655 -0.3799 -0.6844
   8923SM  H15F12006   8.008   1.518   4.801  0.1140  1.4502  2.6177
   8923SM  H15G12007   8.023   1.337   4.801  0.2153 -0.4900 -0.2175
   8923SM  C16F12008   8.002   1.443   5.001 -0.3519  1.1080 -0.4527
   8923SM  H16F12009   7.970   1.545   5.033 -1.4712  0.9893 -1.1263
   8923SM  H16G12010   8.111   1.441   5.023 -0.1263  3.4338 -1.1142
   8923SM  C17F12011   7.940   1.330   5.088  0.4075 -0.3914  0.9149
   8923SM  H17F12012   7.957   1.229   5.044 -2.1024 -0.9188  0.9968
   8923SM  H17G12013   7.830   1.350   5.082  0.4836 -0.1519  0.2046
   8923SM  C18F12014   7.965   1.342   5.244  0.5459  0.5971  0.2272
   8923SM  H18F12015   7.927   1.443   5.270 -1.9143  0.5933 -2.7072
   8923SM  H18G12016   8.075   1.333   5.256  0.5289  0.2048  0.0950
   8923SM  C19F12017   7.887   1.229   5.317 -0.9098  0.0947 -0.3258
   8923SM  H19F12018   7.887   1.134   5.260  1.5310 -1.0973  1.4924
   8923SM  H19G12019   7.780   1.261   5.311 -0.9881 -0.4376 -2.3837
   8923SM  C20F12020   7.900   1.219   5.473 -0.4501 -0.5808  0.6777
   8923SM  H20F12021   7.830   1.140   5.510 -0.3918 -1.6037 -1.2596
   8923SM  H20G12022   7.859   1.309   5.522 -1.7048 -1.7761  1.9116
   8923SM  C21F12023   8.040   1.191   5.526  0.0239 -0.5725 -0.3555
   8923SM  H21F12024   8.035   1.204   5.636 -0.4503 -1.1254 -0.3055
   8923SM  H21G12025   8.109   1.266   5.482 -1.2065  1.2029  0.6582
   8923SM  C22F12026   8.082   1.048   5.497 -0.4490  0.0096  0.3413
   8923SM  H22F12027   8.057   1.019   5.393 -0.9007 -0.7190  0.6440
   8923SM  H22G12028   8.010   0.993   5.562 -0.3969 -1.0158 -0.4470
   8923SM  C23F12029   8.228   1.008   5.534 -0.4112  0.2189  0.1436
   8923SM  H23F12030   8.315   1.043   5.474 -0.0058  0.8175  1.0456
   8923SM  H23G12031   8.237   0.898   5.531 -0.9126  0.1993 -1.0594
   8923SM  H23H12032   8.245   1.047   5.637 -0.6229  1.6279 -0.3214
   9023SM     N12033   7.646   7.446   2.901 -0.3361 -0.2346 -0.4413
   9023SM   C1512034   7.566   7.536   2.992  0.4352 -0.4495 -0.3080
   9023SM  H15A12035   7.625   7.590   3.064 -2.3535 -0.2225  2.0224
   9023SM  H15B12036   7.493   7.479   3.049 -0.2332  0.2179 -0.4737
   9023SM  H15C12037   7.516   7.607   2.927  1.5642  1.1349  0.4867
   9023SM   C1412038   7.560   7.341   2.851 -0.2121 -0.5678  0.1909
   9023SM  H14A12039   7.607   7.281   2.775 -1.6123  1.0988 -2.1139
   9023SM  H14B12040   7.478   7.393   2.805  0.5481 -0.0379 -0.6016
   9023SM  H14C12041   7.537   7.276   2.934 -0.7044  0.6502  1.0562
   9023SM   C1312042   7.696   7.528   2.790  0.6701 -0.8528 -0.2586
   9023SM  H13A12043   7.771   7.478   2.731  1.5454 -2.2828  1.9097
   9023SM  H13B12044   7.757   7.608   2.830 -0.7044  1.0622 -1.8113
   9023SM  H13C12045   7.619   7.569   2.727 -1.1290 -0.7849  1.8507
   9023SM   C1212046   7.760   7.388   2.981 -0.0784 -0.2613 -0.2482
   9023SM  H12A12047   7.816   7.472   3.020 -0.4864  0.1066 -0.4423
   9023SM  H12B12048   7.828   7.331   2.921 -1.0195 -0.0169 -1.6120
   9023SM   C1112049   7.729   7.304   3.105 -0.4422 -0.4947 -0.2548
   9023SM  H11A12050   7.647   7.350   3.164  1.0522 -0.9310  2.3394
   9023SM  H11B12051   7.821   7.311   3.167  0.0778  0.3873 -1.1043
   9023SM     P12052   7.694   7.052   3.161 -0.6098  0.2187  0.2685
   9023SM   O1312053   7.659   6.925   3.091  0.3435 -0.2111 -0.7981
   9023SM   O1412054   7.822   7.040   3.231  0.0486 -0.2210  0.4109
   9023SM   O1112055   7.584   7.096   3.260 -0.3864 -0.2296  0.0982
   9023SM   O1212056   7.698   7.171   3.061  0.1252 -1.2934  0.1304
   9023SM   C1S12057   7.604   7.117   3.397  0.5089  0.0423  0.1496
   9023SM   H1S12058   7.698   7.175   3.414  0.5713 -0.0568  0.1441
   9023SM   H1T12059   7.620   7.013   3.431  0.4339 -0.1995 -0.5507
   9023SM    NF12060   7.515   7.222   3.597 -0.2220  0.2156  0.1138
   9023SM   HNF12061   7.538   7.144   3.655  0.7225 -0.6854 -1.4284
   9023SM   C2S12062   7.488   7.198   3.463 -0.0074 -0.3076 -0.1015
   9023SM   H2S12063   7.483   7.288   3.399  2.5980 -0.7194 -0.9800
   9023SM   C3S12064   7.352   7.129   3.452 -0.0382  0.2383 -0.2221
   9023SM   H3S12065   7.350   7.045   3.524  0.4760 -0.7670 -1.3502
   9023SM    O312066   7.314   7.082   3.323 -0.0257  0.5313  0.3022
   9023SM   HO312067   7.400   7.081   3.278  0.2231  0.5314  0.7770
   9023SM   C4S12068   7.241   7.234   3.486 -0.7100 -0.3374 -0.0156
   9023SM   H4S12069   7.265   7.330   3.439  1.7780 -0.6130  0.5533
   9023SM   C5S12070   7.139   7.216   3.568  0.2859  0.1798 -0.0266
   9023SM   H5S12071   7.129   7.114   3.610 -2.3138  0.9287  1.3812
   9023SM   C6S12072   7.042   7.306   3.635 -0.1341  0.3993  0.1662
   9023SM   H6S12073   6.998   7.242   3.715  1.5745  0.4741  1.2260
   9023SM   H6T12074   6.969   7.344   3.561  1.2102 -0.5706 -1.7322
   9023SM   C7S12075   7.113   7.436   3.695 -0.1164  0.4666 -0.0551
   9023SM   H7S12076   7.188   7.488   3.632 -1.0151  0.9535 -0.7643
   9023SM   H7T12077   7.152   7.401   3.792 -1.3783 -2.1694 -0.4122
   9023SM   C8S12078   7.012   7.543   3.739 -0.1196 -0.6340 -0.1112
   9023SM   H8S12079   6.968   7.582   3.644  1.5315 -0.6941 -0.9407
   9023SM   H8T12080   7.055   7.629   3.795  0.2125 -2.2125  2.2078
   9023SM   C9S12081   6.889   7.478   3.808  0.8048  0.1429 -0.1163
   9023SM   H9S12082   6.937   7.401   3.872  1.7865  0.2751 -0.6774
   9023SM   H9T12083   6.825   7.427   3.732  1.9821 -2.2889  0.4226
   9023SM  C10S12084   6.799   7.559   3.893  0.3481  0.2473 -0.5868
   9023SM  H10S12085   6.746   7.618   3.817 -2.4308 -1.5827 -0.2134
   9023SM  H10T12086   6.862   7.624   3.958 -0.1852 -1.0960  1.3800
   9023SM  C11S12087   6.701   7.492   3.996 -0.2679 -0.1586 -0.1335
   9023SM  H11S12088   6.758   7.422   4.061 -1.4347  0.2348  1.3500
   9023SM  H11T12089   6.628   7.436   3.934 -0.1303 -0.2400 -0.2229
   9023SM  C12S12090   6.614   7.586   4.077 -0.2682 -0.5488 -0.1456
   9023SM  H12S12091   6.565   7.652   4.002 -1.1267  0.9703  1.6620
   9023SM  H12T12092   6.689   7.656   4.119 -0.2066 -0.6716 -0.0510
   9023SM  C13S12093   6.507   7.535   4.173  0.0193 -0.2799  0.3917
   9023SM  H13S12094   6.464   7.619   4.232  1.6331 -0.7981  2.4655
   9023SM  H13T12095   6.554   7.461   4.243 -0.1204 -0.6926  0.0506
   9023SM  C14S12096   6.396   7.476   4.091  0.1667  0.4651  0.0292
   9023SM  H14S12097   6.418   7.455   3.984  0.1713  0.2305  0.0754
   9023SM  H14T12098   6.307   7.541   4.083  0.0328  0.1336 -1.3391
   9023SM  C15S12099   6.330   7.346   4.152 -0.2161  0.1572 -0.4720
   9023SM  H15S12100   6.404   7.263   4.156 -1.2476 -0.7514  2.9553
   9023SM  H15T12101   6.243   7.317   4.089 -1.2536 -0.2594  1.0995
   9023SM  C16S12102   6.282   7.375   4.297  0.1204 -0.3587  0.3819
   9023SM  H16S12103   6.216   7.464   4.304 -0.3711 -0.6307 -0.6117
   9023SM  H16T12104   6.368   7.385   4.367  1.2105  1.8135 -1.1589
   9023SM  C17S12105   6.186   7.262   4.338  0.4373  0.3420  0.6540
   9023SM  H17S12106   6.216   7.170   4.283 -1.3810  0.6667 -0.9754
   9023SM  H17T12107   6.094   7.295   4.286  1.4891 -0.3046 -1.7694
   9023SM  C18S12108   6.168   7.247   4.488 -0.3637 -0.1010 -0.0282
   9023SM  H18S12109   6.115   7.152   4.512 -1.9575  0.3119 -1.6828
   9023SM  H18T12110   6.107   7.328   4.532  1.2699  0.9600  0.3712
   9023SM  H18U12111   6.268   7.258   4.535 -0.3913  0.8715 -0.1801
   9023SM   C1F12112   7.564   7.340   3.639  0.3183  0.0999 -0.1993
   9023SM    OF12113   7.555   7.440   3.571 -0.1702 -0.4248  0.1566
   9023SM   C2F12114   7.631   7.342   3.770  0.0499  0.0917  0.2779
   9023SM   H2F12115   7.667   7.241   3.796  2.9174  1.4026  1.8562
   9023SM   H2G12116   7.556   7.385   3.840  0.0990  2.4420 -0.9925
   9023SM   C3F12117   7.766   7.426   3.779  0.3077 -0.1016  0.1184
   9023SM   H3F12118   7.770   7.526   3.731  1.5373 -0.1987 -0.0198
   9023SM   H3G12119   7.844   7.367   3.727  1.6446  1.0816  0.7151
   9023SM   C4F12120   7.819   7.451   3.926  0.9137  0.6037 -0.3363
   9023SM   H4F12121   7.927   7.477   3.924  1.6576 -2.0559  0.7305
   9023SM   H4G12122   7.789   7.362   3.986  0.2056 -0.3593 -2.0570
   9023SM   C5F12123   7.748   7.573   3.991 -0.4245 -0.1778  0.3235
   9023SM   H5F12124   7.637   7.562   3.997 -0.3765 -0.6378  0.3990
   9023SM   H5G12125   7.761   7.662   3.926 -0.8576 -0.3638 -0.0268
   9023SM   C6F12126   7.804   7.624   4.125 -0.2000 -0.1656  0.4559
   9023SM   H6F12127   7.795   7.735   4.129  3.2267  0.2511 -0.3528
   9023SM   H6G12128   7.913   7.608   4.132 -0.0291 -0.1975 -1.6071
   9023SM   C7F12129   7.743   7.553   4.246 -0.6837 -0.1113 -0.0826
   9023SM   H7F12130   7.825   7.526   4.316  0.2066  0.7795 -0.7630
   9023SM   H7G12131   7.691   7.463   4.207 -2.4530  1.1240 -0.7193
   9023SM   C8F12132   7.652   7.634   4.333  0.1623 -0.2813  0.2638
   9023SM   H8F12133   7.605   7.582   4.419 -0.3833  3.1059  2.2218
   9023SM   H8G12134   7.573   7.678   4.268  0.2806  1.1292  1.0359
   9023SM   C9F12135   7.735   7.745   4.406 -0.2211 -0.6178 -0.3147
   9023SM   H9F12136   7.794   7.812   4.341 -0.6923  0.6495  0.5224
   9023SM   H9G12137   7.812   7.689   4.463  1.5702  1.7709 -0.2541
   9023SM  C10F12138   7.650   7.815   4.512  0.4513 -0.3494  0.5485
   9023SM  H10F12139   7.639   7.760   4.608 -2.6940  2.0302  1.7265
   9023SM  H10G12140   7.545   7.817   4.475  0.0551  0.2697  1.6578
   9023SM  C11F12141   7.707   7.957   4.547  0.3038  0.9183 -0.0364
   9023SM  H11F12142   7.809   7.940   4.587 -0.3903 -0.5225  1.2489
   9023SM  H11G12143   7.651   7.997   4.634  0.6281 -0.6372  0.9269
   9023SM  C12F12144   7.704   8.060   4.438 -0.1714 -0.4456 -0.6204
   9023SM  H12F12145   7.763   8.027   4.350 -0.4791 -0.9357 -0.6494
   9023SM  H12G12146   7.755   8.151   4.475 -1.8973  1.5841 -2.8707
   9023SM  C13F12147   7.564   8.088   4.386  0.1050 -0.6488  0.3752
   9023SM  H13F12148   7.516   7.999   4.341 -2.3299  1.2966 -1.1183
   9023SM  H13G12149   7.568   8.165   4.307  1.1932 -2.7621 -1.7427
   9023SM  C14F12150   7.467   8.133   4.498  0.1319  0.0076 -0.3145
   9023SM  H14F12151   7.517   8.220   4.547  0.6289  0.2652 -1.2637
   9023SM  H14G12152   7.462   8.061   4.582 -0.1920 -0.0329 -0.3671
   9023SM  C15F12153   7.325   8.186   4.462  0.0278 -0.0140  0.0761
   9023SM  H15F12154   7.267   8.117   4.396 -0.5030  0.2471  0.2637
   9023SM  H15G12155   7.335   8.273   4.395 -0.7194 -2.3610 -3.3786
   9023SM  C16F12156   7.245   8.229   4.585  0.2276  0.2096 -0.1847
   9023SM  H16F12157   7.293   8.286   4.668 -0.3532 -0.1642  0.4186
   9023SM  H16G12158   7.211   8.139   4.640  1.4255  0.6869  1.4385
   9023SM  C17F12159   7.107   8.297   4.549 -0.5023  0.4593  0.7026
   9023SM  H17F12160   7.052   8.230   4.480  2.1447 -2.2348  1.0038
   9023SM  H17G12161   7.131   8.393   4.497 -0.1127 -0.0013  0.0144
   9023SM  C18F12162   7.017   8.307   4.672 -0.1989 -0.3399 -0.5757
   9023SM  H18F12163   7.058   8.386   4.738 -0.5679  0.0494 -0.8054
   9023SM  H18G12164   7.005   8.216   4.735 -1.6631  0.9917  1.1743
   9023SM  C19F12165   6.873   8.344   4.635 -0.6093  0.5424 -0.4775
   9023SM  H19F12166   6.845   8.252   4.579  1.7692 -0.2735 -0.4589
   9023SM  H19G12167   6.882   8.435   4.572  3.6300  0.1904 -0.6772
   9023SM  C20F12168   6.777   8.381   4.755 -0.0241  0.2752 -0.5267
   9023SM  H20F12169   6.804   8.488   4.772  1.9237 -0.4824  1.6952
   9023SM  H20G12170   6.790   8.310   4.839  1.0506 -1.6657 -2.2597
   9023SM  C21F12171   6.632   8.359   4.709  0.5749  0.6037  0.6656
   9023SM  H21F12172   6.616   8.250   4.708 -0.6125  0.7727  0.0781
   9023SM  H21G12173   6.616   8.389   4.603 -1.9429 -1.9601  0.2177
   9023SM  C22F12174   6.523   8.436   4.783  0.7580 -0.6843 -0.7665
   9023SM  H22F12175   6.537   8.546   4.775 -0.1805 -0.6085 -1.5115
   9023SM  H22G12176   6.547   8.413   4.889  0.4899  0.1057 -0.5279
   9023SM  C23F12177   6.377   8.408   4.746  0.0658  0.8132  0.1716
   9023SM  H23F12178   6.356   8.302   4.771 -1.6492  2.0367  4.9068
   9023SM  H23G12179   6.343   8.432   4.643 -0.9755 -4.7347 -1.0769
   9023SM  H23H12180   6.314   8.474   4.809 -2.0087 -0.8417 -0.0803
   9123SM     N12181   0.410   3.702   3.213 -0.3140 -0.3705 -0.0701
   9123SM   C1512182   0.432   3.848   3.231  0.6453  0.4109 -0.3250
   9123SM  H15A12183   0.509   3.872   3.302  1.1211  0.7492 -0.9373
   9123SM  H15B12184   0.333   3.889   3.247 -0.7390 -2.9862  0.7852
   9123SM  H15C12185   0.464   3.890   3.137 -0.9017  0.8699 -0.6843
   9123SM   C1412186   0.366   3.635   3.339  0.2405  0.1603  0.2515
   9123SM  H14A12187   0.436   3.659   3.418  0.3729 -0.9774  0.4888
   9123SM  H14B12188   0.367   3.527   3.337 -1.0988  0.1474 -1.6893
   9123SM  H14C12189   0.269   3.670   3.372 -0.1300 -1.1417  0.5856
   9123SM   C1312190   0.309   3.681   3.110  0.0413 -0.2601 -0.5515
   9123SM  H13A12191   0.316   3.735   3.017 -0.6933  2.7508  1.0277
   9123SM  H13B12192   0.212   3.709   3.148 -0.9526  0.0670 -3.1131
   9123SM  H13C12193   0.283   3.576   3.101 -1.6233 -0.1112  1.6491
   9123SM   C1212194   0.542   3.630   3.164 -0.3526  0.3906 -0.3661
   9123SM  H12A12195   0.615   3.639   3.243 -1.2184  0.7369  0.4196
   9123SM  H12B12196   0.568   3.683   3.074 -1.6533  1.9746  0.1337
   9123SM   C1112197   0.523   3.483   3.132 -0.6609  0.2146 -0.0582
   9123SM  H11A12198   0.610   3.460   3.067  0.0868 -2.2804  1.6579
   9123SM  H11B12199   0.439   3.465   3.063 -0.5794 -1.1239  0.1723
   9123SM     P12200   0.633   3.363   3.326 -0.6517 -0.3270 -0.3273
   9123SM   O1312201   0.677   3.226   3.291 -0.1578 -0.0463 -0.1389
   9123SM   O1412202   0.734   3.471   3.314  0.2734  0.7477 -0.4601
   9123SM   O1112203   0.577   3.347   3.472 -0.1205  0.0035  0.8064
   9123SM   O1212204   0.505   3.405   3.244  0.4546 -0.2125 -0.3396
   9123SM   C1S12205   0.457   3.272   3.503 -0.1433  0.1662  0.2312
   9123SM   H1S12206   0.495   3.168   3.493  0.9014  0.6647 -1.4886
   9123SM   H1T12207   0.388   3.284   3.417 -0.1827  2.4562  0.5199
   9123SM    NF12208   0.264   3.242   3.654  0.0944 -0.2154  0.1174
   9123SM   HNF12209   0.177   3.289   3.662 -0.3564 -0.2143 -3.1770
   9123SM   C2S12210   0.387   3.318   3.633 -0.4872  0.4150  0.2471
   9123SM   H2S12211   0.453   3.304   3.722 -1.9918  1.7814  1.6402
   9123SM   C3S12212   0.376   3.473   3.638  1.0834  0.1293  0.1796
   9123SM   H3S12213   0.317   3.515   3.554  1.2008  0.1689  0.1187
   9123SM    O312214   0.502   3.541   3.634  0.5013 -0.0742  0.2168
   9123SM   HO312215   0.557   3.473   3.594 -1.3811 -1.2117 -0.5629
   9123SM   C4S12216   0.321   3.522   3.774 -0.9312  0.4302  0.0874
   9123SM   H4S12217   0.213   3.543   3.773 -1.3414 -1.2171  2.2097
   9123SM   C5S12218   0.390   3.517   3.896  0.8213  0.0288  0.0286
   9123SM   H5S12219   0.496   3.489   3.892  0.4287 -1.4427 -2.8432
   9123SM   C6S12220   0.332   3.551   4.029 -0.3114 -0.3575 -0.5168
   9123SM   H6S12221   0.410   3.608   4.084 -2.0692  2.1961 -0.4890
   9123SM   H6T12222   0.320   3.450   4.076 -0.1310 -1.3152 -2.4434
   9123SM   C7S12223   0.190   3.617   4.033 -0.3226 -0.2056 -0.5363
   9123SM   H7S12224   0.121   3.567   3.961 -1.0735 -1.7807  1.1836
   9123SM   H7T12225   0.207   3.720   3.994 -0.6477 -0.2017 -0.6756
   9123SM   C8S12226   0.145   3.646   4.174 -0.8555  0.2026  0.9830
   9123SM   H8S12227   0.204   3.729   4.219  0.3045 -0.8136  1.3886
   9123SM   H8T12228   0.171   3.557   4.235 -0.6327 -0.0498  0.5142
   9123SM   C9S12229   0.001   3.673   4.176  0.1263  0.3985  0.8152
   9123SM   H9S12230  -0.053   3.587   4.131  0.3839  2.1066 -3.1011
   9123SM   H9T12231  -0.017   3.760   4.111  0.9477 -0.7003 -0.9576
   9123SM  C10S12232  -0.066   3.704   4.312 -0.6569  0.9073  0.7413
   9123SM  H10S12233  -0.074   3.610   4.370  0.1372  0.1142 -0.4095
   9123SM  H10T12234  -0.170   3.739   4.296 -0.6636  1.2971  1.6102
   9123SM  C11S12235   0.023   3.804   4.385  0.0117 -0.1104 -0.2832
   9123SM  H11S12236   0.037   3.879   4.304  1.8175 -0.1048 -0.0023
   9123SM  H11T12237   0.118   3.750   4.403  0.7144  0.8398 -1.0172
   9123SM  C12S12238  -0.031   3.859   4.518  0.7518  0.5193  0.1490
   9123SM  H12S12239  -0.076   3.776   4.577  1.8900 -0.1801  0.0658
   9123SM  H12T12240  -0.106   3.940   4.507 -0.9098 -1.1765 -1.9296
   9123SM  C13S12241   0.087   3.907   4.608  0.2797 -0.3323 -0.7564
   9123SM  H13S12242   0.143   3.988   4.556 -0.0470  0.4052  0.0087
   9123SM  H13T12243   0.143   3.815   4.637 -2.2439 -1.3268  1.3354
   9123SM  C14S12244   0.036   3.968   4.742 -0.1901 -0.2604  0.5673
   9123SM  H14S12245  -0.047   3.898   4.769 -0.4375 -0.9150 -1.6995
   9123SM  H14T12246  -0.013   4.067   4.727 -0.1710 -0.4840 -1.2141
   9123SM  C15S12247   0.145   3.985   4.849  0.2683 -0.6319  0.0898
   9123SM  H15S12248   0.209   3.894   4.858  0.0561 -1.2005 -3.1291
   9123SM  H15T12249   0.090   3.987   4.946  1.0500 -1.8306  0.5807
   9123SM  C16S12250   0.219   4.112   4.835  0.2223  0.2152  0.0331
   9123SM  H16S12251   0.238   4.156   4.935 -2.0658 -0.6283  0.9056
   9123SM  H16T12252   0.154   4.190   4.790 -0.5713 -0.8887 -0.8177
   9123SM  C17S12253   0.356   4.100   4.768  0.1115 -0.7566  0.4406
   9123SM  H17S12254   0.337   4.080   4.660  0.7484 -1.7053  0.4945
   9123SM  H17T12255   0.410   4.008   4.799  0.8595 -0.1153  1.0883
   9123SM  C18S12256   0.442   4.222   4.775 -0.2381  0.0304 -0.2009
   9123SM  H18S12257   0.436   4.255   4.881  3.0735  0.4141 -0.0114
   9123SM  H18T12258   0.399   4.307   4.718 -2.4112  1.1049  2.7883
   9123SM  H18U12259   0.549   4.208   4.746  0.0017 -0.1898  0.7350
   9123SM   C1F12260   0.256   3.115   3.680 -0.4549  0.1133  0.2553
   9123SM    OF12261   0.348   3.039   3.639  0.2874  0.1400 -0.9677
   9123SM   C2F12262   0.131   3.068   3.747  0.6747  0.4967  0.1195
   9123SM   H2F12263   0.095   2.979   3.692  2.2385 -1.1368  1.6371
   9123SM   H2G12264   0.047   3.140   3.752 -0.0709 -0.3927  0.4563
   9123SM   C3F12265   0.162   2.999   3.882  0.2042 -0.3579 -0.3085
   9123SM   H3F12266   0.254   2.939   3.870 -0.0345 -0.8529  0.2804
   9123SM   H3G12267   0.079   2.937   3.922 -0.3455  0.5848  0.0578
   9123SM   C4F12268   0.167   3.093   4.008 -0.4861  0.1612  1.0782
   9123SM   H4F12269   0.264   3.146   3.995  0.0817 -1.2859 -0.9435
   9123SM   H4G12270   0.182   3.037   4.103  0.1878  1.6302  1.8729
   9123SM   C5F12271   0.054   3.192   4.022 -0.0794  0.2956  0.0196
   9123SM   H5F12272  -0.039   3.132   4.024  1.1605 -1.8621 -2.0303
   9123SM   H5G12273   0.046   3.279   3.954 -2.9371  2.1431  2.4303
   9123SM   C6F12274   0.066   3.276   4.151 -0.4249  0.2220 -0.6381
   9123SM   H6F12275   0.001   3.365   4.137 -0.7416  0.1956  0.5539
   9123SM   H6G12276   0.172   3.307   4.155 -0.1075 -0.4823 -2.3195
   9123SM   C7F12277   0.015   3.210   4.282  0.1546 -0.2037  0.4704
   9123SM   H7F12278   0.081   3.126   4.310 -0.0018 -0.6894 -0.5686
   9123SM   H7G12279  -0.087   3.166   4.268 -0.1043  0.2295  0.9600
   9123SM   C8F12280   0.005   3.318   4.389 -0.1721  0.5206 -0.3036
   9123SM   H8F12281  -0.079   3.384   4.360 -1.3396 -0.4786  0.7127
   9123SM   H8G12282   0.102   3.372   4.398  0.9198 -1.4288  0.1769
   9123SM   C9F12283  -0.030   3.259   4.524  0.0692 -0.0546 -0.5028
   9123SM   H9F12284   0.040   3.174   4.537  0.0003 -0.4607 -2.4703
   9123SM   H9G12285  -0.128   3.207   4.521  0.8460 -1.7034  1.0880
   9123SM  C10F12286  -0.016   3.346   4.651 -0.4273 -0.1306 -0.1213
   9123SM  H10F12287   0.090   3.379   4.659  0.2005 -0.8875 -3.5154
   9123SM  H10G12288  -0.038   3.283   4.739 -1.3802  0.4655  0.0758
   9123SM  C11F12289  -0.112   3.456   4.647  0.4919 -0.1804 -0.3449
   9123SM  H11F12290  -0.219   3.428   4.647  0.7982 -1.4761  0.4881
   9123SM  H11G12291  -0.082   3.512   4.556  1.2783  1.4030  0.8347
   9123SM  C12F12292  -0.091   3.570   4.750 -0.4728 -0.2039  0.3248
   9123SM  H12F12293  -0.155   3.657   4.724 -0.6548  0.0568  1.6016
   9123SM  H12G12294   0.015   3.601   4.758 -0.4592 -0.2441  0.3053
   9123SM  C13F12295  -0.114   3.535   4.896  0.1826  0.4915  0.4778
   9123SM  H13F12296  -0.048   3.452   4.930  1.9140  1.0585 -1.3028
   9123SM  H13G12297  -0.218   3.499   4.911 -0.5875  2.1319 -0.6304
   9123SM  C14F12298  -0.085   3.648   4.992  0.2420 -0.0298  0.1198
   9123SM  H14F12299  -0.111   3.747   4.949 -0.8536 -0.3722 -0.0487
   9123SM  H14G12300   0.023   3.648   5.016  0.7129  0.5030 -1.8793
   9123SM  C15F12301  -0.153   3.641   5.133  0.5386 -0.0829 -0.2392
   9123SM  H15F12302  -0.149   3.535   5.167 -0.6597  0.2009  0.8604
   9123SM  H15G12303  -0.258   3.675   5.121  1.0884  2.0851  0.6215
   9123SM  C16F12304  -0.091   3.732   5.237 -0.5921 -0.2761 -0.2024
   9123SM  H16F12305   0.013   3.695   5.252  0.2821  1.2681 -1.9588
   9123SM  H16G12306  -0.147   3.726   5.332  0.3856 -0.1062  0.3968
   9123SM  C17F12307  -0.091   3.877   5.193  0.3452  0.5188 -0.0018
   9123SM  H17F12308  -0.197   3.912   5.186  0.3860  0.8058  0.6776
   9123SM  H17G12309  -0.037   3.876   5.096 -0.1787 -0.3511 -0.2879
   9123SM  C18F12310  -0.028   3.965   5.300 -0.5169 -0.2215 -0.1700
   9123SM  H18F12311   0.059   3.909   5.341  1.3407  0.3542 -3.0428
   9123SM  H18G12312  -0.106   3.979   5.378 -0.1855  0.5453  0.0429
   9123SM  C19F12313   0.014   4.110   5.258 -0.0171  0.3381  0.5580
   9123SM  H19F12314   0.086   4.103   5.174 -1.2200  2.8463 -0.8155
   9123SM  H19G12315   0.059   4.158   5.347  0.5004  0.8653  0.0214
   9123SM  C20F12316  -0.099   4.201   5.206  0.1633  0.1795 -0.3832
   9123SM  H20F12317  -0.166   4.136   5.146 -0.4563 -0.3493  0.8464
   9123SM  H20G12318  -0.065   4.287   5.145  0.5136  0.7012  0.5284
   9123SM  C21F12319  -0.192   4.256   5.316  0.2738  0.0656 -0.9990
   9123SM  H21F12320  -0.150   4.352   5.355  2.7433 -0.6891 -1.6887
   9123SM  H21G12321  -0.204   4.183   5.399  0.8519 -0.1745 -1.1220
   9123SM  C22F12322  -0.327   4.295   5.249 -0.7332 -0.0285  0.1138
   9123SM  H22F12323  -0.365   4.206   5.194 -1.6117 -0.3660  1.2164
   9123SM  H22G12324  -0.316   4.379   5.178  1.8034 -2.1720 -2.2884
   9123SM  C23F12325  -0.428   4.330   5.350 -0.5964  0.6110  0.4469
   9123SM  H23F12326  -0.397   4.418   5.411  0.6150 -0.0996  0.8723
   9123SM  H23G12327  -0.445   4.241   5.414 -0.9004 -0.4208 -1.0202
   9123SM  H23H12328  -0.529   4.351   5.309 -0.5557  0.0635  0.0521
   9223SM     N12329   4.650   0.674   3.116 -0.3204 -1.2495 -0.5147
   9223SM   C1512330   4.585   0.780   3.208  0.3421  0.4379 -1.3864
   9223SM  H15A12331   4.643   0.791   3.299  0.7665  2.0392 -1.8145
   9223SM  H15B12332   4.481   0.756   3.223  1.0686 -1.4152  1.5143
   9223SM  H15C12333   4.594   0.883   3.177  0.5627  0.7011 -0.4602
   9223SM   C1412334   4.665   0.547   3.192  0.0547 -0.2316  0.6739
   9223SM  H14A12335   4.571   0.493   3.193 -1.1564  1.7164 -0.8293
   9223SM  H14B12336   4.696   0.574   3.292 -2.6226 -0.2424  1.5792
   9223SM  H14C12337   4.736   0.481   3.143 -2.5001 -1.3760 -1.8248
   9223SM   C1312338   4.568   0.664   2.999  0.6057  0.1768 -0.2416
   9223SM  H13A12339   4.616   0.614   2.917  1.0175 -0.6960  0.5055
   9223SM  H13B12340   4.542   0.762   2.963  1.5718  0.7524  0.5756
   9223SM  H13C12341   4.477   0.607   3.014 -0.1658  0.9028 -1.9317
   9223SM   C1212342   4.789   0.741   3.089  0.8590  0.2359 -0.9934
   9223SM  H12A12343   4.848   0.721   3.177 -2.0693 -0.4438  0.9933
   9223SM  H12B12344   4.781   0.848   3.085 -2.2892  0.1075 -1.2594
   9223SM   C1112345   4.863   0.687   2.965  0.3107  0.6280 -0.5852
   9223SM  H11A12346   4.817   0.721   2.869 -0.9101 -1.7511 -0.9257
   9223SM  H11B12347   4.850   0.577   2.970  1.6589  0.4760  4.2908
   9223SM     P12348   5.104   0.673   3.056  0.2583 -0.0768 -0.1099
   9223SM   O1312349   5.120   0.523   3.045  0.0585 -0.8401  0.1537
   9223SM   O1412350   5.223   0.752   3.028  0.3787 -0.1647  0.2228
   9223SM   O1112351   5.050   0.709   3.200  0.3459  0.5581 -0.2688
   9223SM   O1212352   4.997   0.721   2.957  0.1310 -0.4341 -0.2574
   9223SM   C1S12353   5.051   0.841   3.251 -0.3069  0.4272 -0.3400
   9223SM   H1S12354   4.977   0.904   3.198 -0.0603  0.6164 -0.4553
   9223SM   H1T12355   5.150   0.883   3.226 -1.4210  1.9015 -2.5445
   9223SM    NF12356   4.984   0.971   3.454 -0.3861 -0.2804 -0.2273
   9223SM   HNF12357   5.051   1.035   3.492 -2.3270  2.6573 -1.4109
   9223SM   C2S12358   5.037   0.850   3.402 -0.5050  0.2656  1.1130
   9223SM   H2S12359   4.976   0.765   3.438  1.2410 -1.3493  0.4463
   9223SM   C3S12360   5.183   0.803   3.454  0.1484 -0.5046  0.3059
   9223SM   H3S12361   5.255   0.872   3.406  0.8749 -0.1995  1.7731
   9223SM    O312362   5.212   0.670   3.421 -0.1659 -0.1602 -0.6065
   9223SM   HO312363   5.136   0.651   3.366 -0.1478 -0.3887 -0.5508
   9223SM   C4S12364   5.199   0.820   3.600 -0.6616 -0.2480  0.2715
   9223SM   H4S12365   5.129   0.758   3.658  1.3202 -2.4065  0.4874
   9223SM   C5S12366   5.296   0.889   3.664  0.5833 -0.1321 -0.3345
   9223SM   H5S12367   5.365   0.953   3.608 -0.0952  0.3498 -0.6279
   9223SM   C6S12368   5.298   0.901   3.821  0.2178  0.2674 -0.4049
   9223SM   H6S12369   5.380   0.837   3.860  0.6773  0.5856 -0.8281
   9223SM   H6T12370   5.212   0.850   3.869  3.1262 -2.8083  1.9646
   9223SM   C7S12371   5.309   1.044   3.869  0.0446 -0.2240 -0.3310
   9223SM   H7S12372   5.234   1.103   3.811  0.7467  0.8279 -0.1729
   9223SM   H7T12373   5.406   1.083   3.832 -0.0291 -0.4543 -0.7792
   9223SM   C8S12374   5.303   1.065   4.023 -0.1783  0.9678  0.0592
   9223SM   H8S12375   5.203   1.028   4.056 -1.0502  0.9966 -2.3564
   9223SM   H8T12376   5.295   1.173   4.046  1.0064  1.4635 -1.6612
   9223SM   C9S12377   5.413   0.999   4.106 -0.2525  0.7407  0.2989
   9223SM   H9S12378   5.508   1.055   4.090  0.5301 -0.4328  0.7284
   9223SM   H9T12379   5.447   0.901   4.067 -0.9877  0.8893 -0.7497
   9223SM  C10S12380   5.378   0.995   4.254  0.3830  0.4764 -0.0762
   9223SM  H10S12381   5.280   0.941   4.262  0.7863 -0.1791  0.6337
   9223SM  H10T12382   5.354   1.097   4.292  1.1458  1.1243 -1.2869
   9223SM  C11S12383   5.488   0.929   4.345  0.6685  0.1083 -0.8342
   9223SM  H11S12384   5.572   0.998   4.369  0.1178 -0.2143  2.5353
   9223SM  H11T12385   5.542   0.846   4.295  0.5102 -0.3903 -0.1910
   9223SM  C12S12386   5.427   0.877   4.470  0.1531  0.3322  0.4939
   9223SM  H12S12387   5.358   0.797   4.435 -0.6930  0.7825  1.1002
   9223SM  H12T12388   5.368   0.957   4.519  1.5852  2.2006 -0.6970
   9223SM  C13S12389   5.528   0.812   4.564  0.1640 -0.6220 -0.9056
   9223SM  H13S12390   5.593   0.892   4.607  2.0138 -2.4575 -0.1112
   9223SM  H13T12391   5.594   0.745   4.505 -1.5642 -0.8545 -2.6382
   9223SM  C14S12392   5.469   0.726   4.677  0.4530 -0.0444  0.3176
   9223SM  H14S12393   5.543   0.653   4.719  0.0896 -0.3269  0.4711
   9223SM  H14T12394   5.398   0.654   4.630  0.7917  0.1073 -0.4421
   9223SM  C15S12395   5.395   0.801   4.788  0.0056  0.2071 -0.0497
   9223SM  H15S12396   5.349   0.891   4.743 -0.5377 -0.4033 -0.7376
   9223SM  H15T12397   5.469   0.825   4.868  2.8125 -0.2053 -2.3366
   9223SM  C16S12398   5.289   0.714   4.854 -0.5455  0.3008 -0.0456
   9223SM  H16S12399   5.325   0.609   4.869  0.1448  0.5451  0.0355
   9223SM  H16T12400   5.193   0.703   4.800 -1.2902  0.0100  1.3031
   9223SM  C17S12401   5.248   0.759   4.991  0.1270 -0.2786  0.3847
   9223SM  H17S12402   5.242   0.870   4.988  1.9783 -0.1631 -0.6621
   9223SM  H17T12403   5.320   0.736   5.073 -0.2609  0.1795  0.8684
   9223SM  C18S12404   5.115   0.717   5.044 -0.2712  0.0006 -0.6583
   9223SM  H18S12405   5.103   0.607   5.060 -1.4534  0.0192 -1.3025
   9223SM  H18T12406   5.035   0.751   4.976  1.1646  2.0743 -1.3973
   9223SM  H18U12407   5.079   0.761   5.140  0.2001 -0.8771 -0.0616
   9223SM   C1F12408   4.858   1.004   3.437  0.2540 -0.7108 -0.9311
   9223SM    OF12409   4.781   0.919   3.397  0.3167 -0.1826  0.1805
   9223SM   C2F12410   4.823   1.153   3.459  0.1588  0.2568  0.0735
   9223SM   H2F12411   4.808   1.201   3.360 -0.7280 -0.4424 -0.1441
   9223SM   H2G12412   4.920   1.199   3.487  0.7972  0.6572 -2.5173
   9223SM   C3F12413   4.706   1.190   3.545 -0.0333 -0.1159  0.1378
   9223SM   H3F12414   4.611   1.176   3.488 -0.6677  1.5424  0.7310
   9223SM   H3G12415   4.706   1.300   3.560  2.5728 -0.0759  0.3130
   9223SM   C4F12416   4.695   1.130   3.684 -1.2265  0.0232 -0.7345
   9223SM   H4F12417   4.684   1.019   3.679 -0.7859 -0.0644  0.1505
   9223SM   H4G12418   4.601   1.150   3.741 -0.9647 -1.6723  0.3830
   9223SM   C5F12419   4.817   1.179   3.772  0.8742 -0.3990  0.8735
   9223SM   H5F12420   4.799   1.285   3.801  0.6906 -0.6980  1.8961
   9223SM   H5G12421   4.903   1.161   3.704 -1.1771 -0.8358 -1.7544
   9223SM   C6F12422   4.833   1.088   3.897 -0.0645 -0.4478 -0.1220
   9223SM   H6F12423   4.921   1.118   3.958 -1.6454  1.1351  1.4641
   9223SM   H6G12424   4.837   0.980   3.870 -2.5377 -0.7270  0.4648
   9223SM   C7F12425   4.712   1.100   3.990  0.4913  0.1339 -0.2928
   9223SM   H7F12426   4.625   1.063   3.932 -0.7058  3.4757 -0.8679
   9223SM   H7G12427   4.691   1.207   4.014  2.0796  0.3994  0.0105
   9223SM   C8F12428   4.718   1.011   4.121  0.0663 -0.0278  0.3620
   9223SM   H8F12429   4.698   0.908   4.084  1.6245 -0.5847  0.9719
   9223SM   H8G12430   4.629   1.028   4.184 -1.8679  0.6710 -2.3547
   9223SM   C9F12431   4.855   1.007   4.189  0.7202  0.7273 -1.0160
   9223SM   H9F12432   4.893   1.108   4.215  1.0239  0.1670  0.9152
   9223SM   H9G12433   4.926   0.957   4.120 -0.0447 -1.6925 -0.1723
   9223SM  C10F12434   4.829   0.933   4.322 -0.0243  1.1694 -0.3176
   9223SM  H10F12435   4.824   0.832   4.275  0.7530  1.5247 -1.2008
   9223SM  H10G12436   4.734   0.958   4.373 -0.9827  1.0140 -1.9634
   9223SM  C11F12437   4.951   0.946   4.419 -0.1373 -0.6040 -0.2283
   9223SM  H11F12438   4.930   1.036   4.481  0.1334 -0.2863 -0.5971
   9223SM  H11G12439   5.054   0.950   4.379  0.5193 -0.5962  1.4233
   9223SM  C12F12440   4.946   0.839   4.529 -0.1279 -0.0883  0.5167
   9223SM  H12F12441   5.034   0.855   4.595  0.4742 -2.4618  0.3990
   9223SM  H12G12442   4.960   0.734   4.496 -1.5163  0.2815 -1.4629
   9223SM  C13F12443   4.821   0.836   4.626 -0.6307 -0.4584  0.2246
   9223SM  H13F12444   4.725   0.805   4.580 -1.1944  0.0745  1.0145
   9223SM  H13G12445   4.797   0.943   4.645 -0.3783 -0.1844 -0.9377
   9223SM  C14F12446   4.841   0.755   4.752  0.0723 -0.1257  0.2284
   9223SM  H14F12447   4.941   0.776   4.795  0.7665  0.5292 -1.6089
   9223SM  H14G12448   4.854   0.652   4.713 -0.0482 -0.8933  2.1236
   9223SM  C15F12449   4.731   0.761   4.857 -0.2004 -0.2631  0.0176
   9223SM  H15F12450   4.731   0.678   4.930 -2.0049 -0.8002 -0.5394
   9223SM  H15G12451   4.642   0.737   4.794  1.5246 -1.9634 -1.9354
   9223SM  C16F12452   4.734   0.897   4.932 -0.3020  0.1337  0.0796
   9223SM  H16F12453   4.742   0.976   4.854 -2.3918 -0.7161 -1.0736
   9223SM  H16G12454   4.830   0.908   4.986 -0.8809  1.6731  0.8618
   9223SM  C17F12455   4.620   0.914   5.029 -0.9404 -0.4390  0.0634
   9223SM  H17F12456   4.634   1.014   5.074 -0.8005 -0.9842  1.2551
   9223SM  H17G12457   4.620   0.850   5.119 -0.5358 -0.5195  0.0058
   9223SM  C18F12458   4.485   0.899   4.963  0.6670 -0.0121 -0.3537
   9223SM  H18F12459   4.407   0.924   5.039 -0.6645  0.1842 -1.7333
   9223SM  H18G12460   4.462   0.794   4.936 -0.4275 -0.0179  0.5164
   9223SM  C19F12461   4.469   0.986   4.840  0.4256 -0.4191  0.2311
   9223SM  H19F12462   4.504   0.926   4.753 -1.8086 -1.3399 -0.0844
   9223SM  H19G12463   4.536   1.075   4.835 -0.8959  0.5493 -0.9723
   9223SM  C20F12464   4.326   1.037   4.824  0.3335 -0.3050  0.9007
   9223SM  H20F12465   4.282   1.083   4.915 -0.8284 -1.5395  1.0025
   9223SM  H20G12466   4.266   0.948   4.795  0.2959  0.3834 -1.3399
   9223SM  C21F12467   4.311   1.134   4.703 -0.1488  1.0504 -0.3537
   9223SM  H21F12468   4.340   1.087   4.607  0.2517  0.5500  0.0020
   9223SM  H21G12469   4.383   1.217   4.717  0.2222  0.7301 -0.3154
   9223SM  C22F12470   4.169   1.207   4.695  0.2738 -0.3466 -0.0521
   9223SM  H22F12471   4.162   1.281   4.777 -0.9786  0.7852 -1.1374
   9223SM  H22G12472   4.087   1.134   4.709 -1.0720  0.9958 -0.7048
   9223SM  C23F12473   4.166   1.278   4.559  0.3729  0.2458  0.2329
   9223SM  H23F12474   4.067   1.324   4.537 -0.0959 -0.9493 -0.2584
   9223SM  H23G12475   4.187   1.207   4.477 -2.1448  1.0649 -1.2412
   9223SM  H23H12476   4.244   1.356   4.561  0.4056  0.2462  2.8612
   9323SM     N12477   6.480   3.228   2.974 -0.3600 -0.2353 -0.3654
   9323SM   C1512478   6.476   3.081   2.938 -0.1653  0.0963 -0.3720
   9323SM  H15A12479   6.415   3.031   3.012  0.6440 -0.3078  0.0495
   9323SM  H15B12480   6.577   3.043   2.944  0.5532  2.0284  0.6043
   9323SM  H15C12481   6.437   3.065   2.839  0.0418 -1.1964 -0.2743
   9323SM   C1412482   6.525   3.321   2.862 -0.7243 -0.6047  0.0944
   9323SM  H14A12483   6.543   3.417   2.906  3.0884 -0.6365 -1.0535
   9323SM  H14B12484   6.454   3.342   2.783 -0.4413 -2.5826 -0.7499
   9323SM  H14C12485   6.614   3.283   2.812 -1.1413 -1.6782  0.1275
   9323SM   C1312486   6.340   3.271   3.007  0.1066 -0.3139 -0.3510
   9323SM  H13A12487   6.343   3.376   3.030 -0.8885 -0.0686 -1.2521
   9323SM  H13B12488   6.304   3.217   3.093  2.2870  1.8493  2.0739
   9323SM  H13C12489   6.279   3.263   2.918 -0.2817 -1.1395 -0.0214
   9323SM   C1212490   6.559   3.246   3.104  0.4579 -0.3571  0.2348
   9323SM  H12A12491   6.528   3.173   3.176 -0.3872 -1.5233 -1.2438
   9323SM  H12B12492   6.529   3.343   3.140  0.3175  0.0308 -0.8633
   9323SM   C1112493   6.714   3.246   3.096 -0.1418  0.3124 -0.6182
   9323SM  H11A12494   6.745   3.263   3.201  0.3733 -1.9587 -0.3672
   9323SM  H11B12495   6.749   3.336   3.041  0.4847  0.6157  0.2606
   9323SM     P12496   6.791   2.999   3.133 -0.2480 -0.0819  0.5366
   9323SM   O1312497   6.706   2.894   3.088 -0.3752 -0.6436 -0.3581
   9323SM   O1412498   6.938   2.972   3.146 -0.3591 -0.5240  0.0751
   9323SM   O1112499   6.735   3.040   3.271 -0.0346 -0.5856 -0.4795
   9323SM   O1212500   6.771   3.129   3.043  0.5028 -0.2749 -0.4708
   9323SM   C1S12501   6.765   2.975   3.397 -0.0997 -0.0378  0.7877
   9323SM   H1S12502   6.875   2.979   3.411 -0.1808  0.5485  1.2928
   9323SM   H1T12503   6.726   2.871   3.395 -2.0607  0.6622  0.2856
   9323SM    NF12504   6.753   3.024   3.641  1.2315 -0.4281  0.2767
   9323SM   HNF12505   6.693   2.973   3.703 -2.7553  1.5088 -1.5741
   9323SM   C2S12506   6.692   3.046   3.514 -0.2768  0.1910 -0.1682
   9323SM   H2S12507   6.697   3.155   3.492  1.3201  0.0879 -0.4304
   9323SM   C3S12508   6.541   3.012   3.513 -0.6823 -0.2783 -0.1939
   9323SM   H3S12509   6.531   2.908   3.552 -0.7271 -0.4952 -0.7836
   9323SM    O312510   6.490   3.001   3.386  0.5983  0.3797  0.1444
   9323SM   HO312511   6.571   3.002   3.334  1.2052 -1.1360  0.9825
   9323SM   C4S12512   6.453   3.106   3.595 -0.6018  0.1405 -0.4372
   9323SM   H4S12513   6.428   3.202   3.547  1.9103 -0.1022 -2.4545
   9323SM   C5S12514   6.395   3.065   3.711 -0.1016 -0.8554 -0.7886
   9323SM   H5S12515   6.418   2.963   3.745  0.7562 -0.4996 -0.2564
   9323SM   C6S12516   6.289   3.144   3.781 -0.3089 -0.1092  1.0205
   9323SM   H6S12517   6.199   3.082   3.801  0.2727 -0.9662  1.0243
   9323SM   H6T12518   6.253   3.233   3.725  1.4415  0.6968  1.1221
   9323SM   C7S12519   6.341   3.188   3.916 -0.2409  0.2359 -0.2013
   9323SM   H7S12520   6.394   3.106   3.969 -3.3862 -1.8723 -0.0680
   9323SM   H7T12521   6.262   3.217   3.989  1.3063  0.5746  1.4212
   9323SM   C8S12522   6.446   3.302   3.905 -0.7856 -0.0465  0.6890
   9323SM   H8S12523   6.388   3.381   3.852 -2.3277 -0.7109  1.3317
   9323SM   H8T12524   6.536   3.269   3.849  1.1465  1.9740  2.3930
   9323SM   C9S12525   6.484   3.354   4.045 -0.2643  0.0814 -0.0229
   9323SM   H9S12526   6.402   3.376   4.117  0.2974  0.4012  0.5310
   9323SM   H9T12527   6.549   3.444   4.032  0.3061 -0.4676 -1.1922
   9323SM  C10S12528   6.582   3.264   4.124 -1.3613 -0.6618  0.1539
   9323SM  H10S12529   6.666   3.238   4.057 -2.7520  1.5182 -2.6342
   9323SM  H10T12530   6.530   3.170   4.155  0.9796 -1.9806  0.3635
   9323SM  C11S12531   6.621   3.345   4.252 -0.2394  1.0695 -0.2547
   9323SM  H11S12532   6.527   3.357   4.311 -1.4988 -0.9138 -1.7389
   9323SM  H11T12533   6.662   3.442   4.217 -0.4847  0.3784 -2.6198
   9323SM  C12S12534   6.722   3.270   4.341 -0.3063 -0.9131  0.2606
   9323SM  H12S12535   6.807   3.217   4.294  0.8430  1.4691 -0.4827
   9323SM  H12T12536   6.657   3.196   4.393 -1.7346 -1.1044 -1.7036
   9323SM  C13S12537   6.796   3.369   4.435 -0.6468 -0.6241  0.2258
   9323SM  H13S12538   6.850   3.453   4.386 -0.9649 -0.6740 -0.2180
   9323SM  H13T12539   6.875   3.307   4.483 -0.3911 -1.3836 -1.1107
   9323SM  C14S12540   6.719   3.437   4.550  0.2658  0.3708 -0.5071
   9323SM  H14S12541   6.664   3.354   4.601 -1.1474  1.0665 -0.8386
   9323SM  H14T12542   6.638   3.505   4.515 -2.1285 -1.5558  0.9142
   9323SM  C15S12543   6.802   3.509   4.658 -0.3931  0.7794  0.5038
   9323SM  H15S12544   6.858   3.426   4.706 -0.7524  0.7319  0.8407
   9323SM  H15T12545   6.889   3.560   4.610  1.5062 -1.8594  0.9289
   9323SM  C16S12546   6.729   3.590   4.761 -0.3275  0.1075  0.1819
   9323SM  H16S12547   6.652   3.655   4.713 -0.8354 -1.1555 -0.7777
   9323SM  H16T12548   6.805   3.655   4.809 -1.7304  0.0365  2.6611
   9323SM  C17S12549   6.644   3.508   4.867  0.5360 -0.4134 -0.6304
   9323SM  H17S12550   6.705   3.421   4.900  0.8684 -0.0318 -0.2277
   9323SM  H17T12551   6.559   3.458   4.816 -0.5720 -0.9385  1.5780
   9323SM  C18S12552   6.605   3.596   4.989 -0.2838  0.0474  0.5580
   9323SM  H18S12553   6.561   3.525   5.062  3.7243 -2.7117  0.5862
   9323SM  H18T12554   6.519   3.663   4.965 -1.5158 -1.3681  0.8777
   9323SM  H18U12555   6.692   3.640   5.044  0.1827  0.4246 -0.4658
   9323SM   C1F12556   6.879   3.052   3.672 -0.2936 -0.2909 -0.0962
   9323SM    OF12557   6.958   3.113   3.606 -0.4400 -0.1754 -0.1824
   9323SM   C2F12558   6.933   2.986   3.799 -0.1410 -0.0952  0.1835
   9323SM   H2F12559   7.044   2.989   3.803 -0.1436 -0.1673  0.3141
   9323SM   H2G12560   6.905   2.879   3.802  0.5088 -0.2528  0.9779
   9323SM   C3F12561   6.869   3.049   3.927 -0.0060 -0.2543 -0.7704
   9323SM   H3F12562   6.758   3.037   3.929  0.1309 -1.5031  0.3284
   9323SM   H3G12563   6.898   3.156   3.931 -1.0738  0.0571 -0.9101
   9323SM   C4F12564   6.927   2.977   4.052 -0.0354 -0.1390  0.1213
   9323SM   H4F12565   6.913   2.867   4.037  0.8198 -0.0377 -1.6258
   9323SM   H4G12566   6.868   3.011   4.140  0.2134 -1.3158  0.7675
   9323SM   C5F12567   7.077   3.005   4.074  0.1142  0.0517 -0.7281
   9323SM   H5F12568   7.096   3.114   4.058  2.1308 -0.2633 -0.7314
   9323SM   H5G12569   7.151   2.945   4.017  0.4703 -1.2245  1.0007
   9323SM   C6F12570   7.126   2.988   4.224  1.2656  0.6638  0.0346
   9323SM   H6F12571   7.108   2.882   4.251 -2.3197  1.5420  1.5896
   9323SM   H6G12572   7.053   3.044   4.285 -1.7617 -0.5746 -2.1870
   9323SM   C7F12573   7.272   3.026   4.260 -0.2833  0.3190 -0.0146
   9323SM   H7F12574   7.307   3.122   4.216 -0.0639 -0.1043 -0.7778
   9323SM   H7G12575   7.325   2.949   4.200 -1.2339 -0.9070  0.6846
   9323SM   C8F12576   7.312   3.030   4.407 -0.4830  0.7069 -0.2973
   9323SM   H8F12577   7.423   3.031   4.415 -0.3618 -2.0348 -0.6406
   9323SM   H8G12578   7.272   2.940   4.458 -2.2088  2.2492  1.2075
   9323SM   C9F12579   7.253   3.145   4.485  0.5764  0.2527 -0.0403
   9323SM   H9F12580   7.152   3.154   4.441  1.2289  1.0973 -1.4309
   9323SM   H9G12581   7.316   3.233   4.457 -1.1098  1.1290 -1.2268
   9323SM  C10F12582   7.241   3.131   4.644  0.0346  0.0869  0.8195
   9323SM  H10F12583   7.347   3.115   4.673  0.3138 -1.3693 -0.8157
   9323SM  H10G12584   7.178   3.042   4.664 -0.5042  0.1707 -0.3826
   9323SM  C11F12585   7.183   3.252   4.709  0.1222 -0.3884 -0.0343
   9323SM  H11F12586   7.079   3.250   4.670  0.7046  0.0519 -1.6882
   9323SM  H11G12587   7.236   3.346   4.682  0.3065 -0.2518  0.7561
   9323SM  C12F12588   7.175   3.252   4.868 -0.2221 -0.1077  0.3176
   9323SM  H12F12589   7.279   3.248   4.905 -0.1479 -0.8609  0.0483
   9323SM  H12G12590   7.119   3.158   4.889 -1.6468 -0.3777 -3.7029
   9323SM  C13F12591   7.101   3.380   4.911  0.0234  0.1594  0.2578
   9323SM  H13F12592   7.002   3.394   4.862 -0.8921  0.1910  2.0285
   9323SM  H13G12593   7.165   3.467   4.886  0.4764 -0.5937 -1.3543
   9323SM  C14F12594   7.081   3.387   5.061  0.4293  0.0365 -0.7087
   9323SM  H14F12595   7.177   3.418   5.108 -0.8286 -0.4974  2.4480
   9323SM  H14G12596   7.078   3.286   5.107 -0.9723  1.2877  2.1872
   9323SM  C15F12597   6.966   3.475   5.117  0.5489  0.5681  0.1224
   9323SM  H15F12598   6.871   3.430   5.081  0.8442 -0.9908  1.1889
   9323SM  H15G12599   6.970   3.581   5.084  1.3400  0.2932 -0.7195
   9323SM  C16F12600   6.972   3.468   5.270  0.8652  0.4986 -0.1587
   9323SM  H16F12601   7.072   3.512   5.291  0.1380  2.2984 -0.2909
   9323SM  H16G12602   6.964   3.359   5.288 -1.4842  0.6315 -0.1831
   9323SM  C17F12603   6.856   3.540   5.339 -0.3533  0.2095  0.2652
   9323SM  H17F12604   6.755   3.520   5.297  0.0128  0.1488 -0.6041
   9323SM  H17G12605   6.866   3.651   5.347  1.3944  0.0683  0.3984
   9323SM  C18F12606   6.852   3.495   5.485 -1.2219  0.4945  0.2975
   9323SM  H18F12607   6.946   3.535   5.528 -0.3694  0.4997 -1.4536
   9323SM  H18G12608   6.867   3.385   5.494  3.2280  0.7712 -1.3637
   9323SM  C19F12609   6.727   3.545   5.563  0.2361  0.0260  0.1024
   9323SM  H19F12610   6.638   3.482   5.540  1.3463 -1.7714  0.4700
   9323SM  H19G12611   6.714   3.643   5.513 -0.7304  0.0638  0.4150
   9323SM  C20F12612   6.746   3.553   5.715 -0.2413  0.5180  0.5602
   9323SM  H20F12613   6.804   3.646   5.733  0.0394  1.1215 -2.8022
   9323SM  H20G12614   6.803   3.460   5.738  0.3499  0.1397 -2.1649
   9323SM  C21F12615   6.615   3.556   5.798  0.5121  0.0056 -0.3158
   9323SM  H21F12616   6.557   3.462   5.803  1.6657 -0.6857  0.3024
   9323SM  H21G12617   6.548   3.637   5.760 -1.5607 -0.9170  1.1619
   9323SM  C22F12618   6.658   3.585   5.947 -0.1944  1.1885 -0.4772
   9323SM  H22F12619   6.725   3.506   5.988  0.5223  1.8165 -0.4199
   9323SM  H22G12620   6.562   3.558   5.996 -0.5005  0.1771 -1.6025
   9323SM  C23F12621   6.695   3.726   5.978  0.4320 -0.4438  0.0575
   9323SM  H23F12622   6.694   3.741   6.089 -0.0591 -1.8811  0.2716
   9323SM  H23G12623   6.619   3.791   5.931 -1.1697 -1.2710  1.4130
   9323SM  H23H12624   6.797   3.741   5.936 -0.5443 -0.5475 -2.4724
   9423SM     N12625   7.020   6.681   3.082  0.2750  0.0563  0.0598
   9423SM   C1512626   6.949   6.575   3.002  0.8546  0.3064 -0.1616
   9423SM  H15A12627   6.882   6.520   3.066  0.8302  0.5623  0.0342
   9423SM  H15B12628   7.017   6.497   2.971 -2.1499 -2.7472  0.4140
   9423SM  H15C12629   6.883   6.624   2.932 -1.3540 -1.6969  0.3934
   9423SM   C1412630   7.065   6.782   2.981  0.7813 -0.8137  0.3150
   9423SM  H14A12631   7.119   6.727   2.905 -0.2263 -0.0893 -0.9722
   9423SM  H14B12632   7.119   6.863   3.027  0.1045  0.7120 -1.4507
   9423SM  H14C12633   6.983   6.827   2.927 -0.5316 -1.4625  1.7006
   9423SM   C1312634   6.932   6.753   3.183 -0.9473  0.3961 -0.1214
   9423SM  H13A12635   6.991   6.824   3.240 -0.6829 -1.1741  1.6696
   9423SM  H13B12636   6.884   6.687   3.253 -0.5281 -0.3405 -0.5087
   9423SM  H13C12637   6.850   6.812   3.145  1.2677  2.8732 -1.4012
   9423SM   C1212638   7.126   6.603   3.161  0.5354  0.3583  0.2280
   9423SM  H12A12639   7.084   6.516   3.209  0.6546 -0.4566 -1.0739
   9423SM  H12B12640   7.169   6.673   3.230  0.2494  2.2753 -1.4546
   9423SM   C1112641   7.235   6.538   3.079 -0.6837 -0.2885 -0.1474
   9423SM  H11A12642   7.322   6.532   3.148 -0.1608  2.3591 -0.4633
   9423SM  H11B12643   7.252   6.607   2.993 -0.1182  0.2284  0.3690
   9423SM     P12644   7.219   6.274   3.089 -0.3378  0.2346  0.0322
   9423SM   O1312645   7.203   6.170   2.986 -0.0362 -0.1258 -0.5644
   9423SM   O1412646   7.346   6.272   3.169  0.0521 -0.2484 -0.0247
   9423SM   O1112647   7.100   6.283   3.187 -0.0347  0.6622 -1.1242
   9423SM   O1212648   7.203   6.411   3.028 -0.0614 -0.2512  0.7108
   9423SM   C1S12649   7.134   6.255   3.326 -0.2229 -0.3571  0.2195
   9423SM   H1S12650   7.200   6.334   3.368  0.5586  0.4538 -2.3305
   9423SM   H1T12651   7.193   6.162   3.339  0.5125 -0.1034 -1.0707
   9423SM    NF12652   7.044   6.261   3.552  0.3324 -0.6335 -0.6078
   9423SM   HNF12653   7.072   6.177   3.598 -0.4618 -0.3460  0.4243
   9423SM   C2S12654   7.010   6.238   3.411 -0.2112  0.1233 -0.7776
   9423SM   H2S12655   6.941   6.319   3.380 -0.2203  0.1474 -0.6931
   9423SM   C3S12656   6.953   6.094   3.374 -0.1080  0.3181 -0.1170
   9423SM   H3S12657   7.027   6.017   3.401  0.7040  1.5677  1.3627
   9423SM    O312658   6.919   6.074   3.236  0.5375 -0.1473  0.7429
   9423SM   HO312659   6.920   6.161   3.195 -3.4376 -0.8819 -1.4521
   9423SM   C4S12660   6.838   6.070   3.457  0.2817 -0.2565  1.0302
   9423SM   H4S12661   6.766   6.152   3.440  1.3369  0.2631 -1.2556
   9423SM   C5S12662   6.803   5.975   3.544 -0.3380 -0.0004  0.1478
   9423SM   H5S12663   6.883   5.909   3.581  0.4871  1.9360  1.9894
   9423SM   C6S12664   6.672   5.972   3.628  0.0632 -0.0233  0.1394
   9423SM   H6S12665   6.625   5.872   3.638 -0.6653  0.3347  0.3254
   9423SM   H6T12666   6.591   6.034   3.586  0.2592 -0.3780 -0.7803
   9423SM   C7S12667   6.699   6.006   3.782  0.6473 -0.0573 -0.4237
   9423SM   H7S12668   6.763   5.926   3.826  0.2805  1.3096  2.8784
   9423SM   H7T12669   6.602   5.987   3.833  1.2156  2.3481  1.7657
   9423SM   C8S12670   6.756   6.141   3.816 -0.0767 -0.2800  0.8657
   9423SM   H8S12671   6.701   6.215   3.754  2.6067 -0.6725 -2.2654
   9423SM   H8T12672   6.856   6.147   3.768  0.0244 -1.0890  0.9651
   9423SM   C9S12673   6.755   6.185   3.962 -0.2936  0.0852 -0.3716
   9423SM   H9S12674   6.800   6.286   3.955 -0.9141  0.3890 -0.0575
   9423SM   H9T12675   6.831   6.122   4.014 -0.1791 -0.7946 -1.5688
   9423SM  C10S12676   6.614   6.200   4.026  0.2609 -0.3299 -0.1702
   9423SM  H10S12677   6.562   6.102   4.020  2.0615 -1.3527  0.0449
   9423SM  H10T12678   6.552   6.285   3.992 -2.7272 -1.4766  2.0242
   9423SM  C11S12679   6.626   6.231   4.176 -0.4732 -0.4476 -0.0909
   9423SM  H11S12680   6.703   6.308   4.196  0.6170 -1.5241 -0.0308
   9423SM  H11T12681   6.657   6.130   4.212 -0.6214 -0.1629  0.8490
   9423SM  C12S12682   6.500   6.266   4.245  0.5548 -0.1553  0.1431
   9423SM  H12S12683   6.442   6.172   4.258  0.4929 -0.1325  0.0370
   9423SM  H12T12684   6.446   6.336   4.177 -1.7048 -2.5576 -0.7372
   9423SM  C13S12685   6.514   6.323   4.384  0.0286 -0.5812  0.3695
   9423SM  H13S12686   6.419   6.364   4.426 -0.9060 -1.5575 -0.7385
   9423SM  H13T12687   6.587   6.406   4.375  0.8322 -1.0974  1.7656
   9423SM  C14S12688   6.586   6.225   4.478  0.3252 -0.0187  0.5246
   9423SM  H14S12689   6.685   6.200   4.433  0.6261  2.7365 -0.5899
   9423SM  H14T12690   6.533   6.129   4.490  2.3032 -1.2660 -0.2598
   9423SM  C15S12691   6.611   6.297   4.613 -0.0163 -0.4122 -0.2703
   9423SM  H15S12692   6.513   6.322   4.659  0.1182  2.0587 -1.1575
   9423SM  H15T12693   6.653   6.399   4.598 -1.0245  0.5201  2.6841
   9423SM  C16S12694   6.691   6.225   4.721  0.5309  0.1229  0.0502
   9423SM  H16S12695   6.801   6.237   4.711  0.7423 -0.7238  1.1770
   9423SM  H16T12696   6.660   6.119   4.709  1.7883 -0.3110  0.4477
   9423SM  C17S12697   6.643   6.274   4.864 -0.8257  0.1799  0.5878
   9423SM  H17S12698   6.533   6.289   4.861 -1.0988 -1.6884 -1.2614
   9423SM  H17T12699   6.684   6.377   4.869 -1.1105  0.3048  0.3125
   9423SM  C18S12700   6.691   6.185   4.978 -0.4546  0.5411 -0.0045
   9423SM  H18S12701   6.650   6.082   4.966 -0.8265  0.4052  2.0939
   9423SM  H18T12702   6.658   6.221   5.078 -1.0001 -1.1160  0.4451
   9423SM  H18U12703   6.801   6.176   4.978 -0.5894 -1.7367  0.5348
   9423SM   C1F12704   7.081   6.378   3.607  0.4001  1.1435  0.1445
   9423SM    OF12705   7.058   6.480   3.555 -0.4413 -0.1059  0.2159
   9423SM   C2F12706   7.149   6.357   3.736 -0.1190 -0.4082  0.2851
   9423SM   H2F12707   7.098   6.290   3.808 -0.2818  0.0934  0.6444
   9423SM   H2G12708   7.148   6.460   3.779 -3.3010 -0.7980  1.3857
   9423SM   C3F12709   7.302   6.333   3.725 -0.0196  0.4323 -1.2872
   9423SM   H3F12710   7.347   6.419   3.670  1.5540 -0.1264 -0.9226
   9423SM   H3G12711   7.324   6.240   3.668  0.0903  1.6688 -3.3804
   9423SM   C4F12712   7.381   6.320   3.856 -0.4928  0.3856 -0.1047
   9423SM   H4F12713   7.484   6.285   3.835 -1.2685 -1.1971 -1.5337
   9423SM   H4G12714   7.332   6.241   3.919 -0.9528  0.0826 -0.8211
   9423SM   C5F12715   7.372   6.456   3.929 -0.0916  0.0806  0.3910
   9423SM   H5F12716   7.264   6.471   3.950 -0.4936 -2.2292  0.2390
   9423SM   H5G12717   7.404   6.525   3.849 -0.0094  1.1714  1.3370
   9423SM   C6F12718   7.463   6.467   4.047 -0.4249  0.4982  0.0955
   9423SM   H6F12719   7.566   6.431   4.025 -0.5449  0.5807 -0.6507
   9423SM   H6G12720   7.422   6.394   4.120 -0.6919  0.4612 -0.0880
   9423SM   C7F12721   7.468   6.607   4.097  0.3517 -0.9362 -0.7059
   9423SM   H7F12722   7.368   6.653   4.088  1.3680  1.2814 -1.2551
   9423SM   H7G12723   7.528   6.654   4.017  0.3116 -0.8887 -0.7074
   9423SM   C8F12724   7.543   6.632   4.225  0.0162 -0.6544 -0.1422
   9423SM   H8F12725   7.603   6.726   4.227 -1.6964  0.4846  1.5245
   9423SM   H8G12726   7.608   6.545   4.246  0.4861 -0.5129 -1.0134
   9423SM   C9F12727   7.448   6.634   4.340  0.1112 -0.9630 -0.7015
   9423SM   H9F12728   7.512   6.640   4.431  2.1775  2.4662 -2.2174
   9423SM   H9G12729   7.384   6.544   4.330 -0.6965 -0.2086 -3.0256
   9423SM  C10F12730   7.350   6.757   4.354  0.6743 -0.0978 -0.0788
   9423SM  H10F12731   7.287   6.733   4.442  3.3588  0.4719  2.1612
   9423SM  H10G12732   7.290   6.755   4.261 -0.4387 -0.9001  0.6365
   9423SM  C11F12733   7.425   6.892   4.384  0.5835 -0.8257  0.5304
   9423SM  H11F12734   7.349   6.972   4.396 -0.1475 -1.3431 -0.5624
   9423SM  H11G12735   7.472   6.928   4.290  0.0613  0.0186  0.5776
   9423SM  C12F12736   7.511   6.901   4.512  0.1871 -0.4638  0.1184
   9423SM  H12F12737   7.611   6.853   4.501  1.1393  1.6103 -0.6894
   9423SM  H12G12738   7.454   6.861   4.599 -0.2933  0.6114  0.3066
   9423SM  C13F12739   7.531   7.050   4.555 -0.6954  0.1391 -0.1231
   9423SM  H13F12740   7.437   7.087   4.601 -0.6338  0.3786 -0.1888
   9423SM  H13G12741   7.568   7.117   4.474 -1.8676 -0.6969 -1.4015
   9423SM  C14F12742   7.635   7.060   4.671 -0.4825  0.3759  0.1308
   9423SM  H14F12743   7.645   7.169   4.690 -3.1396  0.7887 -0.4614
   9423SM  H14G12744   7.723   7.002   4.638  1.0143  1.5662  1.8192
   9423SM  C15F12745   7.610   7.001   4.809 -0.0338 -0.0501  0.4753
   9423SM  H15F12746   7.616   6.890   4.797 -2.1280 -0.0203 -1.5842
   9423SM  H15G12747   7.507   7.015   4.849  0.5253  1.1358  1.5587
   9423SM  C16F12748   7.699   7.056   4.923 -0.0937 -0.2748  0.5186
   9423SM  H16F12749   7.676   7.158   4.959  2.8253 -0.0157  2.0006
   9423SM  H16G12750   7.805   7.047   4.889 -0.4826 -0.4580 -0.6880
   9423SM  C17F12751   7.690   6.964   5.044 -0.3739 -0.3658 -0.9572
   9423SM  H17F12752   7.709   6.857   5.020  0.9882  0.1835 -2.5482
   9423SM  H17G12753   7.588   6.972   5.086 -0.1073 -3.9434  0.7831
   9423SM  C18F12754   7.796   7.002   5.155 -0.3483 -1.0791  0.2571
   9423SM  H18F12755   7.795   7.113   5.153 -0.5089 -1.0744  0.4865
   9423SM  H18G12756   7.902   6.978   5.133  1.0115  1.3424  3.3603
   9423SM  C19F12757   7.774   6.949   5.297  0.3595  0.2632 -0.2546
   9423SM  H19F12758   7.853   6.988   5.364  0.3832 -0.6976  0.2914
   9423SM  H19G12759   7.785   6.839   5.304 -0.5767  0.2145  0.6688
   9423SM  C20F12760   7.634   6.999   5.355 -0.3747  0.4848  0.3234
   9423SM  H20F12761   7.552   6.962   5.290 -2.9770  1.0713  3.0443
   9423SM  H20G12762   7.635   7.110   5.347  1.7286  0.6963  2.3310
   9423SM  C21F12763   7.607   6.956   5.496 -0.2916  0.2737  0.5849
   9423SM  H21F12764   7.706   6.968   5.545  0.1542  2.0318 -0.6178
   9423SM  H21G12765   7.565   6.853   5.494 -1.2915  0.6138  2.2090
   9423SM  C22F12766   7.514   7.049   5.575 -0.2471  0.3675  0.1592
   9423SM  H22F12767   7.421   7.061   5.515  0.1959  0.0894 -0.6064
   9423SM  H22G12768   7.573   7.141   5.596 -0.4704  0.7672 -0.8794
   9423SM  C23F12769   7.462   6.995   5.711 -0.1786  0.2657  0.6311
   9423SM  H23F12770   7.542   6.946   5.771 -0.8589  0.5788  1.8476
   9423SM  H23G12771   7.388   6.916   5.688  0.9382 -0.5151 -0.3979
   9423SM  H23H12772   7.415   7.082   5.761 -0.8848  0.9592 -1.1606
   9523SM     N12773   1.822   2.433   2.706  0.4556  0.4705  0.0746
   9523SM   C1512774   1.700   2.422   2.786 -1.2265  0.2120  0.4673
   9523SM  H15A12775   1.695   2.495   2.865 -2.1594 -1.3511  1.9252
   9523SM  H15B12776   1.691   2.324   2.830  2.4929  0.9576  3.3788
   9523SM  H15C12777   1.621   2.428   2.713 -0.1579 -1.7696 -0.9507
   9523SM   C1412778   1.825   2.349   2.580 -0.5224  0.2893  0.0979
   9523SM  H14A12779   1.923   2.350   2.533 -0.4041 -0.1907  0.3197
   9523SM  H14B12780   1.746   2.377   2.513 -0.4529 -0.7700 -0.4430
   9523SM  H14C12781   1.815   2.246   2.611 -0.6298 -0.3311 -1.8730
   9523SM   C1312782   1.838   2.576   2.664  0.1809  0.7548 -0.6387
   9523SM  H13A12783   1.763   2.599   2.590 -0.7675 -0.2920 -0.0312
   9523SM  H13B12784   1.933   2.599   2.618  1.0582  1.3599  1.3673
   9523SM  H13C12785   1.836   2.638   2.753 -2.0691 -1.3074  0.8957
   9523SM   C1212786   1.932   2.396   2.803 -0.9349  0.7250 -0.2905
   9523SM  H12A12787   1.927   2.458   2.891  1.1597  0.5540 -0.0148
   9523SM  H12B12788   2.023   2.426   2.754  1.2063  0.4821  3.2412
   9523SM   C1112789   1.951   2.252   2.848 -0.4806  0.2288  0.5551
   9523SM  H11A12790   1.860   2.218   2.903 -1.0596  1.1788  0.2196
   9523SM  H11B12791   2.033   2.255   2.922  0.6784 -0.7864 -0.6459
   9523SM     P12792   2.129   2.115   2.703 -0.1600 -0.0536 -0.2233
   9523SM   O1312793   2.114   2.015   2.595 -0.1841 -0.2308 -0.1696
   9523SM   O1412794   2.218   2.232   2.689  0.1329  0.3348 -0.0671
   9523SM   O1112795   2.168   2.045   2.842 -0.0279  0.5040  0.5101
   9523SM   O1212796   1.978   2.167   2.736 -0.1496 -0.1673  0.2094
   9523SM   C1S12797   2.210   1.907   2.840  0.3391 -0.0570 -0.5778
   9523SM   H1S12798   2.308   1.901   2.787 -0.2513  0.3622 -1.7500
   9523SM   H1T12799   2.141   1.843   2.781  0.4340  0.0703 -0.8310
   9523SM    NF12800   2.259   1.718   3.001 -0.4288 -0.8487 -0.0823
   9523SM   HNF12801   2.200   1.651   3.044  0.2048 -0.9488  0.6356
   9523SM   C2S12802   2.197   1.854   2.988  0.0415 -0.3102  0.4354
   9523SM   H2S12803   2.257   1.922   3.052 -0.4377  0.5698 -0.0220
   9523SM   C3S12804   2.051   1.861   3.043  0.8967  0.5760 -0.9450
   9523SM   H3S12805   1.999   1.771   3.003  0.3362  0.8852 -0.9193
   9523SM    O312806   1.967   1.968   2.998  0.2571 -0.6858  0.4167
   9523SM   HO312807   2.028   2.015   2.940 -0.7774 -0.5733 -0.6071
   9523SM   C4S12808   2.054   1.842   3.196 -0.0031 -0.0787 -0.6462
   9523SM   H4S12809   2.007   1.748   3.229 -1.6372  0.9612  0.1347
   9523SM   C5S12810   2.063   1.941   3.288  0.6781  0.3394  0.4156
   9523SM   H5S12811   2.058   2.047   3.258  3.3071 -0.0824 -2.0350
   9523SM   C6S12812   2.058   1.920   3.435  0.0296  0.7488  0.4560
   9523SM   H6S12813   1.995   1.832   3.458 -0.3732  0.0541 -2.7810
   9523SM   H6T12814   2.009   1.996   3.499 -2.1185 -1.9091  2.1581
   9523SM   C7S12815   2.201   1.895   3.492 -0.4445 -0.3765  0.7882
   9523SM   H7S12816   2.252   1.993   3.482  1.0121 -1.2375 -0.8052
   9523SM   H7T12817   2.252   1.810   3.442  1.1440  0.6662  0.5785
   9523SM   C8S12818   2.208   1.879   3.642 -0.1080  0.3944 -0.7521
   9523SM   H8S12819   2.140   1.940   3.705  2.9945  0.3009  3.0686
   9523SM   H8T12820   2.309   1.910   3.677  0.9812 -1.7218 -1.8185
   9523SM   C9S12821   2.197   1.733   3.688  1.2958 -0.4288  0.4377
   9523SM   H9S12822   2.247   1.670   3.612 -0.2332  0.3222 -1.2796
   9523SM   H9T12823   2.090   1.702   3.690  0.5960  1.7742  0.2050
   9523SM  C10S12824   2.273   1.716   3.814 -0.2562  0.5579 -1.0322
   9523SM  H10S12825   2.379   1.746   3.798  0.4505 -0.2849  1.6102
   9523SM  H10T12826   2.280   1.607   3.836 -0.4022  1.4665  5.1396
   9523SM  C11S12827   2.210   1.793   3.930  0.3067 -0.5506  0.1450
   9523SM  H11S12828   2.108   1.749   3.936  0.3418 -1.0957 -2.1470
   9523SM  H11T12829   2.197   1.903   3.918 -0.0106 -0.6771 -0.7788
   9523SM  C12S12830   2.274   1.766   4.064 -0.3028  0.1613  0.1189
   9523SM  H12S12831   2.380   1.797   4.052 -0.1206 -0.6997 -0.5921
   9523SM  H12T12832   2.257   1.657   4.070  1.0481 -0.0819 -0.2397
   9523SM  C13S12833   2.204   1.829   4.187 -0.3453  0.2005 -0.2297
   9523SM  H13S12834   2.103   1.784   4.195  0.9021 -2.9162 -0.5485
   9523SM  H13T12835   2.205   1.938   4.166  1.5200  0.4703  0.9888
   9523SM  C14S12836   2.280   1.810   4.322 -0.0828 -0.7414  0.2658
   9523SM  H14S12837   2.211   1.856   4.396  0.3207  1.8936 -0.8752
   9523SM  H14T12838   2.371   1.873   4.319 -0.9706  0.5570 -0.1860
   9523SM  C15S12839   2.317   1.659   4.338 -0.5698  0.2741  0.3105
   9523SM  H15S12840   2.412   1.635   4.286 -0.1645  0.3906  0.9855
   9523SM  H15T12841   2.231   1.597   4.305 -0.8672  1.4685 -1.2779
   9523SM  C16S12842   2.353   1.637   4.480 -0.2743 -0.0997  0.5554
   9523SM  H16S12843   2.270   1.670   4.545  1.1417  0.8408  1.9606
   9523SM  H16T12844   2.442   1.697   4.508  0.1377  0.7349 -2.2176
   9523SM  C17S12845   2.392   1.492   4.515  0.0051  0.5156  0.2195
   9523SM  H17S12846   2.464   1.459   4.438 -1.1449 -1.3389 -0.0969
   9523SM  H17T12847   2.299   1.431   4.521  1.1040 -1.1349  1.4531
   9523SM  C18S12848   2.449   1.489   4.653 -0.1532  0.5807 -0.0067
   9523SM  H18S12849   2.529   1.566   4.646 -0.4655  0.7923 -1.7292
   9523SM  H18T12850   2.497   1.392   4.675  0.3258  0.5580 -1.1006
   9523SM  H18U12851   2.379   1.515   4.736  1.0639  1.8065  0.6798
   9523SM   C1F12852   2.376   1.681   2.952  0.3592 -0.2803  0.0308
   9523SM    OF12853   2.458   1.772   2.930  0.1445 -0.6595  0.3312
   9523SM   C2F12854   2.386   1.533   2.920 -0.0066 -0.5535  0.1853
   9523SM   H2F12855   2.326   1.530   2.827  0.5842  1.3787 -0.2935
   9523SM   H2G12856   2.333   1.475   2.999 -0.3024 -2.1060 -1.1147
   9523SM   C3F12857   2.528   1.471   2.918  0.7212 -1.1016  0.4492
   9523SM   H3F12858   2.583   1.513   2.831 -2.9115  2.1172 -0.5764
   9523SM   H3G12859   2.513   1.365   2.890  0.0216 -0.5600 -1.3919
   9523SM   C4F12860   2.602   1.492   3.047 -0.2223 -0.3201  0.8465
   9523SM   H4F12861   2.534   1.453   3.125 -0.4665 -0.7770  0.4088
   9523SM   H4G12862   2.634   1.598   3.062  2.2075 -1.0116  0.9892
   9523SM   C5F12863   2.739   1.415   3.053 -0.6781 -0.0336  0.3573
   9523SM   H5F12864   2.799   1.478   2.984 -1.3956 -0.6020 -0.8228
   9523SM   H5G12865   2.725   1.315   3.006 -0.8192  0.4665 -0.6814
   9523SM   C6F12866   2.804   1.419   3.190  0.1182  0.0407 -0.3696
   9523SM   H6F12867   2.731   1.379   3.264 -0.7861 -0.6649 -1.6094
   9523SM   H6G12868   2.828   1.524   3.217  5.1987 -1.0276  0.2990
   9523SM   C7F12869   2.932   1.335   3.205  0.0435 -0.3026  0.3718
   9523SM   H7F12870   3.004   1.384   3.137 -0.4194 -1.2896 -0.8747
   9523SM   H7G12871   2.920   1.232   3.165  2.7060 -0.4877 -0.1046
   9523SM   C8F12872   2.987   1.336   3.353  0.5604 -0.1944  0.0239
   9523SM   H8F12873   3.003   1.444   3.372 -1.5788  0.3873 -1.2055
   9523SM   H8G12874   3.088   1.291   3.365  0.5602 -0.1963  0.0187
   9523SM   C9F12875   2.899   1.278   3.466 -0.4834 -0.2571 -0.4009
   9523SM   H9F12876   2.892   1.168   3.478 -1.9298 -0.1097  0.3593
   9523SM   H9G12877   2.797   1.322   3.454 -0.3930 -0.0948 -0.5799
   9523SM  C10F12878   2.950   1.320   3.602  0.4721 -0.6644  0.2898
   9523SM  H10F12879   2.957   1.429   3.619  1.3242 -0.2223 -2.4849
   9523SM  H10G12880   3.056   1.290   3.618  0.7460  0.5171  0.7702
   9523SM  C11F12881   2.874   1.253   3.721  0.2287  0.4761  0.2298
   9523SM  H11F12882   2.872   1.145   3.696 -1.6671 -0.2688  3.2147
   9523SM  H11G12883   2.772   1.297   3.717  0.0324 -0.0293 -0.8344
   9523SM  C12F12884   2.946   1.291   3.848  0.4105 -0.4804 -0.0727
   9523SM  H12F12885   2.950   1.400   3.868  1.5286 -0.5430  0.1214
   9523SM  H12G12886   3.053   1.263   3.835  0.8402  0.0604  1.8807
   9523SM  C13F12887   2.872   1.228   3.968  0.2562 -0.5510  0.4083
   9523SM  H13F12888   2.897   1.120   3.976 -0.9302 -1.0421 -1.6161
   9523SM  H13G12889   2.761   1.231   3.960 -0.0356  0.2075  3.4932
   9523SM  C14F12890   2.924   1.273   4.106  0.1483 -0.1528  0.1623
   9523SM  H14F12891   2.938   1.382   4.095  1.3608 -0.2846  0.3168
   9523SM  H14G12892   3.021   1.222   4.126 -0.6599 -0.6366  3.5466
   9523SM  C15F12893   2.850   1.231   4.225 -0.0891 -0.3181  0.2058
   9523SM  H15F12894   2.829   1.124   4.207  1.9875 -0.9368  1.2247
   9523SM  H15G12895   2.749   1.277   4.229 -0.5191 -1.2459  0.2420
   9523SM  C16F12896   2.915   1.254   4.362  0.4571 -0.0946 -0.2362
   9523SM  H16F12897   2.946   1.361   4.365 -1.8880  0.6320  1.9590
   9523SM  H16G12898   3.005   1.191   4.380 -0.5475 -1.4324  0.2677
   9523SM  C17F12899   2.810   1.222   4.469  0.6941 -0.2714  0.3817
   9523SM  H17F12900   2.764   1.121   4.459 -0.5312  0.0421  2.3377
   9523SM  H17G12901   2.726   1.294   4.478  1.0280  0.1869 -0.1123
   9523SM  C18F12902   2.898   1.227   4.601  0.4119 -0.2547  0.2237
   9523SM  H18F12903   2.898   1.335   4.631  0.5927  0.3628 -1.8718
   9523SM  H18G12904   3.003   1.191   4.589  0.9238  0.4281  2.2163
   9523SM  C19F12905   2.829   1.150   4.717 -0.2873  0.0789 -0.2225
   9523SM  H19F12906   2.839   1.042   4.694 -0.4529  0.1198 -0.4842
   9523SM  H19G12907   2.720   1.171   4.722 -0.7554 -2.3611  1.0243
   9523SM  C20F12908   2.899   1.168   4.855 -0.1480 -0.3614  0.0849
   9523SM  H20F12909   2.900   1.279   4.860 -0.8865 -0.3352 -0.3010
   9523SM  H20G12910   3.005   1.134   4.857  0.0568  0.2706  0.6851
   9523SM  C21F12911   2.819   1.107   4.968 -0.7475 -0.4155 -0.0741
   9523SM  H21F12912   2.713   1.088   4.943 -0.5557  0.7606 -1.9400
   9523SM  H21G12913   2.807   1.182   5.050 -0.3100  0.7193 -1.0184
   9523SM  C22F12914   2.883   0.975   5.029  0.0797  0.0717  0.9778
   9523SM  H22F12915   2.824   0.955   5.120 -0.9481  0.2527  0.3667
   9523SM  H22G12916   2.984   1.004   5.066  0.8561 -0.3042 -0.7336
   9523SM  C23F12917   2.894   0.851   4.947 -0.3375  0.3030  0.2502
   9523SM  H23F12918   2.940   0.774   5.013  1.2977  1.2931  0.3531
   9523SM  H23G12919   2.954   0.866   4.855 -0.6425  0.8199  0.1297
   9523SM  H23H12920   2.793   0.811   4.927  0.0024 -2.4252  3.1647
   9623SM     N12921   3.826   6.436   2.890 -0.2435 -0.3779  0.3671
   9623SM   C1512922   3.952   6.473   2.824  0.3750  0.4403 -0.2078
   9623SM  H15A12923   4.017   6.389   2.803  2.3297  1.8804 -0.3287
   9623SM  H15B12924   4.006   6.533   2.896  1.3212  0.4220 -0.8761
   9623SM  H15C12925   3.931   6.525   2.731 -1.4032  1.1074  0.5311
   9623SM   C1412926   3.726   6.375   2.794  0.1401 -0.5506  0.3227
   9623SM  H14A12927   3.722   6.428   2.700 -0.4949 -0.1568  0.5643
   9623SM  H14B12928   3.625   6.392   2.829 -0.5984  0.8350 -2.2062
   9623SM  H14C12929   3.748   6.271   2.776  0.3565 -0.8768  2.2722
   9623SM   C1312930   3.859   6.338   2.999 -0.1994  0.4582  0.3153
   9623SM  H13A12931   3.767   6.308   3.047  1.2212  0.5141  3.2748
   9623SM  H13B12932   3.918   6.383   3.077  2.1914  0.3483 -1.3331
   9623SM  H13C12933   3.913   6.251   2.964  1.4790  2.0586 -1.3114
   9623SM   C1212934   3.764   6.569   2.949 -0.3081 -0.4016 -0.1608
   9623SM  H12A12935   3.747   6.646   2.875  0.0868  0.3810  0.5544
   9623SM  H12B12936   3.826   6.611   3.026 -1.9752  1.2190  0.3439
   9623SM   C1112937   3.631   6.552   3.027 -0.0020 -0.2281 -0.2647
   9623SM  H11A12938   3.601   6.646   3.077 -0.1902 -0.2098 -0.4090
   9623SM  H11B12939   3.636   6.472   3.104 -3.6274 -0.4303 -0.0427
   9623SM     P12940   3.463   6.626   2.841 -0.0039 -0.2492 -0.2883
   9623SM   O1312941   3.567   6.723   2.798  0.6743 -0.4049  0.2663
   9623SM   O1412942   3.386   6.553   2.739  0.3688  0.0545  0.1224
   9623SM   O1112943   3.362   6.697   2.946 -0.2226 -0.3753 -0.6144
   9623SM   O1212944   3.526   6.515   2.939 -0.3503 -0.0170 -0.2363
   9623SM   C1S12945   3.271   6.612   3.016 -0.0255 -0.1385  0.4010
   9623SM   H1S12946   3.317   6.514   3.043 -0.3912 -0.9668 -1.7561
   9623SM   H1T12947   3.185   6.591   2.950  0.4653  1.2493 -0.7400
   9623SM    NF12948   3.136   6.593   3.226  0.0219  0.4139 -0.2701
   9623SM   HNF12949   3.040   6.622   3.231 -0.2588 -0.3093  5.3833
   9623SM   C2S12950   3.229   6.677   3.157 -0.1570 -0.4528 -0.5571
   9623SM   H2S12951   3.319   6.703   3.217 -0.6898  1.8385 -0.6665
   9623SM   C3S12952   3.178   6.822   3.135 -1.6694 -0.1430  0.3659
   9623SM   H3S12953   3.084   6.806   3.078 -3.5549  3.9680  1.8928
   9623SM    O312954   3.268   6.902   3.059 -0.8260 -0.6400  0.3428
   9623SM   HO312955   3.301   6.830   3.005 -2.1244 -0.8682 -0.2017
   9623SM   C4S12956   3.124   6.891   3.256 -0.6337 -0.3434  0.1031
   9623SM   H4S12957   3.021   6.860   3.277 -0.9634 -0.6966 -1.7761
   9623SM   C5S12958   3.177   6.987   3.336  0.2603  0.8638  0.3008
   9623SM   H5S12959   3.266   7.043   3.303  0.8641  0.1342  0.6658
   9623SM   C6S12960   3.127   7.038   3.466 -0.0181 -0.3070  0.0287
   9623SM   H6S12961   3.040   6.978   3.501  0.2659 -1.4077 -1.0852
   9623SM   H6T12962   3.103   7.146   3.454  0.8670 -0.1281 -0.1562
   9623SM   C7S12963   3.233   7.035   3.579  0.2629 -0.1379 -0.2298
   9623SM   H7S12964   3.310   7.113   3.561 -1.2244  1.2379 -0.8243
   9623SM   H7T12965   3.274   6.932   3.591  1.9167  0.4365 -0.7148
   9623SM   C8S12966   3.181   7.074   3.717  0.5661 -1.1891  0.1470
   9623SM   H8S12967   3.094   7.018   3.759 -0.1762  0.7864  1.3847
   9623SM   H8T12968   3.128   7.168   3.691  0.1856 -0.9677  1.6239
   9623SM   C9S12969   3.281   7.087   3.826 -0.5032  0.1041 -0.2540
   9623SM   H9S12970   3.369   7.152   3.807 -1.2753  0.8170 -1.5827
   9623SM   H9T12971   3.316   6.986   3.856 -1.4644 -0.5355 -1.2218
   9623SM  C10S12972   3.205   7.128   3.956 -0.3340 -0.0433  0.4260
   9623SM  H10S12973   3.128   7.052   3.979 -0.2808 -0.2690 -0.1327
   9623SM  H10T12974   3.162   7.230   3.959 -1.6920 -0.5933  0.4061
   9623SM  C11S12975   3.299   7.122   4.078  0.2824 -0.4067 -0.8596
   9623SM  H11S12976   3.376   7.201   4.065  0.9399 -0.6864  1.0272
   9623SM  H11T12977   3.341   7.021   4.096 -3.5727 -1.8320  1.3490
   9623SM  C12S12978   3.227   7.162   4.210 -0.3697  0.2314  0.2265
   9623SM  H12S12979   3.165   7.073   4.235  0.5776 -0.2983  0.7425
   9623SM  H12T12980   3.153   7.245   4.200  0.7042  1.1915 -0.0860
   9623SM  C13S12981   3.318   7.195   4.331 -0.3701  0.2873  0.0880
   9623SM  H13S12982   3.331   7.304   4.341  0.8834  0.1340  0.2710
   9623SM  H13T12983   3.420   7.154   4.310 -0.1263  0.7694  0.3160
   9623SM  C14S12984   3.265   7.142   4.468 -0.5554 -0.1064  0.5477
   9623SM  H14S12985   3.254   7.032   4.475  2.2914 -0.3696  2.8400
   9623SM  H14T12986   3.166   7.188   4.486  0.3516  2.5674 -0.7043
   9623SM  C15S12987   3.369   7.173   4.578 -0.9216  0.6886  0.7143
   9623SM  H15S12988   3.395   7.280   4.566 -1.1764  0.8823  1.7625
   9623SM  H15T12989   3.455   7.107   4.556 -0.9157  1.3134 -1.2928
   9623SM  C16S12990   3.332   7.131   4.717 -0.9378  0.6880 -0.4254
   9623SM  H16S12991   3.297   7.027   4.701 -1.6678  1.2273 -2.7295
   9623SM  H16T12992   3.252   7.194   4.763  0.9113  1.2469  2.2659
   9623SM  C17S12993   3.443   7.132   4.823 -0.0113 -0.0968  0.0629
   9623SM  H17S12994   3.467   7.238   4.846 -1.1696 -0.0471  1.1973
   9623SM  H17T12995   3.537   7.079   4.799 -0.5462 -1.1762  0.2478
   9623SM  C18S12996   3.403   7.077   4.959 -0.6354  0.1450  0.5070
   9623SM  H18S12997   3.307   7.121   4.995 -0.3264  0.5450  0.8520
   9623SM  H18T12998   3.482   7.100   5.034 -1.8976 -1.1743  2.3510
   9623SM  H18U12999   3.378   6.969   4.961 -2.6476  0.5275 -0.9176
   9623SM   C1F13000   3.174   6.482   3.302  0.7535 -0.4552  1.0802
   9623SM    OF13001   3.289   6.449   3.316 -0.1886  0.3544 -0.5942
   9623SM   C2F13002   3.067   6.415   3.377 -0.1488  0.3032 -0.1303
   9623SM   H2F13003   3.031   6.331   3.314  0.6446  0.5323 -0.9029
   9623SM   H2G13004   2.987   6.485   3.410  0.3281 -0.7026  3.7009
   9623SM   C3F13005   3.123   6.335   3.500  0.2682  0.3386  0.1423
   9623SM   H3F13006   3.161   6.409   3.574  0.1121 -0.8765  1.4920
   9623SM   H3G13007   3.208   6.270   3.470 -0.3247 -1.0821  1.3454
   9623SM   C4F13008   3.031   6.237   3.573 -0.3300 -0.3623  0.3452
   9623SM   H4F13009   3.012   6.148   3.510  1.3213  0.1839 -0.9916
   9623SM   H4G13010   2.930   6.284   3.581 -0.2034  0.1315 -0.7649
   9623SM   C5F13011   3.070   6.201   3.715  0.5209 -0.4373 -0.3392
   9623SM   H5F13012   3.179   6.207   3.734  0.2886 -1.3200  1.5899
   9623SM   H5G13013   3.029   6.101   3.740 -0.5107 -0.2243 -1.1315
   9623SM   C6F13014   3.003   6.285   3.823  0.1019 -1.1541  0.0144
   9623SM   H6F13015   2.892   6.296   3.818 -0.1798 -3.1267  0.7272
   9623SM   H6G13016   3.053   6.383   3.817  0.3299 -1.2900 -0.2939
   9623SM   C7F13017   3.016   6.227   3.963  0.1166 -0.0418  0.2266
   9623SM   H7F13018   3.121   6.194   3.979  0.4911  1.1899  0.4093
   9623SM   H7G13019   2.963   6.129   3.963  0.6951 -0.4089  2.4056
   9623SM   C8F13020   2.976   6.319   4.080 -0.2655 -0.7013 -0.4032
   9623SM   H8F13021   2.869   6.347   4.081  0.1496  1.0531  0.9991
   9623SM   H8G13022   3.032   6.411   4.050  0.1116 -0.7659  0.0980
   9623SM   C9F13023   3.013   6.265   4.220  0.0541 -0.1487  0.3012
   9623SM   H9F13024   3.122   6.284   4.231  0.0921  0.5804 -1.1203
   9623SM   H9G13025   3.004   6.156   4.238  0.8299 -0.3223 -0.3071
   9623SM  C10F13026   2.935   6.342   4.324 -0.1566  0.8110  0.0900
   9623SM  H10F13027   2.830   6.305   4.325  0.0057  0.2635  2.1412
   9623SM  H10G13028   2.935   6.450   4.299 -1.6572  1.3012  1.9074
   9623SM  C11F13029   2.984   6.314   4.467  0.3385  0.0586  0.7052
   9623SM  H11F13030   2.918   6.371   4.534 -1.2319 -2.2850  1.2705
   9623SM  H11G13031   3.092   6.340   4.469  0.6126 -0.8936 -0.2381
   9623SM  C12F13032   2.964   6.168   4.508  0.1443 -0.0062 -0.2709
   9623SM  H12F13033   3.059   6.117   4.486  0.8308 -0.1077  2.4961
   9623SM  H12G13034   2.889   6.115   4.445 -0.5281 -1.9659  2.0189
   9623SM  C13F13035   2.917   6.141   4.649 -0.4975 -0.1413 -0.8904
   9623SM  H13F13036   2.814   6.183   4.656 -0.9772 -1.1818 -1.4698
   9623SM  H13G13037   2.980   6.189   4.728 -0.7163 -1.8546  0.3838
   9623SM  C14F13038   2.887   5.992   4.685  0.0282 -0.4494  0.8516
   9623SM  H14F13039   2.977   5.936   4.651  0.7556  1.1709  0.0042
   9623SM  H14G13040   2.798   5.948   4.634  0.4570 -1.2654  0.8014
   9623SM  C15F13041   2.874   5.980   4.839  0.1705  0.6511 -0.1396
   9623SM  H15F13042   2.770   6.017   4.855 -0.3210  0.9869 -3.3671
   9623SM  H15G13043   2.944   6.048   4.891  1.0186 -0.4991  0.2541
   9623SM  C16F13044   2.883   5.841   4.894  1.0311  0.3089 -0.2425
   9623SM  H16F13045   2.987   5.804   4.900  0.7934 -0.7300 -1.8805
   9623SM  H16G13046   2.837   5.765   4.826  0.6956  0.9910 -0.7942
   9623SM  C17F13047   2.814   5.830   5.029 -0.1979  0.2221  0.3808
   9623SM  H17F13048   2.705   5.849   5.036 -0.0235  0.8645  1.6776
   9623SM  H17G13049   2.865   5.904   5.094  2.3560  0.5858 -1.8371
   9623SM  C18F13050   2.845   5.694   5.104 -0.1928 -0.4626  0.4080
   9623SM  H18F13051   2.836   5.604   5.039  1.1775 -1.0648  1.0047
   9623SM  H18G13052   2.765   5.680   5.180  0.4653 -2.9844  0.7526
   9623SM  C19F13053   2.984   5.698   5.159 -0.2468  0.3995  0.2348
   9623SM  H19F13054   2.997   5.799   5.204  1.7389  0.7870 -1.0952
   9623SM  H19G13055   3.056   5.682   5.076 -1.1198  3.2319 -1.2217
   9623SM  C20F13056   3.009   5.596   5.265 -0.5459 -0.5215 -0.4906
   9623SM  H20F13057   2.936   5.593   5.349  0.4484  1.3556  0.5178
   9623SM  H20G13058   3.107   5.620   5.312 -0.9320  1.4138 -0.6039
   9623SM  C21F13059   2.990   5.460   5.201  0.0328  0.4670 -0.7133
   9623SM  H21F13060   3.066   5.449   5.120 -0.2167  3.0081 -1.3846
   9623SM  H21G13061   2.897   5.452   5.140  1.6130 -2.2658 -2.9803
   9623SM  C22F13062   2.994   5.339   5.297  0.0142 -0.1249 -0.3852
   9623SM  H22F13063   3.091   5.336   5.351 -0.3502 -2.6659  0.2678
   9623SM  H22G13064   2.980   5.241   5.247 -0.2636  0.7873 -2.1960
   9623SM  C23F13065   2.876   5.343   5.405  0.1190  0.6375  0.2811
   9623SM  H23F13066   2.849   5.238   5.432 -0.9256  0.5522 -0.9901
   9623SM  H23G13067   2.785   5.396   5.370 -0.9737  0.1282  2.1533
   9623SM  H23H13068   2.912   5.393   5.498  1.7869 -1.0231  0.6059
   9723SM     N13069   4.795   7.253   2.708  0.9370 -0.1552 -0.1941
   9723SM   C1513070   4.822   7.110   2.678  0.2765  0.9281  1.1228
   9723SM  H15A13071   4.837   7.091   2.573 -0.5323  1.4280  0.9110
   9723SM  H15B13072   4.744   7.041   2.705  0.5735 -0.2954 -0.9343
   9723SM  H15C13073   4.912   7.083   2.731  0.5497  1.2511  0.8266
   9723SM   C1413074   4.920   7.331   2.664  0.4217  0.1525  0.2075
   9723SM  H14A13075   5.011   7.298   2.711  0.2037 -0.1364  0.4364
   9723SM  H14B13076   4.920   7.439   2.669  0.7694  0.2450 -1.2987
   9723SM  H14C13077   4.938   7.309   2.560 -1.6672  0.8230 -0.3438
   9723SM   C1313078   4.680   7.293   2.614  0.0120 -0.1454 -0.3490
   9723SM  H13A13079   4.585   7.242   2.627  0.1335 -0.2997 -0.0734
   9723SM  H13B13080   4.718   7.273   2.515 -0.3536  0.7351 -0.6776
   9723SM  H13C13081   4.667   7.400   2.618  1.0693 -0.0097 -0.3036
   9723SM   C1213082   4.753   7.281   2.857  0.2398 -0.1546  0.5443
   9723SM  H12A13083   4.661   7.229   2.878  1.9983 -3.5248  0.6130
   9723SM  H12B13084   4.729   7.386   2.861 -1.6462 -0.5339 -0.0593
   9723SM   C1113085   4.869   7.256   2.956 -0.2114 -0.2589 -0.0724
   9723SM  H11A13086   4.838   7.291   3.057 -1.6154 -1.2074 -0.1512
   9723SM  H11B13087   4.956   7.318   2.925  0.6232 -0.2486  2.0950
   9723SM     P13088   4.819   7.009   3.040  0.0711 -0.3110 -0.1842
   9723SM   O1313089   4.684   7.054   3.084  0.3420  0.0743 -0.1565
   9723SM   O1413090   4.820   6.879   2.967  0.4262 -0.1837  0.2274
   9723SM   O1113091   4.906   6.976   3.168 -0.0223  0.3434 -0.5452
   9723SM   O1213092   4.904   7.119   2.961 -0.1590 -0.3421 -0.5625
   9723SM   C1S13093   4.958   7.074   3.255 -0.2579  0.1714 -0.0650
   9723SM   H1S13094   4.941   7.177   3.216  2.2440 -0.0104 -1.8996
   9723SM   H1T13095   5.067   7.066   3.236 -0.3493  1.1711 -1.1416
   9723SM    NF13096   4.937   7.189   3.478 -0.2134 -0.4155 -0.3907
   9723SM   HNF13097   5.021   7.178   3.530 -0.1553  1.1313 -0.1284
   9723SM   C2S13098   4.898   7.070   3.400  0.0634  0.4539 -0.1372
   9723SM   H2S13099   4.788   7.078   3.387 -0.1411 -0.9676  0.5011
   9723SM   C3S13100   4.916   6.929   3.461  0.3558 -0.4957  0.4191
   9723SM   H3S13101   5.024   6.917   3.481  1.0989  2.1659 -1.4792
   9723SM    O313102   4.874   6.818   3.388 -1.0695  0.4916  0.2594
   9723SM   HO313103   4.856   6.849   3.299 -1.0138  0.4991  0.2506
   9723SM   C4S13104   4.847   6.919   3.596 -0.5457 -0.0149  0.6061
   9723SM   H4S13105   4.739   6.935   3.594 -0.6396 -0.6838 -0.1452
   9723SM   C5S13106   4.920   6.897   3.711  0.1197 -0.2260  0.0814
   9723SM   H5S13107   5.028   6.877   3.702 -0.4139 -2.4932 -2.6326
   9723SM   C6S13108   4.863   6.880   3.851  0.3416 -0.5153  0.6437
   9723SM   H6S13109   4.934   6.819   3.911 -1.6435 -1.5155  2.1032
   9723SM   H6T13110   4.766   6.826   3.848  0.0273  0.0489  0.5526
   9723SM   C7S13111   4.859   7.014   3.928 -0.3077  0.0440 -0.4876
   9723SM   H7S13112   4.794   7.081   3.868  2.6026  0.8449 -3.0683
   9723SM   H7T13113   4.960   7.061   3.930  0.7346 -1.9080 -2.4215
   9723SM   C8S13114   4.815   6.991   4.067 -0.1739 -0.3410 -0.3978
   9723SM   H8S13115   4.727   6.923   4.078  0.8222 -1.4000  1.6229
   9723SM   H8T13116   4.779   7.086   4.112 -0.7732 -0.2706 -1.0046
   9723SM   C9S13117   4.919   6.917   4.154  0.1883 -0.5492 -0.0117
   9723SM   H9S13118   5.016   6.931   4.100  1.4450 -1.5637  1.8549
   9723SM   H9T13119   4.896   6.808   4.155  0.4849 -0.6291  1.8610
   9723SM  C10S13120   4.925   6.972   4.294  0.0170 -0.0737  0.0042
   9723SM  H10S13121   4.843   6.923   4.350 -1.3227 -2.2479 -3.5128
   9723SM  H10T13122   4.915   7.083   4.292 -1.1346 -0.1777 -1.1414
   9723SM  C11S13123   5.060   6.944   4.359  0.4580  0.2654 -0.0946
   9723SM  H11S13124   5.058   6.992   4.459  1.6582 -0.0464  0.1000
   9723SM  H11T13125   5.144   6.987   4.299  0.9135 -1.1978 -0.5448
   9723SM  C12S13126   5.093   6.797   4.382 -0.8644  0.0258 -0.5829
   9723SM  H12S13127   5.079   6.734   4.291 -0.6613 -2.6469  1.1286
   9723SM  H12T13128   5.015   6.762   4.454 -0.6073  1.2740  0.3412
   9723SM  C13S13129   5.233   6.782   4.441  0.5451  0.6472  0.0464
   9723SM  H13S13130   5.260   6.857   4.518  0.6618  0.6134  0.0404
   9723SM  H13T13131   5.305   6.795   4.357  0.9043 -1.7717 -0.0846
   9723SM  C14S13132   5.242   6.641   4.512 -0.0087  0.4748 -0.1476
   9723SM  H14S13133   5.345   6.612   4.543 -1.3499 -2.5635  1.9153
   9723SM  H14T13134   5.199   6.563   4.446  0.0426 -0.8250  1.2990
   9723SM  C15S13135   5.153   6.642   4.642 -0.5713  0.8992  0.4774
   9723SM  H15S13136   5.048   6.631   4.608 -0.1034  0.4197 -0.9350
   9723SM  H15T13137   5.164   6.723   4.716 -2.0779  0.3769  1.3150
   9723SM  C16S13138   5.183   6.517   4.732  0.5117 -0.0021 -0.3166
   9723SM  H16S13139   5.124   6.521   4.826  1.7828  0.6144  0.5019
   9723SM  H16T13140   5.285   6.521   4.776  0.3963 -0.6694  0.0298
   9723SM  C17S13141   5.174   6.373   4.671  0.5592 -0.3270  0.1651
   9723SM  H17S13142   5.247   6.363   4.587  1.8044 -0.1131  1.1947
   9723SM  H17T13143   5.077   6.366   4.617  0.4588 -0.5172  0.3701
   9723SM  C18S13144   5.185   6.267   4.776  0.3421 -0.6332 -0.3780
   9723SM  H18S13145   5.164   6.166   4.735 -0.6855 -0.1967 -0.9602
   9723SM  H18T13146   5.110   6.292   4.854  0.6509 -1.9101  0.3563
   9723SM  H18U13147   5.283   6.271   4.828 -0.7172  1.5815  1.6371
   9723SM   C1F13148   4.902   7.312   3.455 -0.4625  0.4368 -0.0362
   9723SM    OF13149   4.813   7.341   3.379  0.0022 -0.1994 -0.3335
   9723SM   C2F13150   4.988   7.422   3.524  0.2955 -0.0239  0.0417
   9723SM   H2F13151   5.004   7.502   3.448 -0.3105  0.4187  0.3658
   9723SM   H2G13152   5.086   7.374   3.544  0.1294  0.4079  2.1553
   9723SM   C3F13153   4.916   7.473   3.653 -0.2806 -0.0731 -0.1078
   9723SM   H3F13154   4.811   7.496   3.624  0.1494  2.3779  0.0697
   9723SM   H3G13155   4.954   7.573   3.684  0.4103 -1.0152  2.2594
   9723SM   C4F13156   4.920   7.385   3.777 -0.4286 -0.8843  0.2086
   9723SM   H4F13157   5.023   7.359   3.810 -1.1962 -3.3644  0.8824
   9723SM   H4G13158   4.869   7.294   3.739 -1.1515 -0.1337 -0.6816
   9723SM   C5F13159   4.854   7.455   3.894  0.7628  0.3855 -0.0433
   9723SM   H5F13160   4.906   7.548   3.926 -0.3738  1.1210 -0.2729
   9723SM   H5G13161   4.860   7.384   3.979 -0.9673 -0.3078 -0.4814
   9723SM   C6F13162   4.700   7.481   3.882 -0.0485  0.3707 -0.5126
   9723SM   H6F13163   4.652   7.392   3.837  1.5022 -0.4894 -0.5406
   9723SM   H6G13164   4.687   7.564   3.809  0.6589  1.0111  0.0622
   9723SM   C7F13165   4.633   7.522   4.019  0.2999  0.9763 -0.3308
   9723SM   H7F13166   4.524   7.531   4.003  0.0801 -1.6847 -0.7632
   9723SM   H7G13167   4.677   7.621   4.047 -1.0501  1.5035  0.0147
   9723SM   C8F13168   4.655   7.418   4.138  0.0245 -0.1924 -0.1096
   9723SM   H8F13169   4.765   7.403   4.150  0.3237  0.1608 -2.1595
   9723SM   H8G13170   4.598   7.323   4.132 -1.8147  0.4263  4.0858
   9723SM   C9F13171   4.592   7.469   4.268  0.4912 -0.0406 -0.1359
   9723SM   H9F13172   4.482   7.456   4.253  0.1999  0.2715  1.5640
   9723SM   H9G13173   4.613   7.577   4.268  0.5336 -0.0445 -0.9476
   9723SM  C10F13174   4.649   7.418   4.403  0.0897 -0.3794 -0.0504
   9723SM  H10F13175   4.627   7.487   4.487  0.2111  0.7360 -0.9053
   9723SM  H10G13176   4.758   7.398   4.400  0.3369  0.2118  2.6018
   9723SM  C11F13177   4.592   7.276   4.455 -0.2307 -0.0854  0.1135
   9723SM  H11F13178   4.614   7.203   4.374 -1.2194  1.4197 -1.5820
   9723SM  H11G13179   4.481   7.279   4.469 -0.4222 -2.1233 -0.6554
   9723SM  C12F13180   4.648   7.225   4.591  0.1004  0.3141 -0.2795
   9723SM  H12F13181   4.585   7.143   4.631 -1.0437  2.1047  1.7892
   9723SM  H12G13182   4.622   7.305   4.664 -0.1893 -1.3795  1.5408
   9723SM  C13F13183   4.795   7.183   4.582  0.0709  0.1402  0.3259
   9723SM  H13F13184   4.858   7.231   4.505  0.4473 -0.2350  0.3975
   9723SM  H13G13185   4.783   7.081   4.540  0.4020  0.0470  0.4519
   9723SM  C14F13186   4.870   7.195   4.716  0.1548 -0.3333 -0.3473
   9723SM  H14F13187   4.810   7.136   4.789 -2.3561  1.2446 -0.9791
   9723SM  H14G13188   4.875   7.302   4.749  0.9005  0.1595 -1.9787
   9723SM  C15F13189   5.016   7.135   4.710  0.0737 -0.0959  0.0716
   9723SM  H15F13190   5.061   7.180   4.619  0.3620 -1.8465 -0.6899
   9723SM  H15G13191   5.006   7.027   4.687 -0.9210 -0.1076  0.5104
   9723SM  C16F13192   5.093   7.166   4.834  0.2926 -0.4258  0.5133
   9723SM  H16F13193   5.031   7.133   4.921  1.9215 -0.0045  1.8941
   9723SM  H16G13194   5.096   7.276   4.845  1.9334 -0.5335  1.4239
   9723SM  C17F13195   5.225   7.089   4.842  0.0395  0.4141 -0.2309
   9723SM  H17F13196   5.296   7.142   4.776  0.5818  0.1207  0.1023
   9723SM  H17G13197   5.205   6.987   4.802 -2.1236  0.6053  0.2393
   9723SM  C18F13198   5.288   7.082   4.983  0.2368 -0.2993  0.4757
   9723SM  H18F13199   5.214   7.031   5.048 -0.7258  0.5722  0.0956
   9723SM  H18G13200   5.302   7.183   5.027  2.1662 -0.5936  0.6243
   9723SM  C19F13201   5.416   7.013   4.984 -0.1693  0.3514 -0.0236
   9723SM  H19F13202   5.494   7.069   4.927  0.1160  1.2450  1.2018
   9723SM  H19G13203   5.405   6.912   4.941  1.0705 -0.0601  0.5696
   9723SM  C20F13204   5.456   6.999   5.136 -0.1734 -0.8231  0.2276
   9723SM  H20F13205   5.549   6.938   5.137 -0.8594 -1.9568 -1.1791
   9723SM  H20G13206   5.370   6.949   5.187 -1.0166  0.2341 -0.1221
   9723SM  C21F13207   5.493   7.121   5.217  0.2975 -0.0344  0.1827
   9723SM  H21F13208   5.505   7.084   5.321 -0.6930 -2.8309 -0.6077
   9723SM  H21G13209   5.406   7.190   5.208 -1.0042 -1.6512 -0.2470
   9723SM  C22F13210   5.618   7.192   5.168  0.0030 -0.0782  0.3019
   9723SM  H22F13211   5.644   7.171   5.062 -0.8211  0.9711 -0.1233
   9723SM  H22G13212   5.703   7.151   5.227 -0.4679  0.1785  1.1702
   9723SM  C23F13213   5.608   7.346   5.183  0.5080 -0.0297 -0.0691
   9723SM  H23F13214   5.508   7.366   5.138  0.8469 -0.2203 -0.9192
   9723SM  H23G13215   5.688   7.406   5.134  0.7997 -0.1772  0.2200
   9723SM  H23H13216   5.585   7.372   5.289 -1.1193 -1.7870  0.0606
   9823SM     N13217   1.668   4.413   3.279 -0.0989  0.0039  0.6143
   9823SM   C1513218   1.551   4.399   3.373  0.2530 -0.1507  0.3108
   9823SM  H15A13219   1.566   4.452   3.466  0.0335  0.1205  0.1904
   9823SM  H15B13220   1.545   4.293   3.390  0.8086 -0.2606 -0.1300
   9823SM  H15C13221   1.460   4.421   3.320  0.5927 -0.9355 -0.6240
   9823SM   C1413222   1.652   4.314   3.164  0.9624  0.1947 -1.1052
   9823SM  H14A13223   1.558   4.335   3.116 -0.1450  1.2824  1.3433
   9823SM  H14B13224   1.659   4.222   3.219  1.4716  1.5984  1.3608
   9823SM  H14C13225   1.742   4.326   3.105  1.2939  1.1332 -0.4429
   9823SM   C1313226   1.658   4.551   3.221  1.1904 -0.9245  0.6874
   9823SM  H13A13227   1.571   4.558   3.157  2.1447 -0.6371 -0.5974
   9823SM  H13B13228   1.750   4.575   3.170  0.9256  0.3401  0.7584
   9823SM  H13C13229   1.648   4.622   3.302 -1.7706 -1.2725  0.7653
   9823SM   C1213230   1.812   4.402   3.341 -0.1881 -0.2795 -0.0215
   9823SM  H12A13231   1.801   4.313   3.401 -1.0165  0.0511  0.3389
   9823SM  H12B13232   1.809   4.480   3.415 -1.6200 -0.2095 -0.1159
   9823SM   C1113233   1.938   4.406   3.244  0.1985 -0.3125 -0.2849
   9823SM  H11A13234   1.952   4.324   3.172  0.1385  1.2323 -2.1237
   9823SM  H11B13235   2.023   4.379   3.311 -0.7479 -1.5021  0.4849
   9823SM     P13236   2.040   4.644   3.234 -0.2936  0.1087 -0.0928
   9823SM   O1313237   2.181   4.599   3.221  0.6727 -0.1117  0.0788
   9823SM   O1413238   2.001   4.774   3.169  0.4547 -0.3905 -0.5180
   9823SM   O1113239   2.022   4.655   3.393  0.1606 -0.1959  0.1003
   9823SM   O1213240   1.947   4.530   3.182 -0.1825 -0.0903  0.3170
   9823SM   C1S13241   1.956   4.764   3.468  0.0267  0.4558 -0.2621
   9823SM   H1S13242   1.853   4.733   3.497  0.5449 -2.0765 -0.8404
   9823SM   H1T13243   1.937   4.849   3.400 -2.9032  1.4367  1.5789
   9823SM    NF13244   1.981   4.939   3.652  0.3775  0.2287  0.4122
   9823SM   HNF13245   2.017   5.029   3.628  0.1983  0.0342 -0.6237
   9823SM   C2S13246   2.044   4.826   3.581 -0.4615 -0.1087 -0.0312
   9823SM   H2S13247   2.047   4.748   3.660 -1.4766 -0.2550 -0.1170
   9823SM   C3S13248   2.184   4.862   3.534  0.2537  0.2084 -0.2415
   9823SM   H3S13249   2.177   4.941   3.457  0.3433  1.2030  0.7458
   9823SM    O313250   2.262   4.768   3.459  0.8632 -0.0660 -0.0221
   9823SM   HO313251   2.192   4.709   3.430 -0.6296  1.2063  0.8727
   9823SM   C4S13252   2.266   4.915   3.655  0.1695 -0.0723  0.9880
   9823SM   H4S13253   2.257   5.023   3.671 -1.4268 -0.0664  0.3312
   9823SM   C5S13254   2.340   4.847   3.744 -0.3174 -0.0336 -0.1962
   9823SM   H5S13255   2.356   4.739   3.729 -1.0002 -0.1101 -0.4170
   9823SM   C6S13256   2.414   4.904   3.864 -0.4847  0.1800  0.3187
   9823SM   H6S13257   2.469   4.996   3.837  0.0090 -0.2533 -0.1822
   9823SM   H6T13258   2.490   4.829   3.896 -1.7558 -1.4126 -0.2463
   9823SM   C7S13259   2.327   4.937   3.983 -0.1091  0.0611 -0.1708
   9823SM   H7S13260   2.277   4.846   4.023 -1.4753  0.0281 -1.8571
   9823SM   H7T13261   2.243   5.008   3.967 -1.3717 -0.1642  4.2659
   9823SM   C8S13262   2.404   5.014   4.097 -0.3096 -0.6443  0.7728
   9823SM   H8S13263   2.433   5.111   4.051  0.8230  0.5241  3.7195
   9823SM   H8T13264   2.495   4.963   4.136  0.0943  0.9317  1.9451
   9823SM   C9S13265   2.317   5.049   4.215 -0.5127 -0.2073  0.1883
   9823SM   H9S13266   2.296   4.951   4.263  4.3673 -0.2609  2.9243
   9823SM   H9T13267   2.229   5.099   4.170  0.3124  2.0266  0.9019
   9823SM  C10S13268   2.385   5.139   4.319  0.2768 -0.7751  0.0338
   9823SM  H10S13269   2.396   5.240   4.275  1.5175  0.5486  3.0613
   9823SM  H10T13270   2.486   5.107   4.353  0.2587 -1.6556 -0.6994
   9823SM  C11S13271   2.300   5.157   4.449  0.3143  0.0493  0.1947
   9823SM  H11S13272   2.272   5.071   4.513  1.8359 -0.5459  0.0888
   9823SM  H11T13273   2.207   5.210   4.421 -0.0144 -1.6068 -2.1297
   9823SM  C12S13274   2.369   5.253   4.554  0.0754 -0.0780 -0.0117
   9823SM  H12S13275   2.343   5.357   4.527  1.7834  0.9232  1.9257
   9823SM  H12T13276   2.479   5.258   4.542 -0.1911  2.1010 -2.4984
   9823SM  C13S13277   2.343   5.223   4.703 -0.1660 -0.1071 -0.4516
   9823SM  H13S13278   2.405   5.286   4.771 -1.7573  0.6820  0.3198
   9823SM  H13T13279   2.368   5.118   4.728  3.1417  0.1163 -2.2834
   9823SM  C14S13280   2.198   5.260   4.731 -0.6335 -0.4126 -0.7110
   9823SM  H14S13281   2.147   5.187   4.797 -0.4813  0.7492  0.7163
   9823SM  H14T13282   2.140   5.262   4.636 -1.0375  0.2239 -0.4530
   9823SM  C15S13283   2.184   5.403   4.791 -0.0475 -0.0340 -0.3962
   9823SM  H15S13284   2.110   5.452   4.724  0.6367  0.6896 -0.6321
   9823SM  H15T13285   2.274   5.467   4.779  0.1354 -0.2851 -0.3815
   9823SM  C16S13286   2.142   5.415   4.942 -0.3238  0.1043  0.4090
   9823SM  H16S13287   2.220   5.367   5.006  0.9004  0.3944 -0.8141
   9823SM  H16T13288   2.050   5.355   4.958  0.6777 -1.4331  0.6279
   9823SM  C17S13289   2.113   5.562   4.988 -0.6867  0.3348 -0.1485
   9823SM  H17S13290   2.090   5.562   5.096  0.4625  0.7474  0.1048
   9823SM  H17T13291   2.028   5.609   4.932 -1.2197 -0.2385  0.1709
   9823SM  C18S13292   2.225   5.664   4.952 -0.9120  0.2360  0.1534
   9823SM  H18S13293   2.318   5.641   5.009 -1.3309  1.2486  1.2909
   9823SM  H18T13294   2.194   5.768   4.973 -1.1858 -0.1871  2.0764
   9823SM  H18U13295   2.256   5.683   4.847  1.6194  2.6542  1.1976
   9823SM   C1F13296   1.871   4.919   3.728 -0.3980  0.0847 -0.1515
   9823SM    OF13297   1.820   4.807   3.748  0.0799 -0.0816 -0.5472
   9823SM   C2F13298   1.818   5.042   3.787  0.1381  0.3053  0.2839
   9823SM   H2F13299   1.716   5.032   3.828  0.2028  1.3045  0.7266
   9823SM   H2G13300   1.815   5.110   3.699 -0.9259 -1.3115 -0.9838
   9823SM   C3F13301   1.902   5.107   3.895 -0.7311  0.1900 -0.3200
   9823SM   H3F13302   1.897   5.217   3.881 -1.6216  0.0788 -0.9813
   9823SM   H3G13303   2.009   5.085   3.874  0.0144  2.6704  0.6117
   9823SM   C4F13304   1.862   5.079   4.039  0.3140 -0.1297 -0.0713
   9823SM   H4F13305   1.905   4.981   4.069  2.7853  0.7204 -0.6430
   9823SM   H4G13306   1.751   5.073   4.049  0.3958 -0.1348  0.9345
   9823SM   C5F13307   1.914   5.180   4.145  1.0570  0.8616  0.8116
   9823SM   H5F13308   1.881   5.283   4.118  3.3930  1.9699  1.8700
   9823SM   H5G13309   2.024   5.167   4.133  0.6716 -0.8795 -1.8112
   9823SM   C6F13310   1.863   5.132   4.280  1.4331  0.1443 -0.4738
   9823SM   H6F13311   1.889   5.026   4.298 -0.6691 -0.1060  1.6121
   9823SM   H6G13312   1.752   5.133   4.279  1.4130  1.5749  0.2927
   9823SM   C7F13313   1.913   5.210   4.400 -0.1719 -0.0312  0.4094
   9823SM   H7F13314   2.014   5.246   4.373 -0.3774  0.3027  0.0865
   9823SM   H7G13315   1.932   5.140   4.484  1.4178  0.0629  0.1629
   9823SM   C8F13316   1.825   5.329   4.439  0.2351  0.2122 -0.9434
   9823SM   H8F13317   1.728   5.283   4.470  0.8477 -0.0148  0.7551
   9823SM   H8G13318   1.811   5.395   4.352 -1.3653  0.8141 -0.2805
   9823SM   C9F13319   1.899   5.392   4.562 -0.3636 -0.1138 -0.0162
   9823SM   H9F13320   1.986   5.454   4.533  0.0184  0.0211  1.3640
   9823SM   H9G13321   1.949   5.320   4.631  0.6596 -0.1074 -0.7322
   9823SM  C10F13322   1.808   5.475   4.649  0.5197  0.6882  0.1792
   9823SM  H10F13323   1.855   5.517   4.741  2.1471 -1.3797  0.3665
   9823SM  H10G13324   1.722   5.410   4.677  0.0635  1.3862  0.4165
   9823SM  C11F13325   1.757   5.601   4.572  0.3906 -0.4780 -0.5653
   9823SM  H11F13326   1.671   5.570   4.508  0.4453 -0.6272 -0.5656
   9823SM  H11G13327   1.842   5.635   4.509  0.8408  1.0352  0.7983
   9823SM  C12F13328   1.722   5.717   4.674  0.1604  0.4054 -0.1760
   9823SM  H12F13329   1.702   5.819   4.635  0.0082  2.0929  3.8674
   9823SM  H12G13330   1.813   5.728   4.736 -0.5219 -1.5432  1.2693
   9823SM  C13F13331   1.610   5.668   4.762 -0.0801 -0.0195  0.0699
   9823SM  H13F13332   1.638   5.583   4.828 -0.8527 -0.5651 -0.2837
   9823SM  H13G13333   1.524   5.633   4.701 -0.4506  0.5775  0.2373
   9823SM  C14F13334   1.565   5.785   4.846  0.1050 -0.1553 -0.3391
   9823SM  H14F13335   1.530   5.868   4.780 -0.4770 -0.5760 -0.5652
   9823SM  H14G13336   1.652   5.824   4.903  1.0386 -1.2744 -0.9634
   9823SM  C15F13337   1.445   5.760   4.945 -0.6981 -0.0702 -0.0610
   9823SM  H15F13338   1.476   5.698   5.032 -0.8645  1.0861  0.8459
   9823SM  H15G13339   1.359   5.707   4.899 -1.8793 -0.6644  2.6256
   9823SM  C16F13340   1.386   5.885   5.015  0.6532 -0.0121 -0.2007
   9823SM  H16F13341   1.344   5.958   4.943 -2.1228  1.2650  2.4946
   9823SM  H16G13342   1.438   5.948   5.091  0.8077 -0.3273 -0.0396
   9823SM  C17F13343   1.257   5.843   5.091 -0.0154 -0.4241 -0.4657
   9823SM  H17F13344   1.280   5.755   5.155 -1.5895  1.4503  2.9719
   9823SM  H17G13345   1.178   5.810   5.021 -1.2045 -0.1610  0.7110
   9823SM  C18F13346   1.204   5.948   5.191 -0.1463 -0.2898 -0.2711
   9823SM  H18F13347   1.287   5.992   5.250 -0.1702 -0.4628 -0.1077
   9823SM  H18G13348   1.139   5.895   5.263  1.6034 -2.1130  0.0693
   9823SM  C19F13349   1.133   6.062   5.111 -0.4133 -0.3927  0.0488
   9823SM  H19F13350   1.056   6.019   5.043  0.4849 -2.7450  0.4140
   9823SM  H19G13351   1.213   6.116   5.057  0.9397 -0.6606  1.6914
   9823SM  C20F13352   1.068   6.173   5.197  0.2593  0.4022 -0.2739
   9823SM  H20F13353   1.139   6.203   5.277 -0.0934  0.0016  0.1970
   9823SM  H20G13354   0.975   6.128   5.239  0.8288 -1.1138 -0.5577
   9823SM  C21F13355   1.037   6.292   5.108  0.1862  0.0966 -0.2804
   9823SM  H21F13356   0.961   6.269   5.031 -0.4298  0.9746  0.0495
   9823SM  H21G13357   1.128   6.323   5.054  2.3322 -0.7460  2.5968
   9823SM  C22F13358   0.996   6.423   5.187 -0.3025 -0.3366  0.1321
   9823SM  H22F13359   0.994   6.512   5.120  1.0258  0.5756  1.2411
   9823SM  H22G13360   1.079   6.431   5.260 -0.1136 -0.2509 -0.0902
   9823SM  C23F13361   0.864   6.404   5.256  0.5715  0.8024 -0.4816
   9823SM  H23F13362   0.791   6.367   5.181 -0.6281  0.3084  0.8783
   9823SM  H23G13363   0.823   6.495   5.307 -1.0615 -0.0345 -0.2250
   9823SM  H23H13364   0.864   6.330   5.338 -2.1767 -0.6911 -1.7003
   9923SM     N13365   2.476   5.855   2.827  0.0477 -0.6648  0.1180
   9923SM   C1513366   2.360   5.901   2.741 -0.2813 -0.3530 -0.5446
   9923SM  H15A13367   2.396   5.969   2.664  0.3760  0.4385  0.4370
   9923SM  H15B13368   2.291   5.946   2.811  0.9149  2.4786 -1.0264
   9923SM  H15C13369   2.314   5.822   2.684 -1.5332  0.0209 -0.0865
   9923SM   C1413370   2.423   5.760   2.925 -0.3002  0.6869  0.1279
   9923SM  H14A13371   2.342   5.811   2.975 -0.9159  1.4103 -1.5540
   9923SM  H14B13372   2.506   5.724   2.984 -0.6218 -1.3100 -0.5569
   9923SM  H14C13373   2.387   5.669   2.879 -0.0253  0.0025  1.2161
   9923SM   C1313374   2.580   5.787   2.734 -0.2240  0.2802 -0.1196
   9923SM  H13A13375   2.662   5.761   2.800 -0.1343 -1.1512 -0.7637
   9923SM  H13B13376   2.608   5.862   2.661  0.4379  0.0536 -0.1079
   9923SM  H13C13377   2.549   5.699   2.681  1.1201  0.0571 -0.5689
   9923SM   C1213378   2.547   5.971   2.899  0.5396  0.0367 -0.5896
   9923SM  H12A13379   2.580   6.034   2.818 -2.4229 -0.1555 -2.0930
   9923SM  H12B13380   2.632   5.934   2.953  0.6447 -0.9919 -1.4283
   9923SM   C1113381   2.470   6.069   2.996  0.0312 -0.2632  0.2574
   9923SM  H11A13382   2.535   6.142   3.049 -2.0050  0.6004  1.6971
   9923SM  H11B13383   2.424   6.004   3.074 -0.9422  0.5535  0.3705
   9923SM     P13384   2.392   6.259   2.837  0.3529 -0.0428  0.3803
   9923SM   O1313385   2.522   6.247   2.772 -0.1481  0.1184  0.9405
   9923SM   O1413386   2.270   6.289   2.759  0.1419  0.5680  0.8742
   9923SM   O1113387   2.405   6.377   2.937 -0.5322 -0.0014  0.1994
   9923SM   O1213388   2.360   6.140   2.940  0.1249  0.8393  0.6942
   9923SM   C1S13389   2.310   6.411   3.039  0.2214  0.5323 -0.3990
   9923SM   H1S13390   2.222   6.344   3.029 -0.1606  0.5452  2.1347
   9923SM   H1T13391   2.281   6.518   3.034  0.0725  0.6462  1.8742
   9923SM    NF13392   2.258   6.412   3.275  0.7038  0.4031  0.2228
   9923SM   HNF13393   2.255   6.490   3.336  1.1914  1.2954 -0.8679
   9923SM   C2S13394   2.368   6.390   3.179  0.1200  0.1304 -0.5931
   9923SM   H2S13395   2.398   6.284   3.194  0.6408  0.4639  0.9957
   9923SM   C3S13396   2.491   6.483   3.207 -0.4676  0.6408 -0.5925
   9923SM   H3S13397   2.443   6.583   3.210 -0.3085  0.7338 -1.1147
   9923SM    O313398   2.583   6.498   3.099  0.0951 -0.3892  0.5979
   9923SM   HO313399   2.566   6.435   3.028  2.3174 -0.2237 -0.1841
   9923SM   C4S13400   2.546   6.461   3.345  0.4437 -0.0166 -0.7805
   9923SM   H4S13401   2.480   6.521   3.409 -0.0625  0.2533 -1.5410
   9923SM   C5S13402   2.647   6.381   3.381 -0.3739 -0.0722 -0.1894
   9923SM   H5S13403   2.698   6.319   3.305  0.6632 -0.3726  0.7351
   9923SM   C6S13404   2.691   6.368   3.528  0.1672  1.0288 -0.2716
   9923SM   H6S13405   2.786   6.424   3.544 -0.2305  1.6029  0.0643
   9923SM   H6T13406   2.691   6.258   3.541 -1.6843  0.8198 -1.6190
   9923SM   C7S13407   2.583   6.425   3.630  0.7948 -0.0930 -0.0381
   9923SM   H7S13408   2.479   6.392   3.611  1.0304 -1.1040  0.3463
   9923SM   H7T13409   2.589   6.534   3.610 -0.4527  0.3128  1.6405
   9923SM   C8S13410   2.627   6.394   3.773  0.1160  0.5107  0.3811
   9923SM   H8S13411   2.726   6.443   3.788  1.8001 -0.6810 -4.8563
   9923SM   H8T13412   2.646   6.286   3.785  1.8098  0.6263 -0.9363
   9923SM   C9S13413   2.522   6.446   3.884  0.4049  0.3538 -0.3051
   9923SM   H9S13414   2.424   6.397   3.866  0.0158  1.4109 -1.1765
   9923SM   H9T13415   2.507   6.553   3.856  1.4645 -0.1266 -2.9867
   9923SM  C10S13416   2.584   6.432   4.021 -0.1874 -0.0219  0.2819
   9923SM  H10S13417   2.684   6.480   4.020 -0.2655  0.1386 -0.5244
   9923SM  H10T13418   2.596   6.327   4.055 -1.1116  0.5501  2.5852
   9923SM  C11S13419   2.511   6.501   4.134  0.0437 -0.5169 -0.2608
   9923SM  H11S13420   2.413   6.450   4.143  0.1137 -0.3494  2.3265
   9923SM  H11T13421   2.495   6.608   4.106 -1.5643 -1.0684 -1.5594
   9923SM  C12S13422   2.577   6.490   4.271  0.4577  0.7515 -0.1225
   9923SM  H12S13423   2.678   6.536   4.267 -0.0467  1.8263 -1.2601
   9923SM  H12T13424   2.579   6.384   4.304 -0.4570  1.1246  1.2131
   9923SM  C13S13425   2.498   6.570   4.378 -0.1658  1.0796 -0.2145
   9923SM  H13S13426   2.388   6.558   4.373 -0.2138  0.5783  1.5536
   9923SM  H13T13427   2.520   6.675   4.351  1.7426  0.7333 -0.1302
   9923SM  C14S13428   2.534   6.548   4.527  0.2971  0.9358  0.0264
   9923SM  H14S13429   2.443   6.584   4.580 -1.5816 -0.0807 -2.3457
   9923SM  H14T13430   2.624   6.611   4.544  0.4053  0.8543 -0.2385
   9923SM  C15S13431   2.563   6.406   4.578 -0.2148  0.0586 -0.2249
   9923SM  H15S13432   2.664   6.381   4.538  0.4860 -1.8139  2.4853
   9923SM  H15T13433   2.493   6.334   4.532  0.0604  0.0892 -0.7022
   9923SM  C16S13434   2.572   6.392   4.730  0.1026  0.5186 -0.3115
   9923SM  H16S13435   2.605   6.288   4.746 -3.1466 -0.7800 -1.1602
   9923SM  H16T13436   2.469   6.389   4.773  1.3640 -1.0601  2.8806
   9923SM  C17S13437   2.655   6.507   4.799 -0.1514 -0.1079 -0.1956
   9923SM  H17S13438   2.656   6.491   4.909 -1.4205  0.0828 -0.1388
   9923SM  H17T13439   2.611   6.606   4.776 -0.4200 -0.5855 -1.8625
   9923SM  C18S13440   2.798   6.509   4.739 -0.6806 -0.4926  0.0395
   9923SM  H18S13441   2.846   6.409   4.739  1.1041  0.3375  0.1502
   9923SM  H18T13442   2.858   6.582   4.797  0.4331 -0.0825 -1.5680
   9923SM  H18U13443   2.800   6.529   4.629 -2.1837  1.2615  0.2837
   9923SM   C1F13444   2.171   6.313   3.308  0.2017 -0.3279  0.4161
   9923SM    OF13445   2.167   6.209   3.239 -0.2099  0.1891  0.2780
   9923SM   C2F13446   2.098   6.333   3.439 -0.2376 -0.4386  0.2177
   9923SM   H2F13447   2.144   6.416   3.496 -0.8628 -2.5792  4.1897
   9923SM   H2G13448   2.114   6.240   3.497  0.7837 -1.2449 -1.2811
   9923SM   C3F13449   1.947   6.352   3.411  0.0409  0.2530 -0.4842
   9923SM   H3F13450   1.915   6.258   3.363  1.6482 -0.7343  0.2686
   9923SM   H3G13451   1.930   6.441   3.347  0.8230 -1.1510 -2.7640
   9923SM   C4F13452   1.861   6.374   3.545  0.5367 -0.5072  0.0379
   9923SM   H4F13453   1.878   6.283   3.606  0.4049 -2.1976 -2.3186
   9923SM   H4G13454   1.752   6.377   3.524  0.5722 -1.4375 -0.2851
   9923SM   C5F13455   1.902   6.488   3.635  0.2470  0.1592 -0.1056
   9923SM   H5F13456   1.891   6.589   3.590 -1.7034 -0.4009 -0.9749
   9923SM   H5G13457   2.007   6.482   3.672 -1.0580  0.1673  4.1128
   9923SM   C6F13458   1.824   6.495   3.768 -0.3940 -0.8820 -0.0229
   9923SM   H6F13459   1.714   6.501   3.753 -0.6285 -3.9723 -0.1436
   9923SM   H6G13460   1.862   6.581   3.828 -1.4418  0.4715 -1.2311
   9923SM   C7F13461   1.837   6.359   3.841  0.2344 -0.1968  0.2749
   9923SM   H7F13462   1.941   6.322   3.836 -0.5723 -2.6292  0.4342
   9923SM   H7G13463   1.763   6.289   3.797  0.8683 -0.4855 -0.3507
   9923SM   C8F13464   1.802   6.376   3.994  0.7942  0.3221  0.1783
   9923SM   H8F13465   1.864   6.463   4.027  0.5768 -0.2193  2.1620
   9923SM   H8G13466   1.834   6.298   4.066  1.3274  3.2005  3.3375
   9923SM   C9F13467   1.648   6.403   4.025 -0.1775 -0.4141 -0.4088
   9923SM   H9F13468   1.588   6.317   3.986 -0.7344 -0.1728 -0.0957
   9923SM   H9G13469   1.612   6.492   3.970  1.3661  0.5814  0.1451
   9923SM  C10F13470   1.625   6.406   4.177  0.1848  0.0039  0.2770
   9923SM  H10F13471   1.661   6.303   4.198 -0.0903 -0.4993 -1.5262
   9923SM  H10G13472   1.515   6.404   4.197  0.4019 -0.3918  1.5359
   9923SM  C11F13473   1.694   6.514   4.252  0.1138 -0.6508 -0.2407
   9923SM  H11F13474   1.666   6.613   4.211  1.1489 -0.1547  0.2117
   9923SM  H11G13475   1.805   6.507   4.245  0.1460 -0.8363  0.3617
   9923SM  C12F13476   1.657   6.516   4.401  0.8606  0.5672 -0.3689
   9923SM  H12F13477   1.677   6.417   4.448 -2.5824 -0.9068 -1.7142
   9923SM  H12G13478   1.547   6.525   4.407  0.4818 -0.1903 -4.0411
   9923SM  C13F13479   1.729   6.632   4.470 -0.5235 -0.5342 -0.6240
   9923SM  H13F13480   1.708   6.730   4.421  2.3787  1.7572  2.2635
   9923SM  H13G13481   1.838   6.620   4.457 -0.1757 -0.3941  1.7827
   9923SM  C14F13482   1.711   6.627   4.615  0.5202  0.5005 -0.7969
   9923SM  H14F13483   1.749   6.531   4.656 -1.5781 -0.6595 -1.4104
   9923SM  H14G13484   1.603   6.629   4.642  0.8396  1.5120  0.5183
   9923SM  C15F13485   1.774   6.747   4.696  1.0824  0.0768  0.4138
   9923SM  H15F13486   1.743   6.841   4.646  2.6198  0.0180 -0.7480
   9923SM  H15G13487   1.885   6.753   4.697  1.0431  0.9963 -0.2450
   9923SM  C16F13488   1.722   6.757   4.845 -0.4023 -0.7083  0.4025
   9923SM  H16F13489   1.612   6.771   4.836 -0.2985  1.1349  1.5780
   9923SM  H16G13490   1.772   6.849   4.881 -1.2229 -1.2042  2.9776
   9923SM  C17F13491   1.762   6.637   4.924 -0.8455 -0.0582 -0.0469
   9923SM  H17F13492   1.872   6.617   4.928 -0.6037  1.2551  3.5857
   9923SM  H17G13493   1.721   6.544   4.878 -1.3685 -0.5345  1.3175
   9923SM  C18F13494   1.718   6.651   5.063  0.8844  0.8091 -0.6993
   9923SM  H18F13495   1.694   6.560   5.122  0.4908  1.0410 -0.4933
   9923SM  H18G13496   1.626   6.714   5.066 -0.8964 -1.4209 -3.5087
   9923SM  C19F13497   1.813   6.726   5.152  0.3054 -0.2829 -0.0296
   9923SM  H19F13498   1.779   6.832   5.142  2.9740  0.8513  1.5893
   9923SM  H19G13499   1.916   6.724   5.110  0.4217 -1.0954  0.2949
   9923SM  C20F13500   1.810   6.683   5.297  0.2979 -0.2816  0.3600
   9923SM  H20F13501   1.842   6.577   5.296 -0.7179 -0.5977  0.3462
   9923SM  H20G13502   1.709   6.686   5.342  0.0108 -0.0115 -0.2957
   9923SM  C21F13503   1.910   6.772   5.369  0.2488 -0.0101  0.2170
   9923SM  H21F13504   1.888   6.881   5.358  1.3759  0.1084 -1.0625
   9923SM  H21G13505   2.011   6.760   5.325 -0.9704 -1.3071 -2.4235
   9923SM  C22F13506   1.938   6.742   5.521  0.0882  1.0075 -0.4027
   9923SM  H22F13507   1.977   6.637   5.524  0.5342  1.1579 -0.8273
   9923SM  H22G13508   1.848   6.751   5.586  0.8188  3.1366  0.3925
   9923SM  C23F13509   2.036   6.832   5.599 -0.0997 -0.2778  0.1272
   9923SM  H23F13510   2.053   6.808   5.706 -0.0869  0.2459  0.2442
   9923SM  H23G13511   1.994   6.935   5.593 -0.5598 -0.5231 -1.2004
   9923SM  H23H13512   2.138   6.826   5.555  1.4728  1.8371  3.0993
  10023SM     N13513   0.938   5.872   3.059 -0.1490 -0.0468  0.2056
  10023SM   C1513514   0.898   5.741   3.112  0.9845  0.2062  0.4193
  10023SM  H15A13515   0.790   5.743   3.110  0.9510  3.1022  0.0126
  10023SM  H15B13516   0.930   5.725   3.214 -1.1983  1.3448  1.3613
  10023SM  H15C13517   0.933   5.660   3.050  1.3078 -0.9113  2.0218
  10023SM   C1413518   0.911   5.879   2.913  0.0171  0.3913 -1.1187
  10023SM  H14A13519   0.974   5.954   2.867  1.7465 -1.0132 -1.1545
  10023SM  H14B13520   0.806   5.893   2.893 -0.1845 -0.7250 -0.9184
  10023SM  H14C13521   0.953   5.792   2.865  0.8308 -0.1540  0.4920
  10023SM   C1313522   0.850   5.980   3.127 -0.6941 -0.1510 -0.9086
  10023SM  H13A13523   0.888   6.078   3.104 -0.8859  0.4995  1.3490
  10023SM  H13B13524   0.853   5.971   3.235 -1.1997 -0.9349 -0.9467
  10023SM  H13C13525   0.746   5.977   3.099 -0.9026 -1.4943 -0.0965
  10023SM   C1213526   1.081   5.891   3.092 -0.4567  0.9374 -0.0056
  10023SM  H12A13527   1.148   5.821   3.045  0.0642 -1.2622  3.6465
  10023SM  H12B13528   1.086   5.866   3.197 -2.5788 -0.8970 -0.2750
  10023SM   C1113529   1.145   6.036   3.069 -0.3836  0.3140  0.0211
  10023SM  H11A13530   1.245   6.053   3.113 -0.3333 -1.7381  0.8343
  10023SM  H11B13531   1.076   6.107   3.120 -0.5763 -0.0140  0.2221
  10023SM     P13532   1.247   6.006   2.824 -0.4663 -0.0775  0.1278
  10023SM   O1313533   1.203   5.866   2.794 -0.2831 -0.3016 -0.0504
  10023SM   O1413534   1.260   6.107   2.713 -0.6209  0.0711 -0.1519
  10023SM   O1113535   1.386   5.999   2.904 -0.0963 -0.1611 -0.6074
  10023SM   O1213536   1.147   6.062   2.929 -0.2413 -0.6282 -0.3950
  10023SM   C1S13537   1.462   6.126   2.916  0.0616  0.7458 -0.6660
  10023SM   H1S13538   1.393   6.208   2.947 -1.3599 -0.0845 -1.5458
  10023SM   H1T13539   1.509   6.154   2.820  1.5459 -0.9490 -0.4702
  10023SM    NF13540   1.611   6.245   3.081 -0.6621  0.5028  0.5254
  10023SM   HNF13541   1.704   6.278   3.066 -0.1993 -0.2938  1.5463
  10023SM   C2S13542   1.570   6.115   3.029 -0.1543 -0.2316  0.9314
  10023SM   H2S13543   1.522   6.067   3.117  0.1805  0.1741  1.3359
  10023SM   C3S13544   1.689   6.026   2.980  0.3052  0.6978  0.2034
  10023SM   H3S13545   1.737   6.074   2.892  3.4281 -1.9442  0.3098
  10023SM    O313546   1.645   5.903   2.924  0.0094 -0.0024  0.0604
  10023SM   HO313547   1.549   5.904   2.933 -0.4075 -2.6335 -2.6268
  10023SM   C4S13548   1.783   6.016   3.091  0.5594  0.5816 -1.2081
  10023SM   H4S13549   1.856   6.099   3.098  0.5224  0.6593 -1.7163
  10023SM   C5S13550   1.786   5.930   3.194 -0.3674 -0.2571  0.4810
  10023SM   H5S13551   1.720   5.842   3.186 -2.3942  1.2455 -0.0886
  10023SM   C6S13552   1.892   5.932   3.301  0.4616 -0.4106  0.0886
  10023SM   H6S13553   1.941   6.032   3.305  2.6341 -1.4233  0.3099
  10023SM   H6T13554   1.966   5.852   3.278 -0.0401 -0.6713 -0.6786
  10023SM   C7S13555   1.816   5.908   3.434 -0.0061  0.4863  0.1930
  10023SM   H7S13556   1.892   5.890   3.513 -0.4225  1.1153  0.7408
  10023SM   H7T13557   1.760   5.812   3.430  1.8774 -0.7091  0.7905
  10023SM   C8S13558   1.725   6.022   3.479  0.3156  0.3950 -0.1177
  10023SM   H8S13559   1.642   6.028   3.406 -1.6398  0.3114  1.9890
  10023SM   H8T13560   1.780   6.118   3.486 -1.2065  1.3511 -0.8473
  10023SM   C9S13561   1.665   6.013   3.626  0.6058 -0.2714  0.2234
  10023SM   H9S13562   1.607   6.107   3.633 -0.2084 -0.8530  1.6758
  10023SM   H9T13563   1.751   6.016   3.697  1.2795 -0.6578 -0.5561
  10023SM  C10S13564   1.572   5.893   3.645 -0.5086 -0.3253  0.5828
  10023SM  H10S13565   1.628   5.798   3.630 -1.7660 -0.7506 -1.8778
  10023SM  H10T13566   1.501   5.891   3.560  0.3627 -1.7775 -0.1346
  10023SM  C11S13567   1.504   5.891   3.783  0.2279  1.1087  0.6662
  10023SM  H11S13568   1.578   5.931   3.855  0.6881  2.2279 -0.3919
  10023SM  H11T13569   1.480   5.788   3.817  0.9776  2.0488  4.4723
  10023SM  C12S13570   1.377   5.979   3.794  0.0136 -0.2163 -1.1705
  10023SM  H12S13571   1.313   5.963   3.705 -0.7769  2.3049 -1.1485
  10023SM  H12T13572   1.399   6.088   3.793  1.2330 -0.2923  2.2315
  10023SM  C13S13573   1.293   5.961   3.924  0.1916 -1.0776 -0.4247
  10023SM  H13S13574   1.237   5.866   3.913 -1.3291 -0.3420  0.6692
  10023SM  H13T13575   1.206   6.030   3.926 -1.4745 -3.0906  0.4355
  10023SM  C14S13576   1.368   5.988   4.063  0.0915 -0.4717 -0.1348
  10023SM  H14S13577   1.431   6.079   4.066 -0.9168  0.2889  3.5160
  10023SM  H14T13578   1.437   5.903   4.080  0.0688 -1.3937 -3.8634
  10023SM  C15S13579   1.274   5.993   4.185 -0.0780 -0.0631 -1.1067
  10023SM  H15S13580   1.221   5.896   4.189 -0.1126 -0.0434  2.3737
  10023SM  H15T13581   1.201   6.077   4.188  0.1077  0.1111  1.5123
  10023SM  C16S13582   1.342   5.995   4.325  0.3865 -0.0793 -0.3598
  10023SM  H16S13583   1.417   5.914   4.315 -2.1488 -2.7790  0.9351
  10023SM  H16T13584   1.266   5.974   4.403  0.8643 -1.6160 -0.2812
  10023SM  C17S13585   1.421   6.130   4.357 -0.0350 -0.6189  0.3932
  10023SM  H17S13586   1.359   6.215   4.324  0.5818 -0.8533 -1.4898
  10023SM  H17T13587   1.517   6.129   4.299  0.1961 -0.6688  0.7737
  10023SM  C18S13588   1.445   6.147   4.503 -0.1208 -0.6861 -0.7303
  10023SM  H18S13589   1.510   6.067   4.544 -1.6389 -0.8125  1.6146
  10023SM  H18T13590   1.348   6.140   4.556  0.3845  0.7482  0.4518
  10023SM  H18U13591   1.489   6.248   4.519 -0.6047 -0.4858 -0.6273
  10023SM   C1F13592   1.531   6.317   3.158  0.4833 -0.3064 -0.9113
  10023SM    OF13593   1.423   6.285   3.201  0.1440  0.6044  0.7420
  10023SM   C2F13594   1.573   6.454   3.200  0.0859 -0.2744  0.7755
  10023SM   H2F13595   1.520   6.522   3.131  1.0771  1.0528  1.2629
  10023SM   H2G13596   1.682   6.471   3.186  0.2715 -1.1893  1.0592
  10023SM   C3F13597   1.531   6.483   3.344  0.2667 -0.1191 -0.4336
  10023SM   H3F13598   1.554   6.386   3.393  2.3997  0.5538  0.0306
  10023SM   H3G13599   1.424   6.508   3.353  0.6982  1.4984  0.6620
  10023SM   C4F13600   1.604   6.609   3.402 -0.3887 -0.7460 -0.7085
  10023SM   H4F13601   1.577   6.694   3.336  3.4707  0.8575 -0.5171
  10023SM   H4G13602   1.713   6.593   3.390 -0.2491 -0.1997 -0.2120
  10023SM   C5F13603   1.550   6.656   3.537  0.0170  0.2179 -0.3476
  10023SM   H5F13604   1.561   6.575   3.613  0.8573 -0.7598 -1.4805
  10023SM   H5G13605   1.441   6.679   3.533  0.2361  2.0246  2.0684
  10023SM   C6F13606   1.621   6.779   3.598 -0.1596 -0.8270  0.5973
  10023SM   H6F13607   1.601   6.870   3.538  0.4260  0.7377  2.6265
  10023SM   H6G13608   1.723   6.744   3.570 -0.5264 -0.7258 -0.9539
  10023SM   C7F13609   1.587   6.799   3.746  0.0246 -0.6871 -0.1121
  10023SM   H7F13610   1.604   6.699   3.793 -1.2538 -0.4800  0.8455
  10023SM   H7G13611   1.480   6.819   3.766  0.2558  0.0431  0.4143
  10023SM   C8F13612   1.689   6.900   3.803  0.8077  0.4466  0.5647
  10023SM   H8F13613   1.682   7.003   3.760 -0.7493 -0.1985 -0.8370
  10023SM   H8G13614   1.794   6.873   3.777  1.1030  1.5510  0.5563
  10023SM   C9F13615   1.672   6.901   3.951 -0.4721  0.4076  0.2444
  10023SM   H9F13616   1.678   6.799   3.995 -0.6550  0.6442  0.8241
  10023SM   H9G13617   1.569   6.932   3.979 -0.1690  2.1923 -0.4982
  10023SM  C10F13618   1.766   7.006   4.011  0.1454  0.2797  0.0235
  10023SM  H10F13619   1.731   7.105   3.974  0.7203 -0.2235 -1.9950
  10023SM  H10G13620   1.866   6.990   3.966 -1.0023 -3.5108 -1.5482
  10023SM  C11F13621   1.763   6.998   4.169 -1.6788 -0.3552 -0.2872
  10023SM  H11F13622   1.792   6.892   4.187 -2.0792 -0.8682 -2.3991
  10023SM  H11G13623   1.656   7.013   4.196 -1.8244 -0.8453 -0.5774
  10023SM  C12F13624   1.844   7.102   4.246  0.4001  0.3305  0.0332
  10023SM  H12F13625   1.821   7.203   4.208  0.6844  0.8074  1.0719
  10023SM  H12G13626   1.952   7.087   4.223 -0.2717 -2.0738 -1.9730
  10023SM  C13F13627   1.812   7.094   4.397 -0.3766  0.1918  0.1434
  10023SM  H13F13628   1.833   6.988   4.422 -0.4662 -0.0899 -0.9456
  10023SM  H13G13629   1.705   7.116   4.418 -0.5473 -0.8761  0.4301
  10023SM  C14F13630   1.906   7.185   4.478  0.1041  0.0671 -0.0624
  10023SM  H14F13631   1.890   7.281   4.424 -2.1752 -0.8420 -1.1393
  10023SM  H14G13632   2.016   7.169   4.469 -0.0129 -0.7279 -0.1105
  10023SM  C15F13633   1.864   7.203   4.624 -0.2115 -0.7639  0.1594
  10023SM  H15F13634   1.948   7.210   4.696  0.4360  0.5219 -0.6891
  10023SM  H15G13635   1.811   7.108   4.649  0.5237 -0.8081  1.6294
  10023SM  C16F13636   1.770   7.322   4.649  0.3723 -0.3252  0.4457
  10023SM  H16F13637   1.690   7.321   4.571  0.8144 -0.0793 -0.0150
  10023SM  H16G13638   1.831   7.413   4.631 -2.9600  1.9809 -0.3001
  10023SM  C17F13639   1.714   7.327   4.801 -0.7100  0.1470 -0.6102
  10023SM  H17F13640   1.653   7.419   4.815  0.5507  0.8712  0.3413
  10023SM  H17G13641   1.800   7.326   4.871 -0.1882 -0.9198 -1.2378
  10023SM  C18F13642   1.622   7.200   4.833 -0.0176  0.0366  0.0639
  10023SM  H18F13643   1.581   7.221   4.934  1.2103  2.5930  0.1192
  10023SM  H18G13644   1.681   7.106   4.835 -0.3573 -0.3182 -2.5160
  10023SM  C19F13645   1.496   7.183   4.735 -0.2736 -0.0081 -0.1292
  10023SM  H19F13646   1.525   7.167   4.629  0.2586  1.8635 -0.3149
  10023SM  H19G13647   1.436   7.277   4.739 -1.6711 -0.8163 -1.4519
  10023SM  C20F13648   1.393   7.089   4.794  0.0011 -0.1703 -0.3172
  10023SM  H20F13649   1.380   7.122   4.899 -0.8328 -0.2358 -0.3929
  10023SM  H20G13650   1.435   6.987   4.784 -1.8032 -1.2082  1.9913
  10023SM  C21F13651   1.255   7.068   4.714 -0.5277  0.0544  0.4271
  10023SM  H21F13652   1.285   7.035   4.613  0.7826 -0.4369  0.9553
  10023SM  H21G13653   1.199   7.163   4.725  1.4128  1.5245 -1.5842
  10023SM  C22F13654   1.178   6.953   4.785 -0.3937 -0.2780  0.6517
  10023SM  H22F13655   1.152   6.975   4.891  2.2152  0.5988  1.1899
  10023SM  H22G13656   1.245   6.864   4.786  2.1741  1.5307  2.7705
  10023SM  C23F13657   1.042   6.927   4.706 -0.4844 -0.5516 -0.0711
  10023SM  H23F13658   0.990   6.842   4.755 -0.6565  1.9687  4.6517
  10023SM  H23G13659   1.058   6.911   4.597  1.1275  1.7272 -0.2354
  10023SM  H23H13660   0.979   7.018   4.712 -0.3216 -0.2348 -2.2894
  101CHL1    C313661   5.291   3.087   6.507  0.1946  0.0894  0.2114
  101CHL1    H313662   5.268   2.979   6.502  0.2729  0.0114  1.3034
  101CHL1    O313663   5.321   3.130   6.641  0.3607  0.0206  0.1910
  101CHL1   H3'13664   5.396   3.071   6.655 -1.3270 -2.3817 -0.1760
  101CHL1    C413665   5.402   3.131   6.406  0.2233 -0.3627 -0.5843
  101CHL1   H4A13666   5.408   3.238   6.433  0.0612 -0.9937  2.2469
  101CHL1   H4B13667   5.500   3.087   6.436  0.7622  1.3873  0.3597
  101CHL1    C513668   5.361   3.111   6.258 -0.0675 -0.2647  0.5117
  101CHL1    C613669   5.426   3.046   6.168 -0.2137  0.2617 -0.6109
  101CHL1    H613670   5.522   3.000   6.194 -0.9563 -1.7873 -1.3008
  101CHL1    C713671   5.387   3.040   6.020  0.5200  0.4402 -0.3107
  101CHL1   H7A13672   5.469   3.059   5.947  0.0580 -0.0822 -0.9717
  101CHL1   H7B13673   5.351   2.936   6.005  0.7783  0.5465 -1.7812
  101CHL1    C813674   5.291   3.147   5.973  0.0017  0.1185 -0.1571
  101CHL1    H813675   5.346   3.244   5.964  1.8375 -0.9710 -1.2463
  101CHL1   C1413676   5.238   3.120   5.834  0.0420 -0.1146  0.1736
  101CHL1   H1413677   5.177   3.028   5.832  0.0230 -0.0948 -0.5928
  101CHL1   C1513678   5.343   3.089   5.724 -0.1526  0.0291  1.1893
  101CHL1  H15A13679   5.411   3.174   5.743 -2.1576  1.8647  0.5944
  101CHL1  H15B13680   5.387   2.987   5.733  0.0941 -0.0035 -0.1995
  101CHL1   C1613681   5.268   3.115   5.586  0.4424 -0.2810 -0.9189
  101CHL1  H16A13682   5.322   3.200   5.540  2.3142  0.0959  1.7285
  101CHL1  H16B13683   5.265   3.028   5.517  0.6817  0.5074 -1.9430
  101CHL1   C1713684   5.130   3.163   5.640 -0.8419  0.4820  0.8069
  101CHL1   H1713685   5.074   3.069   5.660 -1.4025  0.4508 -0.7887
  101CHL1   C1313686   5.145   3.223   5.781 -0.2967  0.7775 -0.4298
  101CHL1   C1813687   5.197   3.365   5.767 -0.3415 -0.2520 -0.0206
  101CHL1  H18A13688   5.253   3.395   5.858  1.2934 -2.0022 -0.3748
  101CHL1  H18B13689   5.263   3.370   5.677 -1.7176 -0.5190 -1.0821
  101CHL1  H18C13690   5.108   3.428   5.747 -1.0469 -1.4670 -0.9009
  101CHL1   C1213691   5.021   3.224   5.876  0.4339  0.8221 -0.3657
  101CHL1  H12A13692   4.947   3.299   5.840  1.5835  1.3151 -1.8257
  101CHL1  H12B13693   4.984   3.121   5.890  1.4460  0.5121  0.1352
  101CHL1   C1113694   5.077   3.262   6.013  0.4532 -0.2133 -0.8422
  101CHL1  H11A13695   5.103   3.370   6.014 -1.1765  0.1976  0.1088
  101CHL1  H11B13696   4.989   3.257   6.081  0.7411  1.7684 -0.2643
  101CHL1    C913697   5.178   3.166   6.075 -0.1065  0.4950 -0.0155
  101CHL1    H913698   5.135   3.064   6.083  0.7361  0.1186 -0.0755
  101CHL1   C1013699   5.237   3.190   6.218 -0.0534  0.2896  0.2060
  101CHL1   C1913700   5.274   3.340   6.238 -0.4541  0.2093  0.9050
  101CHL1  H19A13701   5.182   3.399   6.218 -1.4526 -1.4879  0.3309
  101CHL1  H19B13702   5.299   3.376   6.341  1.3871 -0.4122  0.7167
  101CHL1  H19C13703   5.360   3.366   6.172  0.6160  0.2022  2.2361
  101CHL1    C113704   5.123   3.164   6.319  0.1316 -0.2976  0.6996
  101CHL1   H1A13705   5.041   3.238   6.316 -1.4432 -1.9928  0.1099
  101CHL1   H1B13706   5.067   3.070   6.299 -1.2250  0.2754  1.6452
  101CHL1    C213707   5.168   3.169   6.472  0.1199 -0.2468 -1.0792
  101CHL1   H2A13708   5.093   3.124   6.541  1.0345 -0.0556  0.0772
  101CHL1   H2B13709   5.175   3.276   6.501 -0.9660 -0.1396 -1.1681
  101CHL1   C2013710   5.046   3.241   5.532 -0.0082  0.2352 -0.2506
  101CHL1   H2013711   5.075   3.348   5.541 -2.0014  0.7672  0.2750
  101CHL1   C2113712   4.894   3.246   5.558  0.2487 -0.2828 -0.2240
  101CHL1  H21A13713   4.858   3.141   5.555  1.9488 -0.8930 -2.3145
  101CHL1  H21B13714   4.835   3.291   5.475 -0.3785 -0.0844  0.3239
  101CHL1  H21C13715   4.871   3.286   5.659  1.2775 -0.9899  0.3141
  101CHL1   C2213716   5.071   3.194   5.385  0.4545  0.0284  0.2680
  101CHL1  H22A13717   5.034   3.271   5.314  1.3459  0.1990 -0.0187
  101CHL1  H22B13718   5.178   3.176   5.360  0.5473 -2.0284  1.8468
  101CHL1   C2313719   4.998   3.061   5.351 -0.5315 -0.2385  0.4384
  101CHL1  H23A13720   5.032   2.975   5.413 -0.4787 -0.1676  0.5099
  101CHL1  H23B13721   4.889   3.066   5.371 -0.3395 -0.8861  1.7880
  101CHL1   C2413722   5.026   3.014   5.209 -0.1491  0.7309 -0.1903
  101CHL1  H24A13723   4.952   2.933   5.190 -0.6916  1.0402  0.5513
  101CHL1  H24B13724   4.996   3.100   5.146  1.0341 -0.6228 -2.7277
  101CHL1   C2513725   5.164   2.963   5.162  0.0145 -0.0013  0.2413
  101CHL1   H2513726   5.237   3.046   5.153  0.2561 -0.2778 -0.4914
  101CHL1   C2613727   5.209   2.847   5.247 -0.1259  0.0469 -0.2119
  101CHL1  H26A13728   5.284   2.790   5.188  2.3145  2.4431  0.3339
  101CHL1  H26B13729   5.266   2.882   5.336  0.6953  0.9639 -1.0709
  101CHL1  H26C13730   5.126   2.785   5.288 -0.0172 -0.9356 -1.4384
  101CHL1   C2713731   5.155   2.913   5.019  0.0523 -0.4027  0.5064
  101CHL1  H27A13732   5.259   2.904   4.980  0.5539  0.4392  1.5566
  101CHL1  H27B13733   5.098   2.819   5.007  0.7521 -0.5705 -2.0961
  101CHL1  H27C13734   5.101   2.990   4.961  0.9732  0.7176  1.0870
  102CHL1    C313735   3.202   3.775   6.291 -0.0422 -0.5379  0.7464
  102CHL1    H313736   3.094   3.796   6.307  0.0019  0.7196 -0.4351
  102CHL1    O313737   3.250   3.762   6.417 -0.0823 -0.1525  0.0641
  102CHL1   H3'13738   3.225   3.674   6.446 -3.3662  0.9054  0.9113
  102CHL1    C413739   3.210   3.648   6.205 -0.4533  0.1860  0.2279
  102CHL1   H4A13740   3.318   3.620   6.201 -1.3014 -3.3456 -1.6367
  102CHL1   H4B13741   3.151   3.569   6.255 -1.4045 -0.0117 -1.1688
  102CHL1    C513742   3.164   3.668   6.056  0.5298 -0.0178 -0.5852
  102CHL1    C613743   3.071   3.588   6.005  0.1506  0.4106  0.3593
  102CHL1    H613744   3.045   3.503   6.071  0.9671 -0.5610 -0.5469
  102CHL1    C713745   3.010   3.615   5.863 -0.1002  0.6479 -0.5281
  102CHL1   H7A13746   3.016   3.527   5.795  0.6923  0.7560 -0.6017
  102CHL1   H7B13747   2.902   3.642   5.873  0.4893  2.5499  1.3953
  102CHL1    C813748   3.088   3.718   5.780  0.5006  1.1633 -0.6418
  102CHL1    H813749   3.180   3.664   5.750  0.1948  0.5123 -0.4124
  102CHL1   C1413750   3.011   3.764   5.650 -0.5883 -0.0966 -0.1272
  102CHL1   H1413751   2.922   3.818   5.689 -0.0918  0.5348  0.1453
  102CHL1   C1513752   2.954   3.667   5.550 -0.2583  0.2891  0.1034
  102CHL1  H15A13753   3.026   3.583   5.546  1.8260  1.8836  1.5415
  102CHL1  H15B13754   2.859   3.630   5.594 -0.0117 -0.3524  0.1041
  102CHL1   C1613755   2.930   3.742   5.423 -0.0596 -0.3467  0.5114
  102CHL1  H16A13756   2.979   3.695   5.336 -1.1187  1.2434 -1.0001
  102CHL1  H16B13757   2.821   3.755   5.407  0.2381  0.8534 -0.7609
  102CHL1   C1713758   2.986   3.885   5.456 -0.4318  0.4530  0.2180
  102CHL1   H1713759   2.905   3.944   5.505 -2.3893 -1.7133 -0.2543
  102CHL1   C1313760   3.088   3.864   5.565 -0.6410  0.3540  0.0850
  102CHL1   C1813761   3.223   3.805   5.513 -0.0609  0.6051  0.8238
  102CHL1  H18A13762   3.291   3.883   5.471 -0.3904  0.4534  0.0060
  102CHL1  H18B13763   3.283   3.754   5.592  2.1238  0.4177 -0.8577
  102CHL1  H18C13764   3.206   3.742   5.423 -1.8621  0.3966  1.2762
  102CHL1   C1213765   3.106   3.990   5.653 -0.5850  0.1938 -0.4141
  102CHL1  H12A13766   3.161   4.065   5.593  2.8436 -0.4515  1.6529
  102CHL1  H12B13767   3.008   4.025   5.692  0.6941  2.2191  1.1718
  102CHL1   C1113768   3.179   3.964   5.783  0.2446 -0.3323  0.4243
  102CHL1  H11A13769   3.284   3.937   5.758  1.0662  3.0812 -0.2817
  102CHL1  H11B13770   3.172   4.060   5.837 -1.4478 -1.0864  1.6534
  102CHL1    C913771   3.120   3.843   5.868  0.4386 -0.4363  0.4247
  102CHL1    H913772   3.023   3.876   5.912  0.3489 -0.6841  0.4109
  102CHL1   C1013773   3.207   3.799   5.988  0.7630 -0.9351  0.2307
  102CHL1   C1913774   3.358   3.776   5.946  0.4545 -0.7162  0.7666
  102CHL1  H19A13775   3.424   3.741   6.028  0.6842  0.1746  0.9679
  102CHL1  H19B13776   3.363   3.698   5.866  1.8474  1.1592 -1.0644
  102CHL1  H19C13777   3.414   3.866   5.914 -1.8647  1.0781  1.4590
  102CHL1    C113778   3.195   3.916   6.089  0.3125 -0.2512  0.1215
  102CHL1   H1A13779   3.243   4.009   6.053 -0.5288  1.4602  3.0838
  102CHL1   H1B13780   3.088   3.944   6.101  0.1385 -0.4003 -0.9728
  102CHL1    C213781   3.273   3.890   6.220 -0.0994  0.0658  0.1045
  102CHL1   H2A13782   3.293   3.976   6.286  2.1493  0.2118 -0.6852
  102CHL1   H2B13783   3.373   3.854   6.187 -0.8465 -0.7816 -1.3575
  102CHL1   C2013784   3.027   3.960   5.324 -0.5128 -0.6828  0.5634
  102CHL1   H2013785   3.110   3.906   5.274 -2.3396 -2.1726 -1.0116
  102CHL1   C2113786   3.060   4.107   5.360 -0.3866 -0.4957 -0.3231
  102CHL1  H21A13787   3.165   4.105   5.396 -0.2169 -2.9691 -0.7865
  102CHL1  H21B13788   3.000   4.161   5.435 -1.7736 -1.5948 -0.5928
  102CHL1  H21C13789   3.064   4.165   5.265  1.2885  0.8399  0.5093
  102CHL1   C2213790   2.914   3.960   5.214  0.1516 -0.5307  0.6011
  102CHL1  H22A13791   2.860   3.863   5.210 -0.8042  0.0171 -3.2857
  102CHL1  H22B13792   2.844   4.042   5.241  0.7753  0.0530  0.4615
  102CHL1   C2313793   2.967   3.998   5.077 -0.1272  0.1533  0.4189
  102CHL1  H23A13794   2.997   4.105   5.080  3.3225 -0.6422 -0.5070
  102CHL1  H23B13795   3.056   3.936   5.054 -0.1842  1.0121 -2.5950
  102CHL1   C2413796   2.862   3.989   4.966 -0.5099  0.2172 -0.4207
  102CHL1  H24A13797   2.845   3.884   4.932  2.4319 -0.8158  0.9673
  102CHL1  H24B13798   2.769   4.033   5.008 -0.1266 -0.0388  0.7284
  102CHL1   C2513799   2.895   4.077   4.849  0.4996 -0.0124  0.2902
  102CHL1   H2513800   2.883   4.183   4.881 -2.4585  0.2860 -1.4816
  102CHL1   C2613801   3.047   4.066   4.806  0.3739  0.0292  0.3345
  102CHL1  H26A13802   3.110   4.118   4.881  1.2070 -1.6097  0.8251
  102CHL1  H26B13803   3.074   3.958   4.810  0.8522  0.1045 -0.7352
  102CHL1  H26C13804   3.061   4.108   4.705  3.2928 -4.0254 -1.2523
  102CHL1   C2713805   2.801   4.045   4.733  0.2133 -0.3180  0.4604
  102CHL1  H27A13806   2.696   4.033   4.768  0.3415 -0.3429  0.8352
  102CHL1  H27B13807   2.816   4.126   4.658 -0.3316  1.0444  1.7902
  102CHL1  H27C13808   2.827   3.949   4.684 -0.5341  0.1948 -1.0035
  103CHL1    C313809   4.392   1.173   6.187 -0.4034  0.4675  0.1532
  103CHL1    H313810   4.473   1.131   6.125 -0.2195 -1.2177  1.4692
  103CHL1    O313811   4.412   1.120   6.323 -0.2564 -0.3914 -0.2098
  103CHL1   H3'13812   4.334   1.156   6.365  0.8525  0.9823  0.7620
  103CHL1    C413813   4.384   1.322   6.181  0.0045  0.4013 -0.9318
  103CHL1   H4A13814   4.297   1.356   6.240  2.0464  0.4327  2.3374
  103CHL1   H4B13815   4.478   1.352   6.234  0.0037 -1.4292  0.2239
  103CHL1    C513816   4.367   1.379   6.046 -0.2109 -0.3369  0.3147
  103CHL1    C613817   4.451   1.468   5.999  0.3781 -0.2362  0.4241
  103CHL1    H613818   4.532   1.500   6.066  1.9432 -2.3472 -0.3504
  103CHL1    C713819   4.433   1.541   5.867  0.0775  0.1942  0.3707
  103CHL1   H7A13820   4.437   1.652   5.863  3.1820  0.2017  1.3842
  103CHL1   H7B13821   4.508   1.492   5.802  0.8888  1.8795 -0.0235
  103CHL1    C813822   4.299   1.505   5.790  0.0974 -0.3809  0.3209
  103CHL1    H813823   4.222   1.569   5.837  0.6171 -1.1489  2.3690
  103CHL1   C1413824   4.298   1.531   5.639 -0.1411  0.0719 -0.1231
  103CHL1   H1413825   4.386   1.469   5.609  0.7631  0.5683  1.4012
  103CHL1   C1513826   4.332   1.679   5.597  0.5743  0.8982 -0.0658
  103CHL1  H15A13827   4.279   1.748   5.666 -1.2586 -1.4728  1.0546
  103CHL1  H15B13828   4.441   1.700   5.603  0.7572 -0.2747  1.3247
  103CHL1   C1613829   4.269   1.689   5.452  0.4008  0.1231  1.1634
  103CHL1  H16A13830   4.189   1.765   5.463  0.5743  0.4831  0.0073
  103CHL1  H16B13831   4.345   1.713   5.375  0.4469 -2.7488  0.1944
  103CHL1   C1713832   4.217   1.543   5.431 -0.3565 -0.5625 -0.0032
  103CHL1   H1713833   4.305   1.483   5.401  1.2501  1.3879  0.5586
  103CHL1   C1313834   4.175   1.486   5.565 -0.0668 -1.1534  0.4984
  103CHL1   C1813835   4.045   1.564   5.613 -0.2204 -0.9560 -0.5176
  103CHL1  H18A13836   4.043   1.673   5.590  1.1240 -0.5655  1.0658
  103CHL1  H18B13837   3.952   1.535   5.559 -0.0528  0.9041 -1.9022
  103CHL1  H18C13838   4.028   1.546   5.721  0.5156 -1.6170 -0.5065
  103CHL1   C1213839   4.161   1.336   5.579 -0.4209 -0.1889  0.1168
  103CHL1  H12A13840   4.067   1.307   5.527 -0.3997  1.5123 -0.9719
  103CHL1  H12B13841   4.252   1.279   5.551 -0.0774  0.2870  0.2364
  103CHL1   C1113842   4.149   1.292   5.722  0.0129  0.2911 -0.0487
  103CHL1  H11A13843   4.054   1.328   5.767 -0.4024  1.1574 -1.5666
  103CHL1  H11B13844   4.168   1.185   5.749 -0.5806  0.1758 -0.0921
  103CHL1    C913845   4.261   1.361   5.818  0.0797  0.8482  0.3801
  103CHL1    H913846   4.354   1.310   5.784 -0.2107  0.5773 -0.0252
  103CHL1   C1013847   4.245   1.328   5.972  0.1408 -0.2558  1.2243
  103CHL1   C1913848   4.123   1.398   6.020  1.0235  0.4179  0.5325
  103CHL1  H19A13849   4.094   1.368   6.123  2.3689 -0.6252  0.6346
  103CHL1  H19B13850   4.137   1.507   6.035 -0.3075  0.4562  1.7469
  103CHL1  H19C13851   4.034   1.377   5.957  0.3806 -0.0551  1.5703
  103CHL1    C113852   4.231   1.174   5.989  0.3140  0.3808 -0.1326
  103CHL1   H1A13853   4.136   1.126   5.957 -1.1352  3.1913 -0.3320
  103CHL1   H1B13854   4.314   1.131   5.929  1.6682  2.5949  0.0346
  103CHL1    C213855   4.259   1.121   6.136 -0.0197  1.0971 -0.4705
  103CHL1   H2A13856   4.260   1.010   6.142  0.3495  1.1501  0.8772
  103CHL1   H2B13857   4.169   1.150   6.195 -0.2743  1.2262 -0.9178
  103CHL1   C2013858   4.117   1.541   5.318 -0.0334 -0.6413  0.5625
  103CHL1   H2013859   4.050   1.454   5.338 -1.6684  0.8933  2.2598
  103CHL1   C2113860   4.201   1.526   5.190  0.7663  1.4753 -0.2760
  103CHL1  H21A13861   4.220   1.425   5.148  2.1976  0.2517  3.0041
  103CHL1  H21B13862   4.303   1.568   5.194  1.4298 -0.0081 -1.0227
  103CHL1  H21C13863   4.149   1.580   5.108 -0.1904 -1.2393 -1.5798
  103CHL1   C2213864   4.021   1.667   5.298  0.4790  0.3285  0.1326
  103CHL1  H22A13865   3.982   1.702   5.395 -2.2593  0.8095 -1.0493
  103CHL1  H22B13866   4.075   1.747   5.242  0.3498 -0.0372 -0.5345
  103CHL1   C2313867   3.897   1.623   5.213 -0.3266 -0.2603  0.3315
  103CHL1  H23A13868   3.933   1.609   5.109  1.1879 -0.3733  0.8534
  103CHL1  H23B13869   3.864   1.523   5.247  2.4075 -1.4186 -0.1692
  103CHL1   C2413870   3.790   1.726   5.224  1.1379 -0.2959 -0.1273
  103CHL1  H24A13871   3.761   1.746   5.330  3.4201  2.6627  0.0644
  103CHL1  H24B13872   3.826   1.827   5.196 -2.0733  0.5475 -1.7481
  103CHL1   C2513873   3.664   1.700   5.140  0.0180 -0.0126  0.1547
  103CHL1   H2513874   3.676   1.667   5.034 -0.6556 -0.7115  0.2804
  103CHL1   C2613875   3.572   1.593   5.206  0.2928 -0.2657  0.2444
  103CHL1  H26A13876   3.488   1.563   5.139  1.1237  1.2629 -1.5920
  103CHL1  H26B13877   3.626   1.497   5.217  0.7627  0.2137  2.4543
  103CHL1  H26C13878   3.522   1.638   5.294  0.4074  0.9776 -0.2984
  103CHL1   C2713879   3.591   1.837   5.122 -0.0285 -0.1073  0.2331
  103CHL1  H27A13880   3.576   1.880   5.223 -3.3417 -0.0649 -0.1711
  103CHL1  H27B13881   3.647   1.905   5.055  3.8939 -2.4784  0.7827
  103CHL1  H27C13882   3.493   1.822   5.072 -0.0519  1.3370 -0.2128
  104CHL1    C313883   7.282   3.070   6.841  0.4311  0.2355 -0.7513
  104CHL1    H313884   7.241   2.967   6.848 -2.4763  1.3407 -0.0443
  104CHL1    O313885   7.304   3.119   6.970 -0.5147 -0.2783 -0.3361
  104CHL1   H3'13886   7.217   3.114   7.012  1.1511  1.5553  3.8962
  104CHL1    C413887   7.410   3.075   6.761  0.0555 -0.1389  0.2790
  104CHL1   H4A13888   7.448   3.179   6.762  0.7457 -0.3582  2.0387
  104CHL1   H4B13889   7.487   3.010   6.808  0.5059 -1.5802 -2.2621
  104CHL1    C513890   7.382   3.008   6.626 -0.5575 -0.5756 -0.2287
  104CHL1    C613891   7.446   2.899   6.580  0.0239 -0.1160 -0.2205
  104CHL1    H613892   7.524   2.857   6.646 -0.6616  0.5895  1.0770
  104CHL1    C713893   7.435   2.833   6.445 -0.0876  1.0536 -0.2555
  104CHL1   H7A13894   7.536   2.808   6.405  0.3546  2.5510 -0.1531
  104CHL1   H7B13895   7.382   2.738   6.468 -1.1006  1.5464 -0.5119
  104CHL1    C813896   7.346   2.915   6.352 -0.1378 -0.3294  0.2793
  104CHL1    H813897   7.410   2.998   6.316 -1.5382  0.2229 -1.0428
  104CHL1   C1413898   7.294   2.826   6.239 -0.1809  0.4372 -0.2678
  104CHL1   H1413899   7.231   2.750   6.291  1.0046  0.0900  0.7042
  104CHL1   C1513900   7.393   2.740   6.158 -0.1636  0.3575  0.5117
  104CHL1  H15A13901   7.484   2.798   6.133  1.0912 -2.0007 -0.7123
  104CHL1  H15B13902   7.407   2.644   6.213 -0.0165 -1.4418 -2.4378
  104CHL1   C1613903   7.305   2.696   6.035  0.3930 -0.4068  0.3738
  104CHL1  H16A13904   7.374   2.719   5.950 -0.5151 -0.9697 -0.5404
  104CHL1  H16B13905   7.286   2.587   6.040  0.4345 -0.3923  0.8414
  104CHL1   C1713906   7.175   2.779   6.037  0.1957 -0.0662 -0.2472
  104CHL1   H1713907   7.095   2.721   6.087 -1.2808  3.0314  1.3301
  104CHL1   C1313908   7.210   2.899   6.133 -0.2165  0.0478  0.4115
  104CHL1   C1813909   7.303   3.006   6.064 -0.4285  0.0608  0.4648
  104CHL1  H18A13910   7.324   3.086   6.137  0.6782  0.9469 -0.7710
  104CHL1  H18B13911   7.399   2.960   6.032 -0.5531  0.0942  0.0313
  104CHL1  H18C13912   7.250   3.050   5.977  0.8402  0.5523 -0.0855
  104CHL1   C1213913   7.092   2.963   6.211 -0.1339  0.0980  0.2801
  104CHL1  H12A13914   7.029   3.023   6.142 -2.5594 -2.6766 -0.1088
  104CHL1  H12B13915   7.029   2.887   6.261 -1.9695  1.7005  0.5262
  104CHL1   C1113916   7.133   3.056   6.324  0.0552 -0.0024 -0.3009
  104CHL1  H11A13917   7.178   3.143   6.271  0.6268  0.0529  0.2693
  104CHL1  H11B13918   7.043   3.090   6.380  1.1924 -0.1487  1.6955
  104CHL1    C913919   7.228   2.983   6.427 -0.0640 -0.1263 -0.4149
  104CHL1    H913920   7.162   2.906   6.474 -0.0608  1.4530  2.3578
  104CHL1   C1013921   7.271   3.078   6.545  0.2265  0.7628 -0.1392
  104CHL1   C1913922   7.325   3.211   6.486 -0.8130 -0.2751  0.1195
  104CHL1  H19A13923   7.404   3.199   6.409 -1.5337 -0.9157 -0.5373
  104CHL1  H19B13924   7.242   3.271   6.441  0.2379  0.7504 -0.4970
  104CHL1  H19C13925   7.359   3.274   6.570 -0.3128 -2.2768  1.4877
  104CHL1    C113926   7.144   3.113   6.639  1.0653  0.0658  0.1689
  104CHL1   H1A13927   7.082   3.181   6.576  1.5241  0.0279 -0.3317
  104CHL1   H1B13928   7.089   3.017   6.649 -0.6855  0.9736 -0.3403
  104CHL1    C213929   7.179   3.166   6.773  0.1943 -0.0158 -0.2551
  104CHL1   H2A13930   7.084   3.174   6.831 -0.6065 -2.2178 -1.1473
  104CHL1   H2B13931   7.233   3.263   6.764  3.5432 -1.5880  1.4239
  104CHL1   C2013932   7.132   2.808   5.892 -0.2367 -0.0012  0.4439
  104CHL1   H2013933   7.211   2.865   5.838 -0.4248  0.9656  1.1470
  104CHL1   C2113934   7.001   2.893   5.896 -0.1706 -0.5210 -0.1585
  104CHL1  H21A13935   6.951   2.911   5.799  1.9071 -0.5034 -1.2829
  104CHL1  H21B13936   7.032   2.994   5.933 -1.0286 -0.6346  0.9163
  104CHL1  H21C13937   6.929   2.853   5.970 -0.7271  0.1135 -0.3519
  104CHL1   C2213938   7.104   2.685   5.802  0.1898  0.2937 -0.5088
  104CHL1  H22A13939   7.087   2.721   5.698  0.0008 -0.4898 -0.7532
  104CHL1  H22B13940   7.187   2.612   5.798  0.2564  0.4164 -1.9295
  104CHL1   C2313941   6.989   2.593   5.857 -0.0503 -0.1450 -0.8110
  104CHL1  H23A13942   7.009   2.552   5.959  3.1076  1.0461 -0.8391
  104CHL1  H23B13943   6.901   2.660   5.859  0.0600 -0.0163  0.7451
  104CHL1   C2413944   6.954   2.471   5.771 -0.2169  0.2318 -0.0734
  104CHL1  H24A13945   7.048   2.416   5.751 -1.4516 -2.4081  0.9622
  104CHL1  H24B13946   6.888   2.411   5.837 -0.9253  0.0370 -0.9429
  104CHL1   C2513947   6.897   2.501   5.633 -0.9910 -0.9372 -0.9521
  104CHL1   H2513948   6.961   2.578   5.584  1.2644 -0.8419  1.8775
  104CHL1   C2613949   6.901   2.382   5.541 -0.7172 -0.5625 -0.0081
  104CHL1  H26A13950   6.852   2.425   5.451  2.0061 -2.6228 -2.6659
  104CHL1  H26B13951   7.004   2.360   5.506  0.0822  0.8220  1.3544
  104CHL1  H26C13952   6.852   2.289   5.577  2.5027 -1.4562  2.5764
  104CHL1   C2713953   6.766   2.570   5.633  0.5143  1.0310  0.1639
  104CHL1  H27A13954   6.699   2.495   5.680  0.3232  1.6569  0.9137
  104CHL1  H27B13955   6.758   2.654   5.705  1.0972 -1.0816  2.8484
  104CHL1  H27C13956   6.740   2.591   5.527 -0.8367  2.1029  0.6747
  105CHL1    C313957   0.185   1.901   6.438 -0.6452 -0.3902  0.0924
  105CHL1    H313958   0.117   1.813   6.431 -1.9894  0.6757 -0.6349
  105CHL1    O313959   0.218   1.915   6.574 -0.0565 -0.5089  0.0922
  105CHL1   H3'13960   0.152   1.968   6.619  1.4728  0.4063  1.3594
  105CHL1    C413961   0.319   1.851   6.367  0.5929  0.4541  0.1203
  105CHL1   H4A13962   0.396   1.927   6.393  0.9403  0.6403 -1.3911
  105CHL1   H4B13963   0.349   1.755   6.415 -1.4040  0.2812  1.1327
  105CHL1    C513964   0.312   1.840   6.221 -0.6395 -0.5099 -0.4278
  105CHL1    C613965   0.361   1.740   6.152  0.3614 -0.2907  0.3484
  105CHL1    H613966   0.410   1.658   6.208  0.7748  0.2083  0.7267
  105CHL1    C713967   0.342   1.723   6.005  0.3133  0.2060 -0.0502
  105CHL1   H7A13968   0.439   1.697   5.958  0.4065  1.9156 -0.9025
  105CHL1   H7B13969   0.268   1.641   5.994 -0.2371  0.5306  1.0491
  105CHL1    C813970   0.293   1.841   5.930  0.2003  0.7360 -0.4620
  105CHL1    H813971   0.382   1.901   5.903  0.6091 -0.3119 -1.5067
  105CHL1   C1413972   0.222   1.805   5.799 -0.3309 -0.6816  0.1651
  105CHL1   H1413973   0.133   1.747   5.833 -1.4238 -0.0002 -1.4170
  105CHL1   C1513974   0.293   1.709   5.692 -0.0618 -0.6766 -0.9329
  105CHL1  H15A13975   0.400   1.731   5.671  0.9514 -3.9421  0.2392
  105CHL1  H15B13976   0.292   1.604   5.729 -0.2326 -0.0003  1.1264
  105CHL1   C1613977   0.202   1.718   5.569  0.8693  0.2042  0.0079
  105CHL1  H16A13978   0.257   1.729   5.473 -1.4843  0.8099 -1.3524
  105CHL1  H16B13979   0.142   1.625   5.558 -0.2780  1.0120 -0.8219
  105CHL1   C1713980   0.099   1.832   5.597 -0.1215  0.6801  0.3565
  105CHL1   H1713981   0.014   1.797   5.659 -1.7971  2.2115 -0.9890
  105CHL1   C1313982   0.174   1.919   5.709 -0.0706  0.1525  0.2010
  105CHL1   C1813983   0.297   1.996   5.652 -0.1678  0.1186  0.6628
  105CHL1  H18A13984   0.382   1.984   5.723  0.6976 -0.1743 -0.3976
  105CHL1  H18B13985   0.327   1.942   5.559  0.4690  1.9313 -0.2226
  105CHL1  H18C13986   0.285   2.103   5.626 -0.6797  0.4263  2.0645
  105CHL1   C1213987   0.082   2.010   5.789  0.2369  0.2740 -0.7149
  105CHL1  H12A13988   0.050   2.100   5.732 -1.4031 -0.5630 -1.1966
  105CHL1  H12B13989  -0.011   1.954   5.813 -1.3770  3.1716  0.4117
  105CHL1   C1113990   0.161   2.048   5.920  0.0821  0.7606 -0.4081
  105CHL1  H11A13991   0.260   2.089   5.893  1.0833 -0.8803  0.6661
  105CHL1  H11B13992   0.105   2.122   5.982 -1.0360  1.6556 -2.3602
  105CHL1    C913993   0.189   1.918   6.005 -0.9741  0.6007  0.2248
  105CHL1    H913994   0.094   1.862   6.020 -1.6865  1.5824 -0.4909
  105CHL1   C1013995   0.231   1.952   6.149  0.3879  0.0713 -0.8203
  105CHL1   C1913996   0.332   2.075   6.150  0.1856 -0.3466  0.9232
  105CHL1  H19A13997   0.389   2.067   6.246 -0.7915 -2.1054  1.4110
  105CHL1  H19B13998   0.402   2.062   6.065 -2.1793 -0.4935 -1.1122
  105CHL1  H19C13999   0.277   2.171   6.140  2.2804  0.7908 -0.3083
  105CHL1    C114000   0.101   1.994   6.225 -0.2808  0.6322 -0.7433
  105CHL1   H1A14001   0.064   2.089   6.181  0.9487  0.9137 -1.2253
  105CHL1   H1B14002   0.025   1.913   6.225  0.0857  0.1925  1.9036
  105CHL1    C214003   0.122   2.029   6.371 -0.1266 -0.5417  0.0517
  105CHL1   H2A14004   0.017   2.060   6.388 -0.3333  1.5765 -3.9995
  105CHL1   H2B14005   0.180   2.121   6.393  1.5772 -1.9962  2.0978
  105CHL1   C2014006   0.045   1.900   5.468 -1.0463 -0.2847  0.2474
  105CHL1   H2014007   0.102   1.993   5.445 -1.8949  0.0708 -0.4880
  105CHL1   C2114008  -0.098   1.956   5.500  0.5662 -0.3153 -1.1191
  105CHL1  H21A14009  -0.166   1.875   5.534  0.5035  0.3778  0.4975
  105CHL1  H21B14010  -0.144   2.009   5.415 -1.6197  1.8807  1.2938
  105CHL1  H21C14011  -0.102   2.016   5.593 -0.5484 -0.5383 -1.0151
  105CHL1   C2214012   0.050   1.814   5.338  0.0631 -0.0449 -0.0961
  105CHL1  H22A14013   0.152   1.788   5.302 -0.2351 -0.0115 -0.9976
  105CHL1  H22B14014  -0.000   1.721   5.372 -1.4042  0.3755 -1.0098
  105CHL1   C2314015  -0.035   1.860   5.216  0.0938  0.1071 -0.2491
  105CHL1  H23A14016  -0.143   1.849   5.241  0.3687 -2.6907 -0.0291
  105CHL1  H23B14017  -0.010   1.968   5.201 -0.4306  0.3844  0.7473
  105CHL1   C2414018  -0.019   1.793   5.079  0.6143  0.3608 -0.4057
  105CHL1  H24A14019   0.086   1.756   5.075  1.0088  0.7674  3.1598
  105CHL1  H24B14020  -0.077   1.698   5.075  0.4681  0.3880  0.7859
  105CHL1   C2514021  -0.047   1.875   4.953  0.8438  0.4819  0.0923
  105CHL1   H2514022   0.013   1.968   4.962  0.3172  0.9095 -0.6659
  105CHL1   C2614023  -0.016   1.797   4.823  0.0897  0.2442  0.5410
  105CHL1  H26A14024  -0.058   1.849   4.734  1.8949  0.3303 -0.3083
  105CHL1  H26B14025   0.091   1.771   4.808 -0.5707 -2.4354 -0.0959
  105CHL1  H26C14026  -0.058   1.694   4.831 -1.2889  0.7781  0.4217
  105CHL1   C2714027  -0.201   1.897   4.953 -0.0204  0.4850 -0.1537
  105CHL1  H27A14028  -0.236   1.938   5.050 -2.6680  3.1281 -2.0570
  105CHL1  H27B14029  -0.245   1.974   4.886 -2.0757  1.9925  2.7098
  105CHL1  H27C14030  -0.262   1.808   4.926  0.5374  0.6344 -2.1304
  106CHL1    C314031   2.538   0.544   6.136 -0.4965 -0.6187  0.3481
  106CHL1    H314032   2.472   0.460   6.105 -1.3094  0.4085 -0.8012
  106CHL1    O314033   2.519   0.567   6.275  0.9496  0.1976  0.0013
  106CHL1   H3'14034   2.572   0.645   6.289 -0.3822  1.0883  0.1982
  106CHL1    C414035   2.686   0.508   6.116 -0.4322  0.3654 -0.1761
  106CHL1   H4A14036   2.741   0.593   6.163 -1.0112  0.4283  0.4021
  106CHL1   H4B14037   2.712   0.425   6.185 -0.6976  0.8840  0.5550
  106CHL1    C514038   2.727   0.482   5.974 -0.3813 -0.2214 -0.5691
  106CHL1    C614039   2.775   0.364   5.936  0.3152 -0.3578 -0.2349
  106CHL1    H614040   2.803   0.292   6.014  0.4088  0.1575  0.2075
  106CHL1    C714041   2.810   0.340   5.783  0.0790  0.0366 -0.0199
  106CHL1   H7A14042   2.905   0.283   5.773  0.3799  0.7600 -1.5450
  106CHL1   H7B14043   2.736   0.271   5.739 -0.3049  0.5766 -0.2296
  106CHL1    C814044   2.811   0.467   5.694 -0.3527 -0.1579  0.0114
  106CHL1    H814045   2.906   0.517   5.724  0.6343 -2.0185  0.1917
  106CHL1   C1414046   2.799   0.431   5.544  0.0197 -0.0703  0.1885
  106CHL1   H1414047   2.708   0.366   5.539  0.7198 -1.1845  1.4205
  106CHL1   C1514048   2.911   0.337   5.491  0.1525  0.2282 -0.4948
  106CHL1  H15A14049   3.010   0.383   5.509  0.5300 -0.6709 -0.1766
  106CHL1  H15B14050   2.914   0.232   5.530  1.4836  0.7807  0.9945
  106CHL1   C1614051   2.876   0.341   5.345  0.3252  0.0948 -0.1538
  106CHL1  H16A14052   2.975   0.356   5.296  1.2067 -0.0161  1.4891
  106CHL1  H16B14053   2.840   0.237   5.328  1.5836 -0.1863 -1.2697
  106CHL1   C1714054   2.781   0.457   5.312 -0.5353  0.2056  0.4771
  106CHL1   H1714055   2.682   0.409   5.321  0.6940 -2.4014  0.8996
  106CHL1   C1314056   2.785   0.546   5.443 -0.1154 -0.0898  0.3097
  106CHL1   C1814057   2.903   0.647   5.448 -0.5310 -0.1269  0.7692
  106CHL1  H18A14058   2.998   0.597   5.418  0.3144  0.7698  1.8571
  106CHL1  H18B14059   2.879   0.726   5.374  0.5126 -1.4102 -1.0277
  106CHL1  H18C14060   2.917   0.693   5.548  1.4113  0.8429  0.1096
  106CHL1   C1214061   2.657   0.616   5.481  0.1860  0.1794 -0.2870
  106CHL1  H12A14062   2.654   0.710   5.422  1.8660  0.4216 -0.0275
  106CHL1  H12B14063   2.564   0.560   5.457 -0.2336  0.3529  0.8700
  106CHL1   C1114064   2.651   0.666   5.629  0.7384 -0.2104 -0.1822
  106CHL1  H11A14065   2.726   0.746   5.647 -1.7823  2.6824 -1.7058
  106CHL1  H11B14066   2.555   0.719   5.646  1.1118  0.0328  1.3309
  106CHL1    C914067   2.678   0.548   5.721  0.2871  0.2927 -0.3950
  106CHL1    H914068   2.600   0.470   5.711 -0.9265  1.7237 -3.4123
  106CHL1   C1014069   2.683   0.600   5.872  0.1456  0.1352 -0.3820
  106CHL1   C1914070   2.789   0.708   5.894  0.2688 -0.6527 -0.5411
  106CHL1  H19A14071   2.765   0.806   5.848  1.6020 -0.3546 -0.6431
  106CHL1  H19B14072   2.802   0.729   6.002  0.6780 -0.9479 -0.5300
  106CHL1  H19C14073   2.889   0.670   5.864  1.2102  0.6322  0.8483
  106CHL1    C114074   2.541   0.659   5.909 -0.9537 -0.3039 -0.6836
  106CHL1   H1A14075   2.526   0.765   5.879 -1.1565  0.9554  3.2285
  106CHL1   H1B14076   2.465   0.594   5.862 -1.5487 -1.9674  2.3086
  106CHL1    C214077   2.508   0.676   6.061  0.2586  0.3310  0.1050
  106CHL1   H2A14078   2.398   0.685   6.072  0.2913 -0.5523  1.4264
  106CHL1   H2B14079   2.568   0.763   6.098 -0.6580  1.6425 -1.4068
  106CHL1   C2014080   2.795   0.523   5.172 -1.0276  0.5102  0.2576
  106CHL1   H2014081   2.890   0.580   5.167 -0.6426 -0.2122 -1.2475
  106CHL1   C2114082   2.679   0.630   5.149 -0.1929 -0.2793 -0.4855
  106CHL1  H21A14083   2.583   0.586   5.185 -0.4414  0.5104 -0.1676
  106CHL1  H21B14084   2.674   0.658   5.042  0.9218  0.0257 -0.4641
  106CHL1  H21C14085   2.708   0.719   5.209  1.6497 -1.1362 -0.0360
  106CHL1   C2214086   2.801   0.422   5.050  0.2361  0.3147 -0.8026
  106CHL1  H22A14087   2.822   0.485   4.961 -1.0723  2.1237  0.1101
  106CHL1  H22B14088   2.890   0.358   5.067 -0.0494 -0.6970 -2.8117
  106CHL1   C2314089   2.682   0.329   5.023  0.0850 -0.3505 -0.4421
  106CHL1  H23A14090   2.650   0.279   5.117 -0.8706 -0.2259 -0.6931
  106CHL1  H23B14091   2.589   0.387   5.002 -0.7874 -1.4024  0.4214
  106CHL1   C2414092   2.706   0.226   4.911  0.1183  0.7040 -0.0458
  106CHL1  H24A14093   2.801   0.174   4.936 -1.1484 -2.1407 -0.7720
  106CHL1  H24B14094   2.630   0.145   4.902 -0.0363  0.7857  0.4560
  106CHL1   C2514095   2.729   0.282   4.772  0.5385 -0.3740  0.4380
  106CHL1   H2514096   2.815   0.353   4.777  1.6628 -1.7084  0.6882
  106CHL1   C2614097   2.768   0.179   4.665 -0.5175  0.1239 -0.1732
  106CHL1  H26A14098   2.688   0.102   4.657  0.0583 -1.0652  3.6594
  106CHL1  H26B14099   2.791   0.236   4.572 -0.5273 -1.8429 -1.4487
  106CHL1  H26C14100   2.864   0.136   4.698 -0.7342 -0.0922  0.1826
  106CHL1   C2714101   2.602   0.352   4.723 -0.8407  0.3836  0.4272
  106CHL1  H27A14102   2.522   0.280   4.699  1.0350 -1.8020  0.3728
  106CHL1  H27B14103   2.560   0.420   4.800 -1.9548  0.1692  0.0218
  106CHL1  H27C14104   2.635   0.416   4.638  1.6876  0.8612  1.6757
  107CHL1    C314105   5.108   5.257   6.339 -0.3688 -0.3824 -0.3122
  107CHL1    H314106   5.145   5.153   6.325  3.8108  0.9364 -0.6224
  107CHL1    O314107   5.103   5.290   6.475  0.4198 -0.0833 -0.2853
  107CHL1   H3'14108   5.060   5.376   6.468  0.0740 -0.3528 -1.8157
  107CHL1    C414109   5.206   5.361   6.277  0.3881  0.5346 -0.3868
  107CHL1   H4A14110   5.204   5.466   6.314  1.2026  1.1659 -2.0464
  107CHL1   H4B14111   5.305   5.322   6.310  1.4147  4.5885  2.0665
  107CHL1    C514112   5.198   5.369   6.126  0.4396 -0.3471 -0.4200
  107CHL1    C614113   5.305   5.370   6.051  0.5313 -0.6661 -0.3386
  107CHL1    H614114   5.401   5.353   6.102 -0.4137 -2.4212  0.9899
  107CHL1    C714115   5.315   5.398   5.906  0.2145 -0.4123 -0.3569
  107CHL1   H7A14116   5.405   5.458   5.881  0.1704 -0.9297 -1.8427
  107CHL1   H7B14117   5.329   5.313   5.836  1.1305  0.3839 -1.1819
  107CHL1    C814118   5.182   5.459   5.856 -0.5654  0.4100 -0.2349
  107CHL1    H814119   5.174   5.566   5.885  0.0051  0.2273  0.6155
  107CHL1   C1414120   5.160   5.446   5.701  0.2769 -0.6948  0.6746
  107CHL1   H1414121   5.152   5.337   5.682 -1.3915 -0.2493 -1.6482
  107CHL1   C1514122   5.270   5.486   5.606 -0.6736 -0.0467 -0.6800
  107CHL1  H15A14123   5.320   5.576   5.648 -0.4460 -0.5045  0.0350
  107CHL1  H15B14124   5.342   5.401   5.602  0.1318  0.4736  1.3660
  107CHL1   C1614125   5.213   5.531   5.476  0.0997  0.5365 -0.5750
  107CHL1  H16A14126   5.214   5.642   5.467  1.9123  0.6940  1.0193
  107CHL1  H16B14127   5.254   5.488   5.382  0.0362  0.2034 -0.4489
  107CHL1   C1714128   5.058   5.507   5.490 -0.8440  0.3151 -0.4973
  107CHL1   H1714129   5.043   5.398   5.470 -0.2284  0.1335  0.0209
  107CHL1   C1314130   5.030   5.519   5.647 -0.5275 -0.4162  0.0049
  107CHL1   C1814131   5.009   5.669   5.685  0.5072 -0.2268 -0.5654
  107CHL1  H18A14132   4.900   5.690   5.688  0.4033 -0.9034  1.3161
  107CHL1  H18B14133   5.054   5.695   5.783  0.1429 -0.8105 -0.2358
  107CHL1  H18C14134   5.057   5.734   5.608  1.8299  0.0364  0.4439
  107CHL1   C1214135   4.918   5.443   5.715 -0.6334 -0.1158  1.2967
  107CHL1  H12A14136   4.821   5.491   5.690  0.0576 -0.1549 -1.8759
  107CHL1  H12B14137   4.921   5.338   5.679 -0.2983 -0.3379  1.9450
  107CHL1   C1114138   4.926   5.455   5.863 -0.2939  0.4031  0.1390
  107CHL1  H11A14139   4.910   5.562   5.888 -1.4176  0.4454 -0.6544
  107CHL1  H11B14140   4.839   5.404   5.909 -0.2009 -0.1580 -0.2868
  107CHL1    C914141   5.060   5.394   5.922 -0.0052 -0.0652  0.7557
  107CHL1    H914142   5.065   5.289   5.886 -1.1755  0.5111 -1.2883
  107CHL1   C1014143   5.060   5.399   6.077 -0.6454 -0.2307 -0.2295
  107CHL1   C1914144   5.013   5.543   6.124 -0.2903 -0.1906  0.0664
  107CHL1  H19A14145   5.090   5.619   6.099 -0.6220 -0.5239 -2.1828
  107CHL1  H19B14146   4.912   5.567   6.083  0.0396  0.4488 -0.3847
  107CHL1  H19C14147   5.003   5.540   6.235 -0.4300 -0.3348  0.0499
  107CHL1    C114148   4.965   5.295   6.122 -0.1368  0.0121 -0.9486
  107CHL1   H1A14149   4.860   5.321   6.094 -0.9338 -1.8388  0.1527
  107CHL1   H1B14150   4.999   5.199   6.077  0.3264  0.3018 -1.2277
  107CHL1    C214151   4.967   5.274   6.281 -0.8426 -0.0942  0.7590
  107CHL1   H2A14152   4.911   5.185   6.316 -1.1778  0.3039  1.2520
  107CHL1   H2B14153   4.929   5.372   6.319 -0.4585  1.1976 -1.9035
  107CHL1   C2014154   4.969   5.586   5.393 -0.1757  1.1399 -0.0507
  107CHL1   H2014155   4.983   5.694   5.416 -1.0523  1.3436 -0.4129
  107CHL1   C2114156   4.819   5.558   5.421  0.3034  0.1104  0.1519
  107CHL1  H21A14157   4.777   5.571   5.319  2.9718  0.3474 -0.9999
  107CHL1  H21B14158   4.777   5.630   5.495  1.3068 -1.1004  1.9753
  107CHL1  H21C14159   4.801   5.454   5.456 -0.5352  0.4643  0.8025
  107CHL1   C2214160   5.003   5.571   5.240  0.1265 -1.1260 -0.2329
  107CHL1  H22A14161   5.111   5.594   5.235 -0.2228  0.4825 -1.0221
  107CHL1  H22B14162   4.992   5.465   5.206 -0.7919 -1.1643  0.1422
  107CHL1   C2314163   4.951   5.667   5.133 -0.1142 -0.2664  0.4201
  107CHL1  H23A14164   4.840   5.667   5.129 -0.0842 -1.2901 -2.1232
  107CHL1  H23B14165   4.997   5.766   5.156 -1.4585  0.3094  0.7315
  107CHL1   C2414166   4.991   5.616   4.993 -0.4731 -0.0794 -1.1870
  107CHL1  H24A14167   5.100   5.593   4.992 -0.5339 -0.6639  0.9114
  107CHL1  H24B14168   4.938   5.519   4.976 -1.3448  0.5200 -1.9653
  107CHL1   C2514169   4.962   5.714   4.880 -0.8353  0.0892  0.2394
  107CHL1   H2514170   4.875   5.777   4.907 -2.0304 -1.1272 -0.6370
  107CHL1   C2614171   5.080   5.806   4.855  0.4665 -0.0549  0.2068
  107CHL1  H26A14172   5.176   5.753   4.839  0.2756 -0.1395 -0.7257
  107CHL1  H26B14173   5.051   5.880   4.777 -0.7122 -1.1933 -0.4711
  107CHL1  H26C14174   5.107   5.869   4.942  1.0523 -0.6437  0.4557
  107CHL1   C2714175   4.931   5.632   4.752  0.0167  0.5692  0.1893
  107CHL1  H27A14176   5.038   5.603   4.740  1.1895  3.6591  1.8401
  107CHL1  H27B14177   4.881   5.534   4.766 -0.0719  0.8381  1.9948
  107CHL1  H27C14178   4.890   5.681   4.662 -1.3985  1.9544  1.5163
  108CHL1    C314179   7.273   1.322   6.633 -0.1335  0.5980 -0.1574
  108CHL1    H314180   7.197   1.402   6.620  1.0881  2.1556  1.6696
  108CHL1    O314181   7.303   1.324   6.765 -1.1109  0.2385 -0.0922
  108CHL1   H3'14182   7.383   1.272   6.775 -1.0407  0.1040 -1.2368
  108CHL1    C414183   7.225   1.183   6.597  0.1916  0.5791  0.2083
  108CHL1   H4A14184   7.309   1.112   6.607 -0.8634 -0.5388  1.3236
  108CHL1   H4B14185   7.149   1.152   6.671  1.8721 -0.5575  1.5154
  108CHL1    C514186   7.189   1.180   6.448  0.2197  0.5284  0.0582
  108CHL1    C614187   7.066   1.130   6.401 -0.2184 -1.1086  0.7507
  108CHL1    H614188   6.993   1.103   6.479 -1.3387  0.0504  0.1462
  108CHL1    C714189   7.018   1.130   6.255  0.0265  0.3617 -0.5039
  108CHL1   H7A14190   6.977   1.030   6.229  0.1071  1.0242 -3.4491
  108CHL1   H7B14191   6.933   1.201   6.252 -1.5990 -1.4363  0.2386
  108CHL1    C814192   7.134   1.153   6.161  0.0485 -0.0083 -0.1509
  108CHL1    H814193   7.191   1.057   6.158  0.5623  0.3020 -0.5806
  108CHL1   C1414194   7.083   1.183   6.017  0.0716 -0.9205  0.3092
  108CHL1   H1414195   7.020   1.274   6.029  0.5111 -0.3002 -1.7273
  108CHL1   C1514196   6.987   1.090   5.948 -0.4880  0.7828  0.9869
  108CHL1  H15A14197   7.008   0.981   5.944 -1.4248  0.6323 -1.2041
  108CHL1  H15B14198   6.892   1.116   6.000  0.4943  1.6331  2.4436
  108CHL1   C1614199   6.991   1.143   5.805 -0.2984  0.3253 -0.6410
  108CHL1  H16A14200   6.991   1.059   5.732 -2.0981 -2.7330  2.6057
  108CHL1  H16B14201   6.904   1.207   5.778 -1.4965 -0.4009  1.3418
  108CHL1   C1714202   7.120   1.228   5.793  0.2709 -0.8681  0.5768
  108CHL1   H1714203   7.087   1.334   5.790  1.8960 -0.2933  1.6105
  108CHL1   C1314204   7.203   1.212   5.919  0.2703 -0.4859 -0.1536
  108CHL1   C1814205   7.283   1.080   5.913  0.0837  0.4315 -0.2545
  108CHL1  H18A14206   7.367   1.081   5.840  0.4540  1.6755  0.1511
  108CHL1  H18B14207   7.335   1.062   6.010 -1.2578  1.9812  0.8095
  108CHL1  H18C14208   7.227   0.987   5.893 -1.2559  0.4906  2.7560
  108CHL1   C1214209   7.285   1.330   5.964 -0.9009 -0.0398 -0.2253
  108CHL1  H12A14210   7.365   1.358   5.892 -0.2490 -2.3114 -0.4389
  108CHL1  H12B14211   7.219   1.419   5.972  1.7444  1.9825  0.6144
  108CHL1   C1114212   7.333   1.314   6.106 -0.3568 -0.5564  0.2329
  108CHL1  H11A14213   7.419   1.244   6.108  0.5255  0.5212  1.0453
  108CHL1  H11B14214   7.366   1.417   6.131  1.7400 -1.3618  0.9757
  108CHL1    C914215   7.231   1.257   6.213  0.6141 -0.4213  0.1196
  108CHL1    H914216   7.171   1.348   6.234  0.0981 -0.8178  0.3983
  108CHL1   C1014217   7.299   1.227   6.348 -0.1895 -0.1020  0.2552
  108CHL1   C1914218   7.390   1.101   6.330 -0.0530 -0.4599 -0.2426
  108CHL1  H19A14219   7.431   1.074   6.430 -2.8621 -2.3506  0.4904
  108CHL1  H19B14220   7.340   1.012   6.288 -1.4801  0.8300 -1.3946
  108CHL1  H19C14221   7.478   1.133   6.270  1.0143 -1.0604  0.9563
  108CHL1    C114222   7.364   1.356   6.396  0.0971  0.3049 -0.6004
  108CHL1   H1A14223   7.457   1.370   6.337  0.4496  1.3200  0.1705
  108CHL1   H1B14224   7.299   1.443   6.376  0.9974  0.9288 -0.8841
  108CHL1    C214225   7.400   1.352   6.546  0.1475  0.1878 -0.0298
  108CHL1   H2A14226   7.436   1.452   6.578  1.2301 -0.2837  0.2699
  108CHL1   H2B14227   7.481   1.278   6.564  1.5353  1.6818  0.0668
  108CHL1   C2014228   7.198   1.215   5.657 -0.3425  0.0156  0.1196
  108CHL1   H2014229   7.298   1.258   5.677 -0.2572  0.0066 -0.2679
  108CHL1   C2114230   7.126   1.303   5.552  0.0671 -0.6984  0.1213
  108CHL1  H21A14231   7.120   1.412   5.577 -1.6368 -0.8593  0.5278
  108CHL1  H21B14232   7.029   1.255   5.528 -0.3923  1.0055 -1.7101
  108CHL1  H21C14233   7.182   1.289   5.457  1.0037 -1.0509  0.7121
  108CHL1   C2214234   7.213   1.072   5.605  0.3928 -0.4734  0.0284
  108CHL1  H22A14235   7.207   0.991   5.681  1.2984 -3.3403 -2.7370
  108CHL1  H22B14236   7.132   1.050   5.531 -0.5644  0.3257  0.8112
  108CHL1   C2314237   7.349   1.039   5.535 -0.9804 -0.4546 -0.2054
  108CHL1  H23A14238   7.359   1.100   5.442  1.1809 -1.7075 -0.8706
  108CHL1  H23B14239   7.424   1.082   5.605 -1.7091  1.3920 -0.4995
  108CHL1   C2414240   7.372   0.896   5.515 -0.1492 -0.7637  0.6184
  108CHL1  H24A14241   7.373   0.840   5.611 -0.0827  0.5223  1.3848
  108CHL1  H24B14242   7.285   0.869   5.451  0.0125  0.2243 -0.0323
  108CHL1   C2514243   7.484   0.843   5.425  0.1984  0.7928  0.2575
  108CHL1   H2514244   7.576   0.880   5.476  1.5392 -3.0341  1.0308
  108CHL1   C2614245   7.491   0.688   5.419  0.3806  0.6226  0.6160
  108CHL1  H26A14246   7.400   0.648   5.369  1.6498 -0.9061 -0.5867
  108CHL1  H26B14247   7.583   0.666   5.360 -0.1886 -1.0385  0.2903
  108CHL1  H26C14248   7.507   0.632   5.513 -0.7053 -2.3455 -0.8080
  108CHL1   C2714249   7.468   0.903   5.283 -0.7277  0.0022 -0.3475
  108CHL1  H27A14250   7.496   1.011   5.282  0.0598 -0.1943 -0.7751
  108CHL1  H27B14251   7.543   0.850   5.221  0.1327 -0.0071  0.6631
  108CHL1  H27C14252   7.369   0.879   5.238 -0.2869 -1.4378 -0.5987
  109CHL1    C314253   4.183   4.277   6.611  0.1977 -0.4043 -0.7621
  109CHL1    H314254   4.293   4.283   6.600  0.0853  1.5071 -1.2205
  109CHL1    O314255   4.153   4.266   6.749  0.1770 -0.1478  0.4426
  109CHL1   H3'14256   4.064   4.301   6.755  0.7795  1.1979  2.6087
  109CHL1    C414257   4.126   4.414   6.555 -0.2190  0.7433  0.3114
  109CHL1   H4A14258   4.017   4.414   6.576 -0.1205  1.7956  0.8628
  109CHL1   H4B14259   4.168   4.494   6.618  0.8799 -0.4836  1.2043
  109CHL1    C514260   4.152   4.420   6.405 -0.3352  0.9076 -0.4372
  109CHL1    C614261   4.229   4.512   6.344  0.0643 -0.0176 -0.2162
  109CHL1    H614262   4.272   4.594   6.404  2.9595 -0.5134 -1.4181
  109CHL1    C714263   4.243   4.519   6.191 -0.2635 -0.7207 -0.0054
  109CHL1   H7A14264   4.223   4.619   6.145 -2.3631 -0.2863  1.6856
  109CHL1   H7B14265   4.350   4.490   6.183 -0.4751 -1.5529  0.1358
  109CHL1    C814266   4.147   4.422   6.108  0.2499  0.3004 -0.3491
  109CHL1    H814267   4.050   4.475   6.100 -0.2070 -0.4117  0.3038
  109CHL1   C1414268   4.203   4.395   5.971  0.5029  0.6383 -0.2084
  109CHL1   H1414269   4.295   4.334   5.977  1.5563  2.2703  1.2633
  109CHL1   C1514270   4.250   4.514   5.883 -0.2446 -0.3576  0.2739
  109CHL1  H15A14271   4.186   4.604   5.898  2.5739  1.6257  1.2636
  109CHL1  H15B14272   4.350   4.549   5.914 -0.6211  1.3584 -0.3219
  109CHL1   C1614273   4.239   4.458   5.742 -0.0872  0.6423  0.1154
  109CHL1  H16A14274   4.172   4.529   5.688 -0.8346 -1.2058 -1.4886
  109CHL1  H16B14275   4.332   4.455   5.682  0.5537  2.1720  0.9575
  109CHL1   C1714276   4.178   4.315   5.750  0.0405 -0.2659  0.2182
  109CHL1   H1714277   4.256   4.239   5.773  0.2249 -0.0650  0.2613
  109CHL1   C1314278   4.104   4.318   5.886  0.7388  0.3653  0.2571
  109CHL1   C1814279   3.966   4.395   5.856  0.0703 -0.1439 -0.6715
  109CHL1  H18A14280   3.973   4.500   5.822 -2.0651  1.2840  2.7483
  109CHL1  H18B14281   3.903   4.340   5.783  0.9124 -0.6528 -1.0396
  109CHL1  H18C14282   3.919   4.406   5.956  1.0436  2.3616 -0.4246
  109CHL1   C1214283   4.083   4.178   5.948  0.8354 -0.1010 -0.0771
  109CHL1  H12A14284   4.004   4.109   5.910 -0.0526  0.5297  0.5926
  109CHL1  H12B14285   4.174   4.115   5.940  0.3226 -0.8169 -0.3791
  109CHL1   C1114286   4.037   4.191   6.099 -0.0922 -0.3306  0.9115
  109CHL1  H11A14287   3.935   4.233   6.114 -0.5498 -1.8947  2.5565
  109CHL1  H11B14288   4.039   4.089   6.144  1.6489  0.5294  2.9476
  109CHL1    C914289   4.129   4.288   6.182  0.1823 -0.0627  0.1965
  109CHL1    H914290   4.228   4.238   6.177 -0.2973 -1.2712  1.8276
  109CHL1   C1014291   4.091   4.297   6.332  0.0693  0.6169 -0.4297
  109CHL1   C1914292   3.935   4.300   6.340 -0.6150  0.0806 -0.5978
  109CHL1  H19A14293   3.890   4.201   6.316 -1.0695  0.3022 -0.6748
  109CHL1  H19B14294   3.901   4.330   6.441 -0.9772  0.0096 -0.6952
  109CHL1  H19C14295   3.892   4.377   6.273 -1.1075 -0.1545 -0.5606
  109CHL1    C114296   4.147   4.170   6.391 -0.4163 -0.4876  0.2617
  109CHL1   H1A14297   4.102   4.080   6.345  2.8424 -2.0795 -0.0252
  109CHL1   H1B14298   4.257   4.163   6.387 -0.1756  1.6725  1.2389
  109CHL1    C214299   4.114   4.161   6.546 -0.2141 -0.0999 -0.0696
  109CHL1   H2A14300   4.165   4.072   6.589  0.2029  0.8081  1.3828
  109CHL1   H2B14301   4.005   4.151   6.566 -1.1938  2.9099 -3.0929
  109CHL1   C2014302   4.115   4.268   5.620  0.4109  0.4083  0.5875
  109CHL1   H2014303   4.021   4.323   5.599 -1.0264 -1.7565  0.9624
  109CHL1   C2114304   4.070   4.114   5.611  0.6286 -0.2148  0.4947
  109CHL1  H21A14305   3.977   4.088   5.665  0.6656  1.8262  1.6252
  109CHL1  H21B14306   4.149   4.053   5.660  1.5299  0.7790  0.3009
  109CHL1  H21C14307   4.061   4.085   5.504  1.9976 -0.0053  0.2990
  109CHL1   C2214308   4.208   4.298   5.500  0.5607 -0.6425 -0.1011
  109CHL1  H22A14309   4.144   4.273   5.413  1.0329 -1.5641 -0.2004
  109CHL1  H22B14310   4.220   4.407   5.484 -1.3890 -0.4211 -0.3165
  109CHL1   C2314311   4.343   4.228   5.485 -0.2461  0.0143  0.6134
  109CHL1  H23A14312   4.409   4.285   5.553 -0.2847 -0.2503  0.8744
  109CHL1  H23B14313   4.346   4.119   5.507  1.8451 -0.4283 -1.4763
  109CHL1   C2414314   4.398   4.251   5.339  0.3757  0.7157 -0.2356
  109CHL1  H24A14315   4.314   4.224   5.271 -0.1071 -0.3215  0.7296
  109CHL1  H24B14316   4.419   4.359   5.327  2.4196  0.3418 -0.3161
  109CHL1   C2514317   4.516   4.172   5.290  0.0891  0.3451 -1.0510
  109CHL1   H2514318   4.600   4.191   5.360 -1.2639  0.5462  0.5852
  109CHL1   C2614319   4.491   4.022   5.290  0.0991 -0.3790 -0.1197
  109CHL1  H26A14320   4.405   3.994   5.225 -0.3581 -1.8577  1.0814
  109CHL1  H26B14321   4.583   3.977   5.248  1.6581  2.2561  0.2304
  109CHL1  H26C14322   4.478   3.973   5.389  3.1444  1.4704  1.3583
  109CHL1   C2714323   4.563   4.215   5.151  0.1758  0.4269 -0.2112
  109CHL1  H27A14324   4.668   4.184   5.131 -0.7462 -2.6404 -0.8214
  109CHL1  H27B14325   4.493   4.187   5.069 -0.6804  0.1105  0.6098
  109CHL1  H27C14326   4.560   4.326   5.142  0.4172  0.3890 -0.8135
  110CHL1    C314327   1.922   4.646   6.383 -0.2093 -0.2696  0.5606
  110CHL1    H314328   1.854   4.733   6.398 -1.5631 -1.2650  0.3863
  110CHL1    O314329   1.969   4.618   6.513  0.3462  0.2074 -0.1146
  110CHL1   H3'14330   2.043   4.559   6.499 -0.0117 -0.5338  0.9818
  110CHL1    C414331   1.852   4.516   6.327  0.4680 -0.3078  0.1778
  110CHL1   H4A14332   1.927   4.435   6.334  1.9239  0.6894 -2.4133
  110CHL1   H4B14333   1.764   4.488   6.389  0.6146  1.8747  1.4822
  110CHL1    C514334   1.816   4.534   6.176  0.7287  0.4131  0.3938
  110CHL1    C614335   1.691   4.516   6.141 -0.2567 -0.2349  0.4430
  110CHL1    H614336   1.625   4.472   6.218  1.0623 -1.5517  0.8683
  110CHL1    C714337   1.631   4.528   6.003 -0.2093  0.3200 -0.3171
  110CHL1   H7A14338   1.565   4.444   5.973  0.5686  0.2707 -1.9260
  110CHL1   H7B14339   1.570   4.622   6.003  0.7501  0.9950  1.4447
  110CHL1    C814340   1.744   4.541   5.899 -0.2195 -0.3459 -0.3478
  110CHL1    H814341   1.791   4.441   5.883  1.4739  0.1000  1.4812
  110CHL1   C1414342   1.695   4.578   5.764  0.2736 -0.5836  0.0876
  110CHL1   H1414343   1.655   4.680   5.783 -0.2059 -0.7523 -0.0073
  110CHL1   C1514344   1.579   4.495   5.711 -0.3319  0.3336 -0.2859
  110CHL1  H15A14345   1.596   4.387   5.728 -0.9729  0.0994 -1.0908
  110CHL1  H15B14346   1.478   4.514   5.755 -1.6756  0.9810 -3.3716
  110CHL1   C1614347   1.583   4.526   5.556  0.5140  0.8612 -0.1218
  110CHL1  H16A14348   1.614   4.438   5.496  1.3996  2.0523 -1.4834
  110CHL1  H16B14349   1.481   4.548   5.520 -0.5127 -2.3083  0.5315
  110CHL1   C1714350   1.704   4.627   5.536  0.0117 -0.2468  0.3911
  110CHL1   H1714351   1.656   4.724   5.561 -1.9882 -0.9015 -0.7487
  110CHL1   C1314352   1.802   4.599   5.648  0.6212  0.8259  0.3361
  110CHL1   C1814353   1.879   4.463   5.616  0.2428 -0.3868 -0.4717
  110CHL1  H18A14354   1.805   4.382   5.596  0.9758 -0.9286 -1.0471
  110CHL1  H18B14355   1.956   4.470   5.536 -0.6217  0.7441 -1.2370
  110CHL1  H18C14356   1.930   4.436   5.710  0.6833  0.5369 -0.4419
  110CHL1   C1214357   1.885   4.714   5.699 -0.2973 -0.0772 -0.4541
  110CHL1  H12A14358   1.967   4.721   5.624 -0.0762  2.4971 -0.0494
  110CHL1  H12B14359   1.827   4.809   5.703 -0.1261 -0.0247  1.4742
  110CHL1   C1114360   1.957   4.672   5.826 -0.3989 -0.4222  0.2065
  110CHL1  H11A14361   2.025   4.586   5.808  0.0095 -0.0975  0.1929
  110CHL1  H11B14362   2.008   4.751   5.885 -1.2895 -3.0345  5.0484
  110CHL1    C914363   1.860   4.625   5.943 -0.1159 -1.3193 -0.1421
  110CHL1    H914364   1.806   4.720   5.961 -0.7322 -1.4169 -1.4195
  110CHL1   C1014365   1.920   4.585   6.079  1.4024 -0.2564 -0.2490
  110CHL1   C1914366   2.024   4.474   6.045 -0.0342  0.0114  0.1613
  110CHL1  H19A14367   2.114   4.511   5.992  1.9148 -1.1091  2.4759
  110CHL1  H19B14368   2.060   4.427   6.140  0.9269  2.6029  1.1558
  110CHL1  H19C14369   1.975   4.397   5.982 -0.4397  0.9121 -0.6261
  110CHL1    C114370   1.997   4.710   6.147 -0.1689 -0.2082 -0.0956
  110CHL1   H1A14371   2.093   4.731   6.095 -0.5227 -1.4552 -1.3340
  110CHL1   H1B14372   1.933   4.800   6.135 -1.0678 -1.0036 -1.5962
  110CHL1    C214373   2.037   4.680   6.291 -0.1331 -0.0986 -0.2475
  110CHL1   H2A14374   2.085   4.775   6.325  2.1362 -0.8205 -1.2250
  110CHL1   H2B14375   2.119   4.607   6.307  0.1938  0.3770  0.3481
  110CHL1   C2014376   1.744   4.634   5.390 -0.0304  0.6117  0.5268
  110CHL1   H2014377   1.773   4.534   5.349  2.0098  1.8756 -1.4076
  110CHL1   C2114378   1.871   4.711   5.367 -0.5096 -0.4354  0.0075
  110CHL1  H21A14379   1.906   4.709   5.262  0.3728 -0.4209  0.2947
  110CHL1  H21B14380   1.959   4.662   5.413  0.2078  1.1175  0.3656
  110CHL1  H21C14381   1.862   4.813   5.411 -0.3948 -0.6158  0.4508
  110CHL1   C2214382   1.622   4.681   5.306 -0.1592  0.2194 -0.3931
  110CHL1  H22A14383   1.543   4.605   5.315  1.9780 -1.8388  3.3573
  110CHL1  H22B14384   1.571   4.770   5.349  1.2016  1.2927 -0.8999
  110CHL1   C2314385   1.649   4.695   5.159 -0.8596  0.1549  0.1256
  110CHL1  H23A14386   1.701   4.791   5.139 -0.2948 -0.3224 -0.7643
  110CHL1  H23B14387   1.730   4.621   5.147 -1.0398 -0.0464  0.1467
  110CHL1   C2414388   1.534   4.680   5.063 -0.9482 -0.2119 -0.0805
  110CHL1  H24A14389   1.473   4.589   5.082 -0.8817 -0.4307 -0.8798
  110CHL1  H24B14390   1.466   4.765   5.085  0.9332  1.7953 -1.5486
  110CHL1   C2514391   1.559   4.690   4.910  0.6901  0.0409 -0.4374
  110CHL1   H2514392   1.596   4.792   4.886 -1.6992  1.0728  0.0468
  110CHL1   C2614393   1.661   4.579   4.872  0.3014 -0.6001  0.1386
  110CHL1  H26A14394   1.730   4.549   4.953  1.7099  1.1438 -0.3431
  110CHL1  H26B14395   1.611   4.481   4.859  0.0811 -0.5345  0.4792
  110CHL1  H26C14396   1.724   4.601   4.783  0.4978  1.3613  0.7135
  110CHL1   C2714397   1.429   4.665   4.834  0.2773 -0.1268  0.4359
  110CHL1  H27A14398   1.443   4.661   4.724 -0.0521  1.5043  0.3100
  110CHL1  H27B14399   1.385   4.566   4.859 -0.2962  0.5075  2.0884
  110CHL1  H27C14400   1.353   4.744   4.850  1.5942  1.4378 -0.6620
  111CHL1    C314401   4.117   6.070   6.587 -0.5219  0.1277  1.2220
  111CHL1    H314402   4.035   6.143   6.573  0.9690  1.4980 -0.9085
  111CHL1    O314403   4.129   6.042   6.727  0.4671  0.7881  0.0554
  111CHL1   H3'14404   4.191   5.970   6.724  0.4356  0.7900 -1.2514
  111CHL1    C414405   4.077   5.938   6.522  1.2622  0.5775  0.7654
  111CHL1   H4A14406   4.152   5.862   6.555 -0.0241 -0.8387  0.5200
  111CHL1   H4B14407   3.984   5.898   6.566  0.6386  1.2322  0.0636
  111CHL1    C514408   4.071   5.950   6.373  1.3111 -0.5787  1.3670
  111CHL1    C614409   3.960   5.922   6.299 -0.5303  0.1345  0.3947
  111CHL1    H614410   3.875   5.882   6.357 -0.5195 -0.1463  0.2199
  111CHL1    C714411   3.944   5.937   6.150 -0.0684 -1.1537  0.3643
  111CHL1   H7A14412   3.907   5.846   6.099  2.4592 -1.2773 -1.4646
  111CHL1   H7B14413   3.865   6.013   6.134  0.6191 -0.3721  0.5484
  111CHL1    C814414   4.074   5.969   6.081  0.0072 -0.2262  0.9840
  111CHL1    H814415   4.128   5.874   6.061  0.6993  0.8396 -3.1047
  111CHL1   C1414416   4.035   6.018   5.941 -0.3546 -0.7143  0.2222
  111CHL1   H1414417   3.991   6.117   5.967  2.0665  1.3790 -2.8685
  111CHL1   C1514418   3.931   5.943   5.857 -0.0987 -0.2658  0.8920
  111CHL1  H15A14419   3.953   5.836   5.875  1.4251 -0.2238 -0.4169
  111CHL1  H15B14420   3.824   5.956   5.882 -1.0694 -1.3473 -2.2346
  111CHL1   C1614421   3.969   5.991   5.711  0.3703 -0.6274  0.6690
  111CHL1  H16A14422   3.989   5.892   5.666  4.0971  0.2715  0.0109
  111CHL1  H16B14423   3.887   6.036   5.651  0.2845 -0.6732  0.7510
  111CHL1   C1714424   4.086   6.086   5.719 -0.5012 -0.3307  0.1429
  111CHL1   H1714425   4.044   6.187   5.743 -0.6134 -0.0452 -1.2010
  111CHL1   C1314426   4.156   6.050   5.853 -0.2506 -0.3495  0.1744
  111CHL1   C1814427   4.238   5.916   5.825  0.1752  0.0452  0.0516
  111CHL1  H18A14428   4.334   5.950   5.780  1.3869 -0.9265  1.7753
  111CHL1  H18B14429   4.259   5.863   5.920  1.5348  1.0732  0.3576
  111CHL1  H18C14430   4.176   5.852   5.759  0.2788  0.5344 -0.5270
  111CHL1   C1214431   4.235   6.161   5.929  0.2974  0.2831 -0.2693
  111CHL1  H12A14432   4.325   6.195   5.875  0.3515 -0.5978 -0.7490
  111CHL1  H12B14433   4.159   6.242   5.923  0.3011  0.3078 -0.0063
  111CHL1   C1114434   4.280   6.114   6.067  0.2431  1.0405 -0.0907
  111CHL1  H11A14435   4.362   6.039   6.060 -0.9762 -0.4670  1.0605
  111CHL1  H11B14436   4.315   6.209   6.113 -2.0099  2.2596 -0.7443
  111CHL1    C914437   4.159   6.073   6.157  0.3311  0.4449 -0.0593
  111CHL1    H914438   4.091   6.160   6.165 -1.1312 -0.7210  0.6608
  111CHL1   C1014439   4.187   6.028   6.302  0.0358  0.2398 -0.2271
  111CHL1   C1914440   4.302   5.928   6.293 -0.2993 -0.1921  0.7405
  111CHL1  H19A14441   4.393   5.979   6.254 -0.3725  1.0096  2.0920
  111CHL1  H19B14442   4.319   5.882   6.393 -2.5534  2.2285  2.3509
  111CHL1  H19C14443   4.271   5.843   6.227 -0.8654 -0.8087  1.7672
  111CHL1    C114444   4.223   6.163   6.377 -0.1189  0.1695  0.5590
  111CHL1   H1A14445   4.321   6.204   6.347 -0.7122  0.9715 -0.3577
  111CHL1   H1B14446   4.152   6.246   6.354  0.4073  0.0532 -1.6862
  111CHL1    C214447   4.239   6.136   6.526  0.2076 -0.2469  0.1098
  111CHL1   H2A14448   4.273   6.231   6.572 -0.2684  0.3491 -0.7408
  111CHL1   H2B14449   4.322   6.067   6.554  1.6684  0.9873 -0.9865
  111CHL1   C2014450   4.165   6.079   5.595 -0.2377 -0.6465 -0.4134
  111CHL1   H2014451   4.206   5.979   5.571  0.0790 -0.3799 -1.0282
  111CHL1   C2114452   4.278   6.184   5.610  0.0205  0.0341 -0.6654
  111CHL1  H21A14453   4.238   6.276   5.659 -0.5770 -0.5878  0.0531
  111CHL1  H21B14454   4.328   6.205   5.513  0.7184 -0.4698 -0.4225
  111CHL1  H21C14455   4.360   6.149   5.676  0.6298 -0.1405 -1.5018
  111CHL1   C2214456   4.092   6.127   5.473  0.6300 -0.0461 -0.4849
  111CHL1  H22A14457   3.991   6.081   5.472  0.3256  0.6081 -0.9313
  111CHL1  H22B14458   4.089   6.238   5.482  0.2727 -0.0090 -0.9806
  111CHL1   C2314459   4.155   6.099   5.333 -0.0231  0.1172 -0.6598
  111CHL1  H23A14460   4.258   6.140   5.329  0.4010 -0.8125  0.1872
  111CHL1  H23B14461   4.162   5.988   5.330 -0.0246  0.1390 -2.0163
  111CHL1   C2414462   4.058   6.135   5.218 -0.0080  0.2927 -0.6150
  111CHL1  H24A14463   4.018   6.041   5.175 -1.6346  0.5035  0.3668
  111CHL1  H24B14464   3.967   6.183   5.261 -0.3704 -1.3349  0.5035
  111CHL1   C2514465   4.117   6.207   5.091  0.3878  0.2477  0.1711
  111CHL1   H2514466   4.216   6.161   5.067  1.3688  1.6845  1.2511
  111CHL1   C2614467   4.023   6.194   4.974 -0.3229 -0.3297 -0.2806
  111CHL1  H26A14468   4.061   6.256   4.889 -2.5933  1.5355 -0.0525
  111CHL1  H26B14469   4.016   6.087   4.947  0.5503 -0.4956  0.1314
  111CHL1  H26C14470   3.926   6.240   5.005  0.6336  0.7923  1.1688
  111CHL1   C2714471   4.144   6.357   5.118  0.6146  0.3927  0.0721
  111CHL1  H27A14472   4.051   6.403   5.159 -0.6025 -0.9250 -1.1005
  111CHL1  H27B14473   4.229   6.380   5.186  2.6645  0.6318 -2.4432
  111CHL1  H27C14474   4.168   6.414   5.026  0.0167  1.9558  0.8413
  112CHL1    C314475   4.753   6.829   6.572 -0.3759  1.1185  0.1435
  112CHL1    H314476   4.834   6.906   6.567  1.0103 -0.2215  0.9201
  112CHL1    O314477   4.741   6.782   6.707 -0.6700  0.1352  0.1259
  112CHL1   H3'14478   4.685   6.703   6.709  0.6754 -0.9689 -2.1353
  112CHL1    C414479   4.614   6.893   6.536 -0.1212  0.1366  0.3697
  112CHL1   H4A14480   4.540   6.810   6.547  0.6181 -0.4385  1.1726
  112CHL1   H4B14481   4.573   6.969   6.605 -4.8533 -0.1062 -1.7599
  112CHL1    C514482   4.617   6.946   6.393 -0.1805  0.4567 -0.5524
  112CHL1    C614483   4.589   7.075   6.374  0.0020  0.9886  0.6853
  112CHL1    H614484   4.557   7.144   6.453 -2.4233  0.5150  0.1962
  112CHL1    C714485   4.583   7.145   6.241 -0.2772 -0.2969 -0.0630
  112CHL1   H7A14486   4.488   7.201   6.228  0.5556  1.4260  0.8473
  112CHL1   H7B14487   4.672   7.211   6.242  1.5566 -2.5215  3.3672
  112CHL1    C814488   4.599   7.046   6.118  0.5375  0.0765  0.0022
  112CHL1    H814489   4.498   7.004   6.101  1.4205 -2.5308  0.7466
  112CHL1   C1414490   4.640   7.118   5.994  0.2698  0.1030 -0.2452
  112CHL1   H1414491   4.742   7.158   6.012  0.1695  0.1270  0.2950
  112CHL1   C1514492   4.554   7.243   5.958 -0.2637 -0.2070  0.5843
  112CHL1  H15A14493   4.445   7.221   5.966 -0.1557 -0.8713  0.2327
  112CHL1  H15B14494   4.573   7.341   6.008  1.0863  1.0279 -2.1246
  112CHL1   C1614495   4.591   7.261   5.801  0.0738 -0.3579  0.2529
  112CHL1  H16A14496   4.498   7.277   5.743  1.7224  0.6813 -2.2774
  112CHL1  H16B14497   4.654   7.352   5.788 -1.6924  0.6422 -1.8431
  112CHL1   C1714498   4.669   7.134   5.754 -0.1735 -0.1889 -0.0116
  112CHL1   H1714499   4.778   7.155   5.756  0.4980 -3.1406  1.0767
  112CHL1   C1314500   4.651   7.031   5.872  0.0897 -1.2211 -0.4504
  112CHL1   C1814501   4.514   6.964   5.854 -0.2053 -0.6363  0.5710
  112CHL1  H18A14502   4.433   7.040   5.846  0.7570  0.2664 -0.9410
  112CHL1  H18B14503   4.521   6.907   5.758  2.4044  0.3276  0.1099
  112CHL1  H18C14504   4.493   6.876   5.919  0.1977 -0.2760  1.1945
  112CHL1   C1214505   4.772   6.931   5.896  0.1319 -0.0039 -0.6137
  112CHL1  H12A14506   4.769   6.861   5.809 -0.5731  2.1963 -2.4444
  112CHL1  H12B14507   4.872   6.979   5.902 -1.0533  2.7314 -1.3138
  112CHL1   C1114508   4.749   6.847   6.022 -0.3649  0.3424 -0.4828
  112CHL1  H11A14509   4.675   6.772   5.986 -0.0888  0.9504 -2.4253
  112CHL1  H11B14510   4.838   6.788   6.052 -0.6999 -0.4448 -0.9805
  112CHL1    C914511   4.707   6.933   6.146  0.4381 -0.5314  0.3125
  112CHL1    H914512   4.802   6.988   6.164  1.3515 -2.4452  1.7899
  112CHL1   C1014513   4.666   6.851   6.276 -0.1852 -0.0538  0.1716
  112CHL1   C1914514   4.549   6.756   6.247  0.3051 -0.0737 -0.4310
  112CHL1  H19A14515   4.577   6.675   6.175 -1.1368  2.1978 -3.8167
  112CHL1  H19B14516   4.513   6.702   6.337 -2.4914  1.2632 -0.6571
  112CHL1  H19C14517   4.463   6.806   6.197  0.3730 -0.9763 -1.4849
  112CHL1    C114518   4.779   6.765   6.326 -0.1387  0.6108  0.5008
  112CHL1   H1A14519   4.787   6.676   6.260  0.9329  0.6415  0.5725
  112CHL1   H1B14520   4.873   6.823   6.309 -0.2949  0.6017 -0.4598
  112CHL1    C214521   4.770   6.715   6.475 -0.4475  0.3604 -0.2219
  112CHL1   H2A14522   4.863   6.661   6.504  0.1304  0.8944 -1.0447
  112CHL1   H2B14523   4.692   6.636   6.482  1.9208 -2.1323 -0.3752
  112CHL1   C2014524   4.641   7.094   5.611  0.0087  0.7910 -0.0198
  112CHL1   H2014525   4.533   7.071   5.602 -0.2154  1.8279 -0.1280
  112CHL1   C2114526   4.726   6.961   5.569  1.2546 -0.1117 -0.1187
  112CHL1  H21A14527   4.685   6.868   5.615  0.2195 -0.1852 -1.1373
  112CHL1  H21B14528   4.835   6.958   5.592  1.1038 -1.3507  0.5540
  112CHL1  H21C14529   4.732   6.944   5.459 -0.3073  0.5891 -0.3310
  112CHL1   C2214530   4.669   7.204   5.503  0.4500  0.1224 -0.2101
  112CHL1  H22A14531   4.601   7.288   5.527 -1.1419 -1.1442 -0.0865
  112CHL1  H22B14532   4.773   7.243   5.510  0.8029 -0.6493 -0.9031
  112CHL1   C2314533   4.638   7.172   5.354 -0.1186  0.3093 -1.0775
  112CHL1  H23A14534   4.717   7.101   5.321  0.2141 -0.2330  0.7536
  112CHL1  H23B14535   4.538   7.125   5.335  0.3253 -1.7968  1.2573
  112CHL1   C2414536   4.648   7.297   5.266 -0.1231  0.3416  0.0685
  112CHL1  H24A14537   4.561   7.364   5.283 -0.5590  0.0425 -0.9034
  112CHL1  H24B14538   4.740   7.356   5.286 -0.2938  0.7468 -0.3477
  112CHL1   C2514539   4.662   7.271   5.121 -0.0551  0.3480 -0.3473
  112CHL1   H2514540   4.750   7.212   5.091  0.2440  1.1921 -1.1697
  112CHL1   C2614541   4.534   7.205   5.065  0.0984 -0.2794  0.6160
  112CHL1  H26A14542   4.538   7.095   5.083 -2.8338 -0.6242 -0.3254
  112CHL1  H26B14543   4.444   7.241   5.118  0.3965  0.5335  0.5844
  112CHL1  H26C14544   4.518   7.227   4.957  0.2725  1.0415  0.8479
  112CHL1   C2714545   4.679   7.401   5.049 -1.0154  0.0789  0.0523
  112CHL1  H27A14546   4.581   7.452   5.037 -2.0776 -2.2792 -2.7139
  112CHL1  H27B14547   4.754   7.474   5.084 -1.3737  0.3499  0.2555
  112CHL1  H27C14548   4.714   7.370   4.948 -1.5386 -1.6036  0.3487
  113CHL1    C314549   1.896   4.156   6.541  0.5917  0.0504  0.3231
  113CHL1    H314550   1.886   4.262   6.509  2.8767  0.4430  0.7183
  113CHL1    O314551   1.919   4.165   6.682  0.1401  0.2549 -0.1173
  113CHL1   H3'14552   2.014   4.176   6.693  0.2710 -0.5086 -0.3876
  113CHL1    C414553   1.774   4.063   6.514 -0.6855  0.0325  0.7163
  113CHL1   H4A14554   1.806   3.967   6.559 -0.9416  0.3765  1.6539
  113CHL1   H4B14555   1.697   4.104   6.583  0.0844  1.4202  0.7863
  113CHL1    C514556   1.747   4.056   6.370 -0.0298  0.0899  0.1683
  113CHL1    C614557   1.634   4.108   6.315 -0.4723 -0.2317 -0.7127
  113CHL1    H614558   1.558   4.154   6.380  2.7110  4.0034  0.4915
  113CHL1    C714559   1.602   4.110   6.170  0.5638 -0.1284 -0.4214
  113CHL1   H7A14560   1.499   4.076   6.147  0.6094 -0.6022  0.0485
  113CHL1   H7B14561   1.612   4.217   6.144  1.0875  0.2099  1.0748
  113CHL1    C814562   1.697   4.030   6.084  0.6658 -0.2788 -0.0724
  113CHL1    H814563   1.673   3.922   6.095 -0.7344  0.0399  0.1936
  113CHL1   C1414564   1.677   4.076   5.940  0.2515 -0.0300 -0.7806
  113CHL1   H1414565   1.700   4.185   5.936  0.1483 -0.0449 -2.2649
  113CHL1   C1514566   1.538   4.062   5.883  0.3022 -0.1847 -0.2493
  113CHL1  H15A14567   1.500   3.959   5.903 -1.5026  0.5786  0.4859
  113CHL1  H15B14568   1.464   4.137   5.919 -1.6674 -1.3994 -1.5232
  113CHL1   C1614569   1.558   4.081   5.733 -0.1480  0.2649 -0.0013
  113CHL1  H16A14570   1.512   3.992   5.685  0.6571 -0.9513  1.3898
  113CHL1  H16B14571   1.513   4.179   5.706 -1.0259  0.2611  1.3538
  113CHL1   C1714572   1.715   4.075   5.707  0.5661 -0.5585 -0.0299
  113CHL1   H1714573   1.736   4.184   5.699  0.3133 -0.4355  0.9106
  113CHL1   C1314574   1.773   4.021   5.840 -0.8058  0.4943  0.7142
  113CHL1   C1814575   1.761   3.865   5.836 -0.4106 -0.0656 -0.0077
  113CHL1  H18A14576   1.846   3.815   5.784 -0.7961 -1.2456  0.4584
  113CHL1  H18B14577   1.745   3.820   5.936 -1.0099  0.3022  0.0648
  113CHL1  H18C14578   1.671   3.825   5.785  0.8738 -2.1715 -0.7921
  113CHL1   C1214579   1.916   4.065   5.891  0.0166 -0.6322 -0.0317
  113CHL1  H12A14580   2.004   4.017   5.842  1.2021 -0.3001  1.6802
  113CHL1  H12B14581   1.928   4.175   5.881  1.5196 -0.8431 -0.8117
  113CHL1   C1114582   1.943   4.021   6.032  0.1749 -0.2946 -0.3221
  113CHL1  H11A14583   1.957   3.911   6.027  3.2122 -0.0924  1.3712
  113CHL1  H11B14584   2.047   4.044   6.064 -0.0303 -1.3114  1.1915
  113CHL1    C914585   1.836   4.067   6.135  0.1443 -0.8271 -0.5448
  113CHL1    H914586   1.845   4.177   6.129 -1.0381 -0.6726  0.1436
  113CHL1   C1014587   1.869   4.022   6.276  0.3438  1.0378 -0.3372
  113CHL1   C1914588   1.879   3.871   6.283 -0.3918  0.2068  0.3942
  113CHL1  H19A14589   1.873   3.833   6.387 -0.6999  1.5578  0.8977
  113CHL1  H19B14590   1.795   3.820   6.232 -1.8175  1.1328  1.6966
  113CHL1  H19C14591   1.979   3.835   6.253 -0.1581  0.6948  0.5700
  113CHL1    C114592   1.997   4.096   6.330 -0.1925  0.6084 -0.1711
  113CHL1   H1A14593   2.079   4.032   6.291 -2.8803 -1.2279 -3.4010
  113CHL1   H1B14594   2.001   4.199   6.289  3.2339  0.6020 -0.0787
  113CHL1    C214595   2.026   4.103   6.479  0.0530  0.4655 -0.0713
  113CHL1   H2A14596   2.114   4.167   6.501  2.0854 -1.6345 -1.6691
  113CHL1   H2B14597   2.036   4.001   6.522 -1.0432  0.5340  0.3904
  113CHL1   C2014598   1.759   4.022   5.572 -0.2498  0.1690  0.8174
  113CHL1   H2014599   1.743   3.912   5.568  2.2242 -0.2081 -0.8501
  113CHL1   C2114600   1.918   4.031   5.539 -0.2581  0.6227  0.0813
  113CHL1  H21A14601   1.945   4.138   5.535 -0.9432  0.8521  1.1373
  113CHL1  H21B14602   1.942   3.981   5.443 -1.3381  0.2329  0.0030
  113CHL1  H21C14603   1.971   3.984   5.625 -0.7146 -1.4289 -0.6838
  113CHL1   C2214604   1.674   4.089   5.464 -0.2774 -0.4204  0.5252
  113CHL1  H22A14605   1.586   4.022   5.455 -1.6434  1.4124 -0.3235
  113CHL1  H22B14606   1.646   4.192   5.493  2.4829  0.8903 -0.9726
  113CHL1   C2314607   1.720   4.092   5.319  0.3075 -0.4640 -0.4187
  113CHL1  H23A14608   1.815   4.149   5.315  0.3672 -0.3832  1.2479
  113CHL1  H23B14609   1.755   3.990   5.289  0.4556 -0.0788 -1.6093
  113CHL1   C2414610   1.604   4.133   5.225 -0.3766 -0.5022  0.1599
  113CHL1  H24A14611   1.512   4.073   5.246 -0.1216 -0.6522  0.8857
  113CHL1  H24B14612   1.578   4.236   5.257 -0.7393 -0.4120 -0.4047
  113CHL1   C2514613   1.628   4.126   5.075 -0.2781  0.2258 -1.2592
  113CHL1   H2514614   1.644   4.020   5.044  2.4688  0.2452 -0.2417
  113CHL1   C2614615   1.512   4.181   4.983  0.5587  0.0555 -0.5689
  113CHL1  H26A14616   1.475   4.278   5.022  1.0787 -0.6696  1.9043
  113CHL1  H26B14617   1.547   4.188   4.878 -1.9079 -1.6010 -1.6107
  113CHL1  H26C14618   1.425   4.112   4.990 -0.2538  0.6764 -3.0805
  113CHL1   C2714619   1.753   4.204   5.030 -0.3437  0.0542  0.0375
  113CHL1  H27A14620   1.731   4.311   5.051  0.2770  0.1170  0.4076
  113CHL1  H27B14621   1.848   4.173   5.079 -1.0258 -0.2674  1.1959
  113CHL1  H27C14622   1.769   4.197   4.920  0.4646 -1.7356  0.2358
  114CHL1    C314623   6.434   6.053   6.394 -0.7009 -0.5163  0.1215
  114CHL1    H314624   6.508   5.995   6.335  1.2701  0.2543  1.7027
  114CHL1    O314625   6.453   6.027   6.532 -0.2309  0.0036  0.1433
  114CHL1   H3'14626   6.436   5.934   6.546 -3.4309  0.5790  0.7803
  114CHL1    C414627   6.451   6.204   6.355 -0.3308 -0.5436 -0.0346
  114CHL1   H4A14628   6.379   6.260   6.419  0.2129 -1.2825  1.2493
  114CHL1   H4B14629   6.547   6.248   6.389  0.0569 -0.5213 -1.1054
  114CHL1    C514630   6.407   6.231   6.213  0.2874  0.0088 -0.8702
  114CHL1    C614631   6.504   6.275   6.132 -0.7274 -0.8002 -0.1948
  114CHL1    H614632   6.605   6.299   6.168 -1.1524  1.7052 -0.5064
  114CHL1    C714633   6.471   6.321   5.997  0.0433 -1.0044  0.2834
  114CHL1   H7A14634   6.507   6.426   5.983  0.2028 -1.2124 -1.0412
  114CHL1   H7B14635   6.531   6.253   5.933  0.3748  0.4721 -1.0589
  114CHL1    C814636   6.325   6.320   5.956  0.8642 -0.1874 -0.5853
  114CHL1    H814637   6.289   6.414   6.002  2.1531  0.8051 -1.5527
  114CHL1   C1414638   6.310   6.328   5.812  0.3311  0.0330  0.3479
  114CHL1   H1414639   6.340   6.228   5.773 -0.8746 -0.5115  0.7389
  114CHL1   C1514640   6.374   6.439   5.733 -0.2218  0.6187  0.1587
  114CHL1  H15A14641   6.357   6.542   5.773 -0.5954  0.2773  0.8962
  114CHL1  H15B14642   6.483   6.420   5.726 -0.4860 -0.8764 -0.1732
  114CHL1   C1614643   6.312   6.430   5.594 -0.0346  0.2657 -0.0184
  114CHL1  H16A14644   6.307   6.526   5.539 -1.7715 -0.4620 -1.2285
  114CHL1  H16B14645   6.373   6.360   5.533  1.4601 -0.0869  1.7878
  114CHL1   C1714646   6.173   6.362   5.620 -0.6525 -0.4856  0.3893
  114CHL1   H1714647   6.197   6.260   5.582 -0.1729 -0.6866  1.2163
  114CHL1   C1314648   6.162   6.340   5.774  0.6209  0.4348  0.0543
  114CHL1   C1814649   6.092   6.456   5.844 -0.6582  0.1624 -0.1782
  114CHL1  H18A14650   5.992   6.461   5.796 -0.9168 -0.7621  0.2369
  114CHL1  H18B14651   6.080   6.456   5.955  2.6429  0.6120  0.2638
  114CHL1  H18C14652   6.138   6.552   5.814 -1.2668  0.0795 -1.4247
  114CHL1   C1214653   6.096   6.199   5.816 -0.1824  0.1864 -0.0456
  114CHL1  H12A14654   5.994   6.184   5.774 -0.9866 -0.9030  2.1162
  114CHL1  H12B14655   6.172   6.132   5.770  2.5083 -0.2721  4.4720
  114CHL1   C1114656   6.111   6.177   5.967  0.1257  0.0688 -0.1374
  114CHL1  H11A14657   6.033   6.239   6.017 -0.0152 -0.7537  0.6824
  114CHL1  H11B14658   6.082   6.074   5.996 -1.7803  0.6532  0.1372
  114CHL1    C914659   6.253   6.202   6.017 -0.0403 -0.1078 -0.3352
  114CHL1    H914660   6.301   6.108   5.980 -0.3626 -0.5006  0.2218
  114CHL1   C1014661   6.269   6.193   6.172 -0.0772 -0.0009  0.0396
  114CHL1   C1914662   6.175   6.293   6.237  0.1532 -0.6664 -0.0433
  114CHL1  H19A14663   6.069   6.264   6.221 -0.1753 -0.1521  1.0737
  114CHL1  H19B14664   6.180   6.291   6.348  0.6679 -3.3664 -0.0433
  114CHL1  H19C14665   6.180   6.395   6.193 -0.4775  0.0057  1.3727
  114CHL1    C114666   6.252   6.054   6.219  0.5571  0.1634  0.6471
  114CHL1   H1A14667   6.144   6.028   6.209  0.8683 -1.0405  0.1886
  114CHL1   H1B14668   6.305   5.985   6.151 -0.8128  0.9747 -1.3159
  114CHL1    C214669   6.296   6.011   6.359  0.9014 -0.3528 -0.0596
  114CHL1   H2A14670   6.270   5.905   6.379 -0.5622 -0.1640 -0.8026
  114CHL1   H2B14671   6.235   6.065   6.435  3.3206  1.2626  0.8850
  114CHL1   C2014672   6.070   6.441   5.528 -0.1279 -0.0118 -0.0889
  114CHL1   H2014673   6.051   6.542   5.571 -3.1648 -0.7229  0.4695
  114CHL1   C2114674   5.938   6.357   5.535  0.1574 -0.1229  0.4569
  114CHL1  H21A14675   5.898   6.370   5.638  2.0973  1.0333  1.1150
  114CHL1  H21B14676   5.941   6.250   5.506 -0.9513 -0.6282  2.0902
  114CHL1  H21C14677   5.860   6.406   5.473  0.6258 -0.2620 -0.2488
  114CHL1   C2214678   6.102   6.464   5.383 -0.1475  0.0398 -0.1470
  114CHL1  H22A14679   6.030   6.525   5.325 -2.0578 -1.0651  0.9655
  114CHL1  H22B14680   6.201   6.515   5.377 -0.3445  0.3980 -0.3605
  114CHL1   C2314681   6.114   6.333   5.309 -0.2516  0.5645 -0.0095
  114CHL1  H23A14682   6.179   6.263   5.367  1.1241  1.0735 -0.8754
  114CHL1  H23B14683   6.019   6.281   5.285  0.3429 -0.5575  0.0200
  114CHL1   C2414684   6.187   6.339   5.174 -0.0627 -0.0463 -0.3942
  114CHL1  H24A14685   6.136   6.421   5.121  0.2023  1.6306  1.7877
  114CHL1  H24B14686   6.290   6.376   5.196 -0.4779  0.8933  0.0507
  114CHL1   C2514687   6.194   6.208   5.087 -0.4600  0.1115  0.2163
  114CHL1   H2514688   6.205   6.127   5.162  1.8761 -1.6568 -1.8720
  114CHL1   C2614689   6.074   6.186   5.000  0.0429 -0.2392  0.0594
  114CHL1  H26A14690   6.077   6.081   4.966  1.3212 -0.0218 -0.5485
  114CHL1  H26B14691   5.973   6.203   5.044 -0.1577  0.3996 -0.6200
  114CHL1  H26C14692   6.082   6.258   4.916 -1.6762 -0.1852 -0.0871
  114CHL1   C2714693   6.319   6.196   5.005 -0.3736  0.6380 -0.4087
  114CHL1  H27A14694   6.401   6.222   5.075 -0.9405  1.9052 -0.1848
  114CHL1  H27B14695   6.329   6.090   4.975  0.4655 -0.2378  2.6068
  114CHL1  H27C14696   6.326   6.269   4.921 -1.6672  2.3533  0.8939
  115CHL1    C314697   3.314   6.947   6.693 -0.0131 -0.0403  0.0991
  115CHL1    H314698   3.377   6.860   6.666  1.0448  0.0380  2.1254
  115CHL1    O314699   3.326   6.945   6.835  0.4244  0.6208 -0.5992
  115CHL1   H3'14700   3.258   7.003   6.871 -0.5631 -0.4196 -0.7320
  115CHL1    C414701   3.368   7.084   6.637  0.1391 -0.5732 -0.4280
  115CHL1   H4A14702   3.308   7.161   6.692  0.1433 -0.2163 -0.9179
  115CHL1   H4B14703   3.475   7.095   6.664  0.9894 -0.9556 -3.3170
  115CHL1    C514704   3.325   7.118   6.492  0.2782  0.2326 -0.2319
  115CHL1    C614705   3.411   7.167   6.397 -0.3130 -0.0786 -0.4516
  115CHL1    H614706   3.516   7.189   6.424  0.3424 -1.8019 -1.3838
  115CHL1    C714707   3.375   7.190   6.252 -0.2096 -0.4291 -0.0053
  115CHL1   H7A14708   3.397   7.296   6.228  1.1723 -0.4905  0.8356
  115CHL1   H7B14709   3.432   7.121   6.186  0.6657 -2.9219  3.0814
  115CHL1    C814710   3.220   7.188   6.233 -0.5294  0.5233  0.2005
  115CHL1    H814711   3.171   7.281   6.270  0.6712  1.7831 -1.2102
  115CHL1   C1414712   3.197   7.170   6.091 -0.2389 -0.9035 -0.1934
  115CHL1   H1414713   3.248   7.074   6.066 -0.6703 -0.5876 -2.5633
  115CHL1   C1514714   3.256   7.279   5.994 -0.1253  0.6715  0.0747
  115CHL1  H15A14715   3.235   7.378   6.038  0.1409  1.4093 -1.4131
  115CHL1  H15B14716   3.363   7.250   5.982 -0.9515 -3.6733  1.1427
  115CHL1   C1614717   3.175   7.257   5.868  0.1731  0.8002 -0.6192
  115CHL1  H16A14718   3.122   7.353   5.852  0.5337  0.8113 -1.8621
  115CHL1  H16B14719   3.246   7.240   5.784 -1.7717  2.5126 -2.7279
  115CHL1   C1714720   3.069   7.148   5.891  0.0615  0.4508 -0.1843
  115CHL1   H1714721   3.118   7.049   5.881 -1.1300 -0.3224  1.1889
  115CHL1   C1314722   3.051   7.154   6.044  0.7877 -0.3944  0.0616
  115CHL1   C1814723   2.974   7.286   6.088 -0.7142 -0.0035  0.5576
  115CHL1  H18A14724   2.867   7.279   6.058 -0.5893  1.6879 -0.4052
  115CHL1  H18B14725   2.976   7.311   6.197  0.6320 -0.0482  0.5611
  115CHL1  H18C14726   2.998   7.381   6.036 -1.5177 -1.5678 -2.9297
  115CHL1   C1214727   2.982   7.029   6.118 -0.2417  0.5787  0.7879
  115CHL1  H12A14728   2.876   7.043   6.090  0.3961  0.7665 -1.7971
  115CHL1  H12B14729   3.028   6.934   6.084 -0.2265  1.0485 -0.5213
  115CHL1   C1114730   3.008   7.043   6.266 -0.6842  0.9813 -0.1200
  115CHL1  H11A14731   2.941   7.127   6.296 -0.0394  1.5116 -0.1426
  115CHL1  H11B14732   2.963   6.954   6.316  0.2752  1.5993  1.9592
  115CHL1    C914733   3.157   7.072   6.307  0.4821  0.0363 -0.0826
  115CHL1    H914734   3.211   6.986   6.264  1.1037 -1.4312  3.3003
  115CHL1   C1014735   3.178   7.074   6.460  0.7880  0.4325 -1.4526
  115CHL1   C1914736   3.092   7.190   6.519 -0.1987  0.3879 -0.4910
  115CHL1  H19A14737   3.107   7.212   6.627  2.8575 -2.3874 -0.2070
  115CHL1  H19B14738   3.120   7.283   6.465  2.1700 -1.2768 -2.3023
  115CHL1  H19C14739   2.983   7.171   6.512 -0.3235  0.4395  1.0056
  115CHL1    C114740   3.136   6.933   6.523  0.4085  0.0986  0.3597
  115CHL1   H1A14741   3.026   6.928   6.515  0.4866 -0.1689 -0.6513
  115CHL1   H1B14742   3.172   6.850   6.460 -0.9641 -1.8331  2.0015
  115CHL1    C214743   3.169   6.924   6.675 -0.4247 -0.4608  0.0088
  115CHL1   H2A14744   3.150   6.822   6.716  1.2985 -1.5344 -1.6771
  115CHL1   H2B14745   3.105   6.998   6.727 -0.6631  0.3602 -1.4136
  115CHL1   C2014746   2.949   7.168   5.798  0.2388 -0.8290  0.6431
  115CHL1   H2014747   2.891   7.251   5.844  0.3434 -0.1882 -0.3396
  115CHL1   C2114748   2.851   7.048   5.804  0.3968 -0.7667  0.7178
  115CHL1  H21A14749   2.778   7.062   5.721  0.7884  0.5842  0.5749
  115CHL1  H21B14750   2.780   7.047   5.890  0.2519  2.3730  0.7664
  115CHL1  H21C14751   2.900   6.949   5.794  1.5890 -0.1297  0.0327
  115CHL1   C2214752   2.983   7.200   5.656 -0.8422 -0.1271 -0.4382
  115CHL1  H22A14753   2.896   7.218   5.590 -0.7802 -0.2813 -0.5647
  115CHL1  H22B14754   3.033   7.299   5.653 -0.0875 -0.4164  1.4645
  115CHL1   C2314755   3.080   7.091   5.589  0.7206 -0.0476 -1.0786
  115CHL1  H23A14756   3.184   7.090   5.627  0.2131 -3.9316  0.7331
  115CHL1  H23B14757   3.045   6.995   5.632 -0.9231  1.7661  2.0060
  115CHL1   C2414758   3.071   7.090   5.438 -0.0743 -0.4709 -0.4067
  115CHL1  H24A14759   3.134   7.007   5.401 -1.8489 -1.6081 -1.0161
  115CHL1  H24B14760   2.968   7.058   5.413  0.3460 -0.7501 -1.8818
  115CHL1   C2514761   3.099   7.226   5.377  0.1654  0.0050  0.2085
  115CHL1   H2514762   3.047   7.312   5.424  0.3207  1.0040 -1.3800
  115CHL1   C2614763   3.249   7.266   5.386  0.1657  0.4027 -0.3612
  115CHL1  H26A14764   3.262   7.374   5.362 -0.3810  0.7202  0.7090
  115CHL1  H26B14765   3.285   7.247   5.489  0.2788 -3.1130 -0.9361
  115CHL1  H26C14766   3.310   7.203   5.317 -3.1048 -1.3392 -1.8857
  115CHL1   C2714767   3.073   7.227   5.226  0.7467  0.4524  0.7191
  115CHL1  H27A14768   2.969   7.200   5.197  0.5396  2.6098 -0.7627
  115CHL1  H27B14769   3.106   7.323   5.182 -0.1889  1.0069  1.1988
  115CHL1  H27C14770   3.130   7.150   5.169 -2.1283  0.6888 -2.8516
  116CHL1    C314771   3.331   5.769   6.477 -0.7568 -0.0423  0.5881
  116CHL1    H314772   3.232   5.718   6.477 -0.6660 -0.2184  0.8033
  116CHL1    O314773   3.393   5.741   6.600  0.5653  0.1507  0.7036
  116CHL1   H3'14774   3.338   5.778   6.670 -0.7373  0.7796 -0.5860
  116CHL1    C414775   3.419   5.691   6.373 -0.0664 -0.4279 -0.3308
  116CHL1   H4A14776   3.520   5.731   6.393  0.0265 -0.5475 -0.5602
  116CHL1   H4B14777   3.424   5.582   6.396 -0.4838 -0.2201  0.8201
  116CHL1    C514778   3.372   5.718   6.229  0.5306 -0.6914  0.8422
  116CHL1    C614779   3.342   5.614   6.154 -0.4246 -0.2858  0.3695
  116CHL1    H614780   3.363   5.514   6.193 -0.1772 -1.5468 -2.6762
  116CHL1    C714781   3.305   5.625   6.004  0.0667  0.1554 -0.8099
  116CHL1   H7A14782   3.365   5.559   5.938  1.3539  1.2512 -0.7784
  116CHL1   H7B14783   3.196   5.604   6.001  0.1441 -0.1264 -2.1626
  116CHL1    C814784   3.334   5.771   5.950 -0.7482  0.0566  0.4588
  116CHL1    H814785   3.444   5.784   5.942 -0.6874 -0.8320 -0.2265
  116CHL1   C1414786   3.277   5.790   5.805  0.9614  0.0188  0.0245
  116CHL1   H1414787   3.169   5.765   5.816  0.8583 -0.5894 -2.0376
  116CHL1   C1514788   3.312   5.687   5.692  0.1587 -0.2612 -0.0114
  116CHL1  H15A14789   3.424   5.685   5.692  0.2023  1.1568 -0.7406
  116CHL1  H15B14790   3.266   5.586   5.698  1.3951 -0.9885 -1.8460
  116CHL1   C1614791   3.265   5.760   5.572  0.3736 -0.7467 -0.3640
  116CHL1  H16A14792   3.338   5.751   5.489 -0.0290 -0.2450 -0.7783
  116CHL1  H16B14793   3.171   5.712   5.538 -0.1587 -1.1171  1.4905
  116CHL1   C1714794   3.218   5.904   5.604 -0.5195  0.1778 -0.4802
  116CHL1   H1714795   3.108   5.909   5.620 -0.4236  2.0666 -0.1633
  116CHL1   C1314796   3.278   5.930   5.746  0.1663 -0.2725  0.4389
  116CHL1   C1814797   3.431   5.959   5.725 -0.5032  0.3563 -0.1036
  116CHL1  H18A14798   3.454   6.060   5.684  0.7473 -0.2278 -0.9187
  116CHL1  H18B14799   3.486   5.941   5.821  0.4383 -0.7706 -0.8191
  116CHL1  H18C14800   3.485   5.881   5.667  0.0413  1.5779 -1.2754
  116CHL1   C1214801   3.213   6.024   5.846 -0.2042 -0.6875 -0.0675
  116CHL1  H12A14802   3.228   6.125   5.801  2.2291 -1.9886 -2.4838
  116CHL1  H12B14803   3.105   5.997   5.849 -0.7340  1.1912 -0.6691
  116CHL1   C1114804   3.285   6.015   5.985  0.1706 -0.3992 -0.1574
  116CHL1  H11A14805   3.388   6.058   5.987  0.0252  0.0275 -1.1541
  116CHL1  H11B14806   3.229   6.085   6.051 -0.7651 -0.6565 -0.6582
  116CHL1    C914807   3.279   5.874   6.049 -0.4828  0.5356 -0.7865
  116CHL1    H914808   3.173   5.849   6.072  0.0120 -0.0707  0.9558
  116CHL1   C1014809   3.348   5.863   6.188 -0.9152 -0.4857 -1.1412
  116CHL1   C1914810   3.482   5.940   6.191 -0.1425  0.3582 -0.0688
  116CHL1  H19A14811   3.558   5.912   6.114  0.6049  0.7770  0.5005
  116CHL1  H19B14812   3.471   6.050   6.183  3.1247  0.8645  0.9889
  116CHL1  H19C14813   3.527   5.928   6.292 -1.1090  1.7709  0.5544
  116CHL1    C114814   3.268   5.935   6.303  0.6093 -0.5328 -0.0571
  116CHL1   H1A14815   3.278   6.042   6.275  1.5427 -0.7964 -0.8143
  116CHL1   H1B14816   3.162   5.901   6.301 -0.2201  1.8017  0.5180
  116CHL1    C214817   3.316   5.912   6.443 -0.0563 -0.6289 -0.7337
  116CHL1   H2A14818   3.236   5.953   6.508  0.8889  0.7281 -0.3980
  116CHL1   H2B14819   3.413   5.961   6.467  0.5408 -2.2967  0.5052
  116CHL1   C2014820   3.254   6.003   5.490 -0.4240  0.8777 -0.0263
  116CHL1   H2014821   3.365   6.010   5.489 -0.0533 -3.0375 -0.3130
  116CHL1   C2114822   3.196   6.136   5.521 -0.4328 -0.4164  0.3118
  116CHL1  H21A14823   3.086   6.132   5.508 -0.5567  0.3861  1.0339
  116CHL1  H21B14824   3.249   6.213   5.461  1.0525 -0.2866  1.7330
  116CHL1  H21C14825   3.215   6.187   5.618 -0.9006 -0.8141  0.6151
  116CHL1   C2214826   3.216   5.955   5.346  0.1273  0.0519  0.1732
  116CHL1  H22A14827   3.240   5.848   5.327 -1.4102  0.0683 -2.3720
  116CHL1  H22B14828   3.105   5.949   5.347  0.1787 -1.1887  0.2683
  116CHL1   C2314829   3.267   6.054   5.238 -0.2144 -0.0844 -0.0549
  116CHL1  H23A14830   3.196   6.140   5.241 -2.2191 -1.6602  1.9458
  116CHL1  H23B14831   3.364   6.095   5.272 -0.7773 -0.0178  1.5256
  116CHL1   C2414832   3.260   5.996   5.091  0.1921  0.0951 -0.0052
  116CHL1  H24A14833   3.337   5.919   5.069  2.0967  2.0205 -0.3748
  116CHL1  H24B14834   3.166   5.935   5.090 -0.0264  0.4067 -2.3862
  116CHL1   C2514835   3.270   6.090   4.976 -0.1845 -0.2376 -0.7513
  116CHL1   H2514836   3.171   6.138   4.964  0.0239  0.7114  1.0247
  116CHL1   C2614837   3.367   6.200   4.986 -0.3864 -1.1422  0.7389
  116CHL1  H26A14838   3.469   6.165   5.015  1.5649  2.4155 -1.1563
  116CHL1  H26B14839   3.391   6.267   4.901 -0.4133 -1.5010  0.4474
  116CHL1  H26C14840   3.341   6.271   5.067  1.2701 -0.2842  0.5517
  116CHL1   C2714841   3.304   6.019   4.839  0.3345 -0.6688 -0.6495
  116CHL1  H27A14842   3.281   6.078   4.748  1.3543 -0.3379 -0.7057
  116CHL1  H27B14843   3.411   5.992   4.832  0.4547 -0.0561 -1.2565
  116CHL1  H27C14844   3.245   5.926   4.823 -0.2144  0.0481 -3.3036
  117CHL1    C314845   5.869   6.067   6.442 -0.1589 -0.1095  0.3474
  117CHL1    H314846   5.965   6.116   6.416 -1.6862  1.9161 -1.9852
  117CHL1    O314847   5.885   5.991   6.559  0.0043 -0.5128 -0.0258
  117CHL1   H3'14848   5.941   6.049   6.611 -0.0913 -0.0601 -0.4310
  117CHL1    C414849   5.767   6.183   6.464  0.2547  0.0906  0.1517
  117CHL1   H4A14850   5.663   6.154   6.491  0.3375  1.2461  1.8169
  117CHL1   H4B14851   5.796   6.239   6.556  0.0646  1.0210 -0.3408
  117CHL1    C514852   5.760   6.262   6.336 -0.5325  0.5535 -0.2818
  117CHL1    C614853   5.807   6.386   6.332  0.0120 -0.0214 -0.0447
  117CHL1    H614854   5.853   6.435   6.419  2.2923 -1.2146 -0.5109
  117CHL1    C714855   5.793   6.467   6.207 -0.1768 -0.3913  0.5212
  117CHL1   H7A14856   5.738   6.560   6.233 -0.9301 -0.1416 -1.7194
  117CHL1   H7B14857   5.890   6.496   6.162 -0.2308 -0.5247  0.3191
  117CHL1    C814858   5.687   6.411   6.106 -0.4102 -0.1273  0.3341
  117CHL1    H814859   5.590   6.427   6.157 -0.4653  0.1714  0.1351
  117CHL1   C1414860   5.679   6.488   5.974  0.2382 -0.5874  0.2122
  117CHL1   H1414861   5.776   6.459   5.928 -0.9353 -0.1386 -2.7645
  117CHL1   C1514862   5.681   6.639   5.976  0.7383 -0.5470 -0.3534
  117CHL1  H15A14863   5.589   6.657   6.037  0.0300  1.4512 -1.9060
  117CHL1  H15B14864   5.776   6.683   6.013  0.2246  0.0917  0.2449
  117CHL1   C1614865   5.644   6.676   5.829 -0.0919 -0.0639  0.3992
  117CHL1  H16A14866   5.551   6.737   5.832  0.8291  1.4416 -0.1177
  117CHL1  H16B14867   5.732   6.729   5.784 -0.9339  0.4373 -0.7079
  117CHL1   C1714868   5.621   6.545   5.753  0.0398 -0.2775 -0.6441
  117CHL1   H1714869   5.716   6.503   5.712 -0.5965 -1.3261 -1.0950
  117CHL1   C1314870   5.588   6.435   5.862  0.1011 -0.2266 -0.4498
  117CHL1   C1814871   5.437   6.455   5.901  0.0196 -0.0759 -0.4350
  117CHL1  H18A14872   5.420   6.415   6.004  1.0757 -0.4558 -0.3971
  117CHL1  H18B14873   5.405   6.561   5.908 -0.3585 -0.2742  4.0534
  117CHL1  H18C14874   5.376   6.401   5.826  0.7369  0.7541 -1.6313
  117CHL1   C1214875   5.634   6.289   5.832 -0.1411  0.1705  0.0147
  117CHL1  H12A14876   5.570   6.243   5.753  1.1734 -0.3673 -0.7629
  117CHL1  H12B14877   5.741   6.279   5.807  0.1178 -1.9063  1.6317
  117CHL1   C1114878   5.638   6.201   5.956 -0.2426  0.0269  0.4645
  117CHL1  H11A14879   5.532   6.186   5.987  0.0549 -0.0818  1.4451
  117CHL1  H11B14880   5.692   6.106   5.937  0.6397  0.5707  0.2021
  117CHL1    C914881   5.712   6.262   6.081 -0.5337  0.2969  0.7330
  117CHL1    H914882   5.820   6.257   6.054 -1.0623  2.0723 -2.1606
  117CHL1   C1014883   5.711   6.178   6.214 -0.9542  0.2893 -0.2786
  117CHL1   C1914884   5.566   6.138   6.244  0.0827 -0.1282 -0.2165
  117CHL1  H19A14885   5.545   6.066   6.162  1.3845  0.5278 -1.1704
  117CHL1  H19B14886   5.540   6.096   6.343 -0.6967 -1.4374 -0.9543
  117CHL1  H19C14887   5.502   6.229   6.249 -0.2698 -0.3985  0.1671
  117CHL1    C114888   5.814   6.060   6.195 -0.4136 -0.9335 -0.3436
  117CHL1   H1A14889   5.778   5.992   6.115 -2.3119  0.8598 -1.0965
  117CHL1   H1B14890   5.912   6.105   6.166 -0.4818  0.3710  1.3285
  117CHL1    C214891   5.831   5.979   6.325  0.3010  0.3447  0.3286
  117CHL1   H2A14892   5.904   5.897   6.312  0.2698  0.3740 -0.0686
  117CHL1   H2B14893   5.728   5.943   6.346 -0.2173  2.5970  2.1509
  117CHL1   C2014894   5.529   6.554   5.630 -0.1442 -0.0517  0.1214
  117CHL1   H2014895   5.424   6.572   5.659 -0.0864  1.5789 -0.5758
  117CHL1   C2114896   5.531   6.415   5.557 -0.5832  0.1620  0.2993
  117CHL1  H21A14897   5.501   6.421   5.450  0.9849  0.1886 -0.1543
  117CHL1  H21B14898   5.467   6.347   5.617 -0.6762  0.6508  0.7594
  117CHL1  H21C14899   5.635   6.379   5.549 -0.6595  0.0385 -0.1896
  117CHL1   C2214900   5.555   6.670   5.528 -0.7511 -0.5719 -0.2459
  117CHL1  H22A14901   5.480   6.671   5.446  0.2731  2.0208 -1.2491
  117CHL1  H22B14902   5.533   6.767   5.578  0.4966 -0.5360  0.2736
  117CHL1   C2314903   5.699   6.664   5.466  0.5681 -0.5058 -0.0806
  117CHL1  H23A14904   5.772   6.684   5.547 -2.3056  0.0231  2.5317
  117CHL1  H23B14905   5.695   6.563   5.419 -0.8088  0.4815 -2.2663
  117CHL1   C2414906   5.727   6.771   5.359  0.6186  0.1586  0.4356
  117CHL1  H24A14907   5.630   6.783   5.306  1.0165  1.9881  0.0533
  117CHL1  H24B14908   5.745   6.876   5.392  0.0772  0.8668 -1.4145
  117CHL1   C2514909   5.831   6.732   5.254  0.0313 -0.1340 -0.2492
  117CHL1   H2514910   5.823   6.625   5.227 -1.1328  0.1606 -1.1601
  117CHL1   C2614911   5.808   6.793   5.123  0.3750 -0.4696  0.0037
  117CHL1  H26A14912   5.884   6.751   5.054  2.3746  1.5125  0.8833
  117CHL1  H26B14913   5.705   6.761   5.096 -0.6676  1.4348  1.4554
  117CHL1  H26C14914   5.800   6.903   5.118 -0.8749 -0.4809  1.2306
  117CHL1   C2714915   5.960   6.780   5.314 -0.8034  0.1350  0.3462
  117CHL1  H27A14916   5.972   6.744   5.419  0.2724 -1.5418 -0.3145
  117CHL1  H27B14917   6.049   6.756   5.252  0.6036  4.3622  0.3640
  117CHL1  H27C14918   5.963   6.891   5.324  0.5218  0.1570 -0.0998
  118CHL1    C314919   1.333   1.900   6.352 -0.4282 -0.5285  0.5060
  118CHL1    H314920   1.296   1.800   6.323  1.4543 -0.6236 -1.8962
  118CHL1    O314921   1.347   1.907   6.494 -0.6496  0.2751 -0.2282
  118CHL1   H3'14922   1.267   1.872   6.532  0.9209  0.1139  3.3565
  118CHL1    C414923   1.471   1.925   6.290 -0.0015 -0.5395  0.0051
  118CHL1   H4A14924   1.490   2.027   6.330 -0.3911 -0.8569  1.0396
  118CHL1   H4B14925   1.553   1.870   6.339  0.8990  1.0270  0.3346
  118CHL1    C514926   1.466   1.924   6.144  0.1569  0.1109  0.4322
  118CHL1    C614927   1.535   1.828   6.078 -0.4827 -0.0372 -0.1217
  118CHL1    H614928   1.597   1.759   6.139 -0.9159  0.5900  1.0530
  118CHL1    C714929   1.512   1.798   5.935  0.6138  0.5609  0.0360
  118CHL1   H7A14930   1.611   1.762   5.899  0.5005  0.1840  0.0936
  118CHL1   H7B14931   1.446   1.709   5.926 -0.5639  1.3523  0.5719
  118CHL1    C814932   1.453   1.919   5.858  0.1841  0.5146  0.2673
  118CHL1    H814933   1.523   2.005   5.850 -1.3546  1.7672 -0.3641
  118CHL1   C1414934   1.421   1.869   5.717 -0.0601 -0.1297 -0.2560
  118CHL1   H1414935   1.339   1.796   5.733 -0.4296  0.1093 -1.0204
  118CHL1   C1514936   1.537   1.799   5.636 -0.1821 -0.2789 -0.0022
  118CHL1  H15A14937   1.633   1.854   5.650 -0.3211 -0.1843  0.5942
  118CHL1  H15B14938   1.552   1.695   5.674  1.1228 -0.1526 -0.0956
  118CHL1   C1614939   1.473   1.794   5.493  0.2543  0.2784 -0.6341
  118CHL1  H16A14940   1.556   1.847   5.441  1.4666  1.5380  2.3560
  118CHL1  H16B14941   1.453   1.691   5.458 -0.9833 -0.0017  0.8373
  118CHL1   C1714942   1.348   1.892   5.496  0.1045  0.0369 -0.5370
  118CHL1   H1714943   1.268   1.820   5.524  0.1886  0.0205 -0.3389
  118CHL1   C1314944   1.362   1.971   5.626 -0.7100  0.1178  0.3005
  118CHL1   C1814945   1.457   2.090   5.596  0.5480  0.3702 -0.0765
  118CHL1  H18A14946   1.497   2.115   5.697  2.2602 -2.6658  0.1219
  118CHL1  H18B14947   1.543   2.062   5.532  0.7218  3.4624 -1.3528
  118CHL1  H18C14948   1.409   2.180   5.553  1.3213  0.7130 -0.2329
  118CHL1   C1214949   1.226   2.011   5.685  0.1983  0.1035 -0.1621
  118CHL1  H12A14950   1.156   2.078   5.631  1.2564  0.1875 -1.4762
  118CHL1  H12B14951   1.158   1.924   5.698 -1.9808  1.4806 -1.5934
  118CHL1   C1114952   1.250   2.063   5.836 -0.0734 -0.0947 -0.1609
  118CHL1  H11A14953   1.301   2.162   5.837 -1.5483  0.7024  1.4582
  118CHL1  H11B14954   1.149   2.077   5.881  0.0417 -0.0468  0.0831
  118CHL1    C914955   1.328   1.961   5.927  0.0868  0.0221  0.7072
  118CHL1    H914956   1.267   1.869   5.941  1.0256 -1.1655 -2.2158
  118CHL1   C1014957   1.355   2.009   6.071 -0.1957  0.7633 -0.2223
  118CHL1   C1914958   1.398   2.156   6.066 -0.2716  0.1215 -0.3891
  118CHL1  H19A14959   1.490   2.172   6.006  0.5775 -1.3736  0.4475
  118CHL1  H19B14960   1.322   2.230   6.032  0.8453  1.2280 -0.5426
  118CHL1  H19C14961   1.436   2.184   6.166  2.5046 -0.3924 -1.2168
  118CHL1    C114962   1.221   1.998   6.152  0.1416 -0.3296  0.4761
  118CHL1   H1A14963   1.161   2.082   6.112 -1.7552 -1.4188  0.9272
  118CHL1   H1B14964   1.167   1.908   6.116  2.3612 -1.3864 -0.3913
  118CHL1    C214965   1.234   2.006   6.300  0.2434  0.0978 -0.4115
  118CHL1   H2A14966   1.139   1.978   6.349 -1.1271  1.1986 -2.3155
  118CHL1   H2B14967   1.259   2.110   6.331  1.3923 -0.4563  0.6051
  118CHL1   C2014968   1.329   1.962   5.367 -0.0070 -0.0475 -0.6619
  118CHL1   H2014969   1.422   2.020   5.349 -0.4329  0.7960 -0.1518
  118CHL1   C2114970   1.209   2.066   5.370  0.3292  0.8372 -0.4045
  118CHL1  H21A14971   1.232   2.147   5.442  0.5025  1.5203 -1.2148
  118CHL1  H21B14972   1.111   2.024   5.403  0.3080  1.5542  0.4972
  118CHL1  H21C14973   1.194   2.115   5.272  0.7048  2.7521  0.4489
  118CHL1   C2214974   1.312   1.874   5.243  0.6895  0.8372 -0.5789
  118CHL1  H22A14975   1.408   1.817   5.235  0.0123 -0.8482  2.0168
  118CHL1  H22B14976   1.242   1.790   5.261  2.5972 -1.0559 -1.5094
  118CHL1   C2314977   1.279   1.943   5.106  0.0696  0.2274  0.0732
  118CHL1  H23A14978   1.185   2.001   5.115  0.6998  0.9603  3.4886
  118CHL1  H23B14979   1.363   2.014   5.088  0.4900 -0.0524  0.8949
  118CHL1   C2414980   1.271   1.839   4.998  0.0632  0.6986 -0.6254
  118CHL1  H24A14981   1.373   1.798   4.980 -0.3030 -0.1363 -0.8552
  118CHL1  H24B14982   1.201   1.759   5.030 -0.5216  1.2600 -0.4872
  118CHL1   C2514983   1.208   1.875   4.862  0.1557 -0.0700 -0.0569
  118CHL1   H2514984   1.246   1.974   4.828 -0.2903 -0.0158 -0.4077
  118CHL1   C2614985   1.243   1.775   4.749  0.2292  0.0962 -1.2340
  118CHL1  H26A14986   1.185   1.793   4.656  0.0479  0.4484 -1.0537
  118CHL1  H26B14987   1.347   1.784   4.711  1.0939 -2.5193  0.2229
  118CHL1  H26C14988   1.240   1.668   4.780  1.6204  0.0819 -1.1175
  118CHL1   C2714989   1.056   1.891   4.869 -0.1561  0.4774 -0.4609
  118CHL1  H27A14990   1.011   1.789   4.875 -0.3149  0.6168  0.9390
  118CHL1  H27B14991   1.020   1.960   4.948 -2.0427  0.8490 -1.5570
  118CHL1  H27C14992   1.020   1.947   4.779  2.2695  2.4681 -0.2862
  119CHL1    C314993   1.587   0.481   6.627 -0.7292  0.1064 -0.9927
  119CHL1    H314994   1.564   0.589   6.610  1.1012  1.2855  2.7616
  119CHL1    O314995   1.592   0.442   6.764  0.1928  0.0652 -0.2862
  119CHL1   H3'14996   1.587   0.347   6.774 -0.0239  0.1179  0.1454
  119CHL1    C414997   1.486   0.400   6.552 -0.2332 -0.0332 -0.6374
  119CHL1   H4A14998   1.508   0.298   6.592 -0.4113  0.1108 -0.1632
  119CHL1   H4B14999   1.389   0.436   6.592 -0.8812 -0.9740 -1.3015
  119CHL1    C515000   1.500   0.400   6.400 -0.1305 -0.8128  0.0705
  119CHL1    C615001   1.386   0.420   6.324  0.5462 -0.4696  0.7241
  119CHL1    H615002   1.286   0.422   6.368 -0.7775 -3.3188 -1.7237
  119CHL1    C715003   1.387   0.404   6.177  0.3227 -0.3403 -0.1555
  119CHL1   H7A15004   1.305   0.340   6.139  0.4748  0.0167 -1.1261
  119CHL1   H7B15005   1.386   0.507   6.134  1.3313 -0.2593 -0.0122
  119CHL1    C815006   1.520   0.348   6.119 -0.2555  0.2638  1.2174
  119CHL1    H815007   1.528   0.240   6.144  2.3582  0.4421  1.4866
  119CHL1   C1415008   1.537   0.354   5.963 -0.3093 -1.0083  0.4691
  119CHL1   H1415009   1.537   0.461   5.933 -1.0385 -0.5587  1.9757
  119CHL1   C1515010   1.426   0.300   5.879  0.5299 -0.5128 -0.0201
  119CHL1  H15A15011   1.406   0.202   5.927  1.9790 -1.0062 -0.3577
  119CHL1  H15B15012   1.336   0.363   5.865  0.1447 -1.4264 -2.1174
  119CHL1   C1615013   1.493   0.277   5.740 -0.5342  0.5829 -0.2016
  119CHL1  H16A15014   1.476   0.167   5.735 -2.8422  0.7609  1.9475
  119CHL1  H16B15015   1.456   0.342   5.658  2.3514 -0.2892 -2.3825
  119CHL1   C1715016   1.648   0.312   5.751  0.0361 -0.5056 -0.4578
  119CHL1   H1715017   1.655   0.420   5.723  0.4720 -0.3091  0.3976
  119CHL1   C1315018   1.673   0.305   5.904 -0.4086  0.1384 -0.6771
  119CHL1   C1815019   1.686   0.152   5.943  0.3745 -0.5360  0.1283
  119CHL1  H18A15020   1.666   0.126   6.049 -0.9024  1.0368  0.3154
  119CHL1  H18B15021   1.597   0.102   5.900  0.2862 -0.2141 -0.0680
  119CHL1  H18C15022   1.781   0.107   5.908  0.4483  0.2277 -0.6930
  119CHL1   C1215023   1.786   0.391   5.968  0.4739  0.3553  0.0429
  119CHL1  H12A15024   1.884   0.340   5.954 -0.7395 -3.0309  2.5437
  119CHL1  H12B15025   1.789   0.496   5.931 -1.5972  0.4035 -0.0963
  119CHL1   C1115026   1.779   0.391   6.119 -0.6919  0.0208 -0.5059
  119CHL1  H11A15027   1.819   0.294   6.156  0.0815  0.9645  1.2200
  119CHL1  H11B15028   1.849   0.466   6.160 -0.4687 -0.5364  0.1605
  119CHL1    C915029   1.643   0.414   6.190  0.7976  0.3708 -0.2669
  119CHL1    H915030   1.622   0.523   6.183  0.5535  0.3238 -0.2827
  119CHL1   C1015031   1.638   0.390   6.342 -0.2700 -0.5522 -0.1259
  119CHL1   C1915032   1.683   0.244   6.379  0.0534 -0.2217 -0.1946
  119CHL1  H19A15033   1.632   0.164   6.321 -1.3781  0.4437  0.1084
  119CHL1  H19B15034   1.793   0.229   6.371  0.1303  0.2069  0.0013
  119CHL1  H19C15035   1.645   0.215   6.479 -4.9416  0.9102 -1.5300
  119CHL1    C115036   1.738   0.482   6.417 -0.4649  0.7817 -0.0456
  119CHL1   H1A15037   1.844   0.453   6.399 -0.6678  0.2515 -0.4481
  119CHL1   H1B15038   1.720   0.588   6.392 -1.1594  0.9206  1.0132
  119CHL1    C215039   1.728   0.471   6.569 -0.5513  0.0811  0.0002
  119CHL1   H2A15040   1.776   0.559   6.618 -1.3581  1.4159 -1.5270
  119CHL1   H2B15041   1.777   0.382   6.616 -0.3589  0.3263  0.2722
  119CHL1   C2015042   1.738   0.232   5.656  0.3533 -0.0097 -0.3432
  119CHL1   H2015043   1.745   0.126   5.687  1.6447  0.0179 -0.4567
  119CHL1   C2115044   1.879   0.293   5.661  0.1850 -0.6575 -0.4903
  119CHL1  H21A15045   1.883   0.404   5.647 -0.8591 -0.5713 -0.1950
  119CHL1  H21B15046   1.943   0.243   5.584 -0.2091 -3.9247  1.1614
  119CHL1  H21C15047   1.927   0.276   5.760 -0.2457  1.1944  0.0783
  119CHL1   C2215048   1.674   0.222   5.513 -0.3637 -0.5016 -0.1348
  119CHL1  H22A15049   1.565   0.209   5.500 -0.3685  0.3620 -1.0571
  119CHL1  H22B15050   1.691   0.323   5.469  1.7548 -0.2686  1.0467
  119CHL1   C2315051   1.748   0.147   5.400  0.6247  0.1831  0.0645
  119CHL1  H23A15052   1.852   0.187   5.393  0.5682  0.1513 -1.1497
  119CHL1  H23B15053   1.757   0.044   5.442 -0.1788  0.5107  1.0760
  119CHL1   C2415054   1.696   0.142   5.253  0.2282 -0.4628  0.0667
  119CHL1  H24A15055   1.591   0.107   5.245  0.1156 -0.4704  1.3689
  119CHL1  H24B15056   1.679   0.248   5.223 -2.9738 -0.6642  0.7762
  119CHL1   C2515057   1.794   0.063   5.161 -0.0599 -0.4799  0.1454
  119CHL1   H2515058   1.896   0.107   5.171 -0.1027  0.3566 -2.3295
  119CHL1   C2615059   1.809  -0.084   5.210  0.4749 -0.0298 -0.7480
  119CHL1  H26A15060   1.850  -0.079   5.313  1.2187 -1.0328 -0.9833
  119CHL1  H26B15061   1.701  -0.111   5.216  0.5313 -0.3139 -0.9774
  119CHL1  H26C15062   1.866  -0.150   5.142  0.4436  0.5225 -1.3145
  119CHL1   C2715063   1.750   0.066   5.013 -0.5188  0.3808 -0.5283
  119CHL1  H27A15064   1.692  -0.027   4.994 -0.4657  0.2403 -0.0127
  119CHL1  H27B15065   1.697   0.159   4.983 -3.1699 -0.2002  1.9373
  119CHL1  H27C15066   1.840   0.049   4.949 -0.9026 -1.8842 -0.5540
  120CHL1    C315067   0.665   7.144   6.460  0.1132 -0.7118 -0.9044
  120CHL1    H315068   0.679   7.036   6.441 -0.2324 -0.8469 -0.4274
  120CHL1    O315069   0.613   7.168   6.590 -0.2702 -0.1787 -0.1046
  120CHL1   H3'15070   0.591   7.260   6.600 -0.0816  0.0027 -1.2346
  120CHL1    C415071   0.795   7.221   6.452  0.7093 -0.3388 -0.2907
  120CHL1   H4A15072   0.766   7.327   6.464  1.3464 -0.0890 -0.9314
  120CHL1   H4B15073   0.854   7.191   6.542  2.7983  2.2535 -0.7038
  120CHL1    C515074   0.856   7.208   6.321 -0.0960  0.2130  0.5695
  120CHL1    C615075   0.983   7.171   6.305  0.4120  0.0717  0.1547
  120CHL1    H615076   1.050   7.145   6.389  1.2195 -1.3960 -0.9089
  120CHL1    C715077   1.044   7.173   6.161  0.1905 -0.4042 -0.9040
  120CHL1   H7A15078   1.147   7.213   6.167 -0.1647  0.7970 -2.1669
  120CHL1   H7B15079   1.060   7.067   6.134 -1.1196 -0.5457 -1.2110
  120CHL1    C815080   0.965   7.236   6.048 -0.6844  0.6070  0.2788
  120CHL1    H815081   0.990   7.344   6.058 -0.3917  0.8088 -2.0613
  120CHL1   C1415082   1.022   7.201   5.916  0.2167  0.1485  1.0820
  120CHL1   H1415083   1.010   7.091   5.902 -0.3929  0.4684 -1.2803
  120CHL1   C1515084   1.172   7.216   5.877 -0.1718  0.3955 -0.2944
  120CHL1  H15A15085   1.208   7.313   5.919 -2.8138  0.6007  1.6856
  120CHL1  H15B15086   1.234   7.136   5.922 -0.3064  1.0006  1.0260
  120CHL1   C1615087   1.177   7.216   5.732  0.2022  0.3741  0.9246
  120CHL1  H16A15088   1.224   7.312   5.700  0.6111  0.9552  3.1152
  120CHL1  H16B15089   1.234   7.129   5.692 -1.3912 -1.2644  2.0745
  120CHL1   C1715090   1.025   7.213   5.678 -0.4468  0.1160 -0.1558
  120CHL1   H1715091   0.997   7.105   5.678  1.7140 -0.4925 -0.4761
  120CHL1   C1315092   0.946   7.271   5.800  0.4840  0.2420 -0.1014
  120CHL1   C1815093   0.963   7.423   5.810  0.6408 -0.9247  0.1972
  120CHL1  H18A15094   1.068   7.452   5.784  0.4924 -1.8555 -1.6323
  120CHL1  H18B15095   0.905   7.475   5.731  1.2454  0.0460  0.3725
  120CHL1  H18C15096   0.940   7.467   5.910  0.5223 -1.6458  0.4929
  120CHL1   C1215097   0.809   7.217   5.807 -0.4482  0.2901 -0.0147
  120CHL1  H12A15098   0.754   7.272   5.728 -1.9345  1.2425  1.6043
  120CHL1  H12B15099   0.804   7.107   5.796 -1.6674  0.4232 -0.9367
  120CHL1   C1115100   0.741   7.239   5.945  0.1369 -0.6710 -0.1018
  120CHL1  H11A15101   0.740   7.350   5.949  2.9573 -0.6170  2.3276
  120CHL1  H11B15102   0.637   7.200   5.949 -0.0270 -0.1369  0.9477
  120CHL1    C915103   0.818   7.196   6.067 -0.9576 -0.2633  0.2336
  120CHL1    H915104   0.825   7.085   6.063 -1.5304 -0.2813 -0.8543
  120CHL1   C1015105   0.758   7.246   6.204 -0.4850 -0.4139  0.2293
  120CHL1   C1915106   0.739   7.398   6.199  0.8733 -0.2704  0.7553
  120CHL1  H19A15107   0.834   7.443   6.164  1.1392 -3.5507 -3.4754
  120CHL1  H19B15108   0.663   7.428   6.123  1.3411 -1.3581 -0.1705
  120CHL1  H19C15109   0.711   7.449   6.294 -0.6263  1.6026 -0.6045
  120CHL1    C115110   0.611   7.186   6.224  0.6474 -0.1509 -0.0862
  120CHL1   H1A15111   0.542   7.238   6.154 -1.7926 -1.7104  1.0218
  120CHL1   H1B15112   0.607   7.078   6.199  1.2581 -0.5152  1.3071
  120CHL1    C215113   0.566   7.197   6.363  0.1679 -0.0548 -0.5490
  120CHL1   H2A15114   0.468   7.146   6.374  0.2196  0.0633  0.5703
  120CHL1   H2B15115   0.553   7.304   6.386  3.3046  0.3037  0.0786
  120CHL1   C2015116   1.014   7.274   5.539  0.0676  0.1229 -0.4529
  120CHL1   H2015117   1.037   7.382   5.551 -0.8789  0.0648  2.9931
  120CHL1   C2115118   0.878   7.263   5.480  0.0994 -0.1130 -0.1428
  120CHL1  H21A15119   0.875   7.297   5.374  1.2334  0.4251 -0.0222
  120CHL1  H21B15120   0.816   7.339   5.530  1.1684 -0.0016  1.0615
  120CHL1  H21C15121   0.833   7.162   5.494  1.0383 -0.2614  2.1185
  120CHL1   C2215122   1.113   7.211   5.428  0.5072  0.4578  0.3010
  120CHL1  H22A15123   1.095   7.261   5.331  3.5244  0.6941 -0.2379
  120CHL1  H22B15124   1.215   7.245   5.457  0.7918  1.8796 -2.1161
  120CHL1   C2315125   1.119   7.057   5.418  0.7646 -0.3721 -0.5653
  120CHL1  H23A15126   1.122   7.008   5.518 -2.4547 -1.3283 -0.8121
  120CHL1  H23B15127   1.021   7.024   5.377  0.4046  2.4274 -2.1701
  120CHL1   C2415128   1.215   7.004   5.312  0.4936 -0.3995  0.0923
  120CHL1  H24A15129   1.176   7.045   5.217  1.0573 -1.0586 -0.4371
  120CHL1  H24B15130   1.314   7.045   5.339  0.2045  0.2206  0.2241
  120CHL1   C2515131   1.216   6.850   5.290 -0.1715 -0.2973 -0.2267
  120CHL1   H2515132   1.113   6.811   5.277 -0.5858  0.2929  1.0568
  120CHL1   C2615133   1.292   6.820   5.157  0.0554 -0.5669 -0.9325
  120CHL1  H26A15134   1.254   6.882   5.073 -0.0762  1.7833  0.7697
  120CHL1  H26B15135   1.400   6.844   5.172 -0.2673 -0.3026  1.2258
  120CHL1  H26C15136   1.277   6.713   5.128  0.5450 -1.3989  1.6048
  120CHL1   C2715137   1.286   6.781   5.405  0.3801  0.3779 -0.0417
  120CHL1  H27A15138   1.237   6.801   5.503  0.8402  0.3633  0.1918
  120CHL1  H27B15139   1.290   6.673   5.383 -2.1953  0.0129  0.8387
  120CHL1  H27C15140   1.387   6.826   5.411  1.1937 -1.3245 -0.6745
  121CHL1    C315141   5.842   3.982   3.684 -0.1196 -0.4185  0.8863
  121CHL1    H315142   5.921   3.905   3.700  0.4951 -1.0867 -3.9810
  121CHL1    O315143   5.806   3.989   3.552 -0.0184  0.0298  0.7684
  121CHL1   H3'15144   5.886   4.005   3.501 -0.9575 -0.1314 -0.8465
  121CHL1    C415145   5.716   3.935   3.757  0.0839 -0.0191  0.1946
  121CHL1   H4A15146   5.638   4.012   3.735  0.2378 -0.0700 -0.5879
  121CHL1   H4B15147   5.679   3.844   3.704  0.5341 -0.3176  0.3900
  121CHL1    C515148   5.741   3.919   3.908 -0.4291  0.1743  0.3062
  121CHL1    C615149   5.721   3.805   3.972  0.1146  0.4674 -0.1397
  121CHL1    H615150   5.695   3.713   3.918  1.0810 -0.4114  0.8457
  121CHL1    C715151   5.745   3.792   4.121 -0.6525  0.2595  0.3908
  121CHL1   H7A15152   5.662   3.732   4.164 -0.6982 -0.1400 -0.2398
  121CHL1   H7B15153   5.834   3.730   4.145 -3.5659 -4.5433  0.1225
  121CHL1    C815154   5.765   3.920   4.202  0.1979 -0.4051 -0.2699
  121CHL1    H815155   5.663   3.963   4.214  0.5575  0.7527 -1.1912
  121CHL1   C1415156   5.818   3.893   4.340  0.1279 -0.2518 -0.6341
  121CHL1   H1415157   5.915   3.841   4.325  0.6613  0.0993  1.2777
  121CHL1   C1515158   5.756   3.795   4.436 -0.3598  0.4139 -0.0638
  121CHL1  H15A15159   5.646   3.808   4.446 -0.6062  0.9049 -2.7050
  121CHL1  H15B15160   5.771   3.693   4.395 -0.2669  0.0517  0.8417
  121CHL1   C1615161   5.819   3.815   4.573 -0.1414 -0.3978  0.6108
  121CHL1  H16A15162   5.740   3.826   4.651  1.5715 -2.2755  2.7829
  121CHL1  H16B15163   5.896   3.742   4.607  2.7931  1.8316 -0.8907
  121CHL1   C1715164   5.897   3.951   4.563  0.0516 -1.1683  0.4331
  121CHL1   H1715165   6.005   3.938   4.542  0.4830  0.9350  1.1280
  121CHL1   C1315166   5.853   4.020   4.423 -0.0517  0.2073 -0.7706
  121CHL1   C1815167   5.717   4.092   4.455  0.3738 -0.1902  0.5443
  121CHL1  H18A15168   5.730   4.175   4.528  2.1201  1.1194 -1.1614
  121CHL1  H18B15169   5.660   4.145   4.376  0.4688 -0.0700  0.5554
  121CHL1  H18C15170   5.645   4.021   4.501  0.8820 -1.3622 -0.4182
  121CHL1   C1215171   5.954   4.114   4.341 -0.7816  0.5555 -0.4025
  121CHL1  H12A15172   5.970   4.211   4.392  0.4505  0.4678 -0.5890
  121CHL1  H12B15173   6.047   4.052   4.335 -2.4751 -2.3184  0.7338
  121CHL1   C1115174   5.879   4.142   4.198 -0.8739 -0.2031 -1.1061
  121CHL1  H11A15175   5.794   4.212   4.211 -0.8798 -0.4119  0.1727
  121CHL1  H11B15176   5.959   4.191   4.137  1.5753 -0.0531  1.9318
  121CHL1    C915177   5.845   4.012   4.121 -0.2377  0.2912  1.4328
  121CHL1    H915178   5.941   3.957   4.115 -0.6218 -0.3472  1.0282
  121CHL1   C1015179   5.798   4.039   3.978 -0.2377 -0.5875  0.0882
  121CHL1   C1915180   5.695   4.153   3.978 -0.0281 -0.3627  0.2847
  121CHL1  H19A15181   5.606   4.119   4.037 -0.3317  0.9627  0.6104
  121CHL1  H19B15182   5.733   4.255   3.995 -0.3325 -0.1244 -0.3999
  121CHL1  H19C15183   5.654   4.164   3.875  2.5457 -1.5157 -0.9508
  121CHL1    C115184   5.921   4.104   3.891  0.5091  0.0678 -0.5575
  121CHL1   H1A15185   5.933   4.209   3.924  0.1822 -0.0321 -0.1209
  121CHL1   H1B15186   6.007   4.036   3.913  1.4271  1.5183  0.5081
  121CHL1    C215187   5.888   4.117   3.740  0.0728 -0.0933  0.2528
  121CHL1   H2A15188   5.982   4.146   3.688  0.4958 -1.5057  0.1712
  121CHL1   H2B15189   5.814   4.198   3.729 -0.0479  0.3097  3.2254
  121CHL1   C2015190   5.887   4.029   4.689  0.0701 -0.3724 -0.3962
  121CHL1   H2015191   5.779   4.055   4.702 -0.0429 -0.8166 -0.4489
  121CHL1   C2115192   5.964   4.162   4.676  0.1195  0.2363 -0.3379
  121CHL1  H21A15193   6.074   4.171   4.665 -0.0238  1.4746 -0.9890
  121CHL1  H21B15194   5.932   4.228   4.759 -0.6438 -0.3875 -0.1288
  121CHL1  H21C15195   5.941   4.222   4.586  2.6340  0.2598 -1.0469
  121CHL1   C2215196   5.927   3.945   4.815 -1.0881  0.1349  0.5736
  121CHL1  H22A15197   5.902   3.838   4.801  0.6122 -0.3822  1.2590
  121CHL1  H22B15198   6.038   3.955   4.820 -1.0524  1.3057 -1.3770
  121CHL1   C2315199   5.872   4.000   4.941  0.7477  0.0952 -0.2453
  121CHL1  H23A15200   5.905   4.104   4.962 -0.2083  0.1409  1.1353
  121CHL1  H23B15201   5.761   3.994   4.934  0.7602  1.3478 -2.1274
  121CHL1   C2415202   5.914   3.926   5.072 -0.0945 -0.7282  0.8443
  121CHL1  H24A15203   5.892   3.819   5.054 -0.1244 -0.4474 -0.9994
  121CHL1  H24B15204   6.025   3.927   5.082 -0.1673 -0.2512  1.6825
  121CHL1   C2515205   5.847   3.988   5.192 -0.3846  0.4716 -0.1492
  121CHL1   H2515206   5.823   4.094   5.170 -0.2910  0.9797  2.0288
  121CHL1   C2615207   5.719   3.910   5.222 -0.7139 -0.4427  0.4415
  121CHL1  H26A15208   5.737   3.802   5.245  0.2057 -0.5530 -0.6929
  121CHL1  H26B15209   5.672   3.948   5.315 -0.7998 -0.2263  0.3085
  121CHL1  H26C15210   5.650   3.905   5.135 -0.3119  1.6116 -0.0466
  121CHL1   C2715211   5.940   3.977   5.315 -0.3872 -0.2665  0.5641
  121CHL1  H27A15212   5.876   3.992   5.404 -0.7080  0.1113  0.2760
  121CHL1  H27B15213   5.983   3.874   5.311  0.5169  0.1181 -0.1291
  121CHL1  H27C15214   6.025   4.048   5.328 -0.5607 -0.3396  2.3182
  122CHL1    C315215   4.596   2.072   3.444 -1.1030  0.2268 -0.2718
  122CHL1    H315216   4.566   2.179   3.448  0.6544  0.7259  0.7200
  122CHL1    O315217   4.532   2.012   3.329  0.2854  0.0024  0.2883
  122CHL1   H3'15218   4.608   1.996   3.273 -0.7911 -1.5726 -0.8095
  122CHL1    C415219   4.753   2.095   3.430  1.0702 -0.4005 -0.1479
  122CHL1   H4A15220   4.800   2.000   3.397  1.2154  0.1025 -1.4565
  122CHL1   H4B15221   4.780   2.164   3.347  1.1434  0.3432  0.4797
  122CHL1    C515222   4.813   2.147   3.560 -0.3582  0.0520 -0.0534
  122CHL1    C615223   4.896   2.250   3.557 -0.0350 -0.1746  0.4209
  122CHL1    H615224   4.929   2.287   3.459  1.5675 -0.0019  0.9793
  122CHL1    C715225   4.964   2.306   3.683  0.1814  0.2671 -0.3558
  122CHL1   H7A15226   5.073   2.319   3.670  0.1546  1.2456  0.2851
  122CHL1   H7B15227   4.921   2.406   3.707 -1.4611  0.1150 -2.3823
  122CHL1    C815228   4.948   2.210   3.805 -0.1249  0.2756  0.0196
  122CHL1    H815229   5.019   2.125   3.794 -0.9261 -0.1962 -2.0028
  122CHL1   C1415230   4.988   2.277   3.935  0.9058 -0.1776  0.1217
  122CHL1   H1415231   4.921   2.365   3.944  0.7190 -0.2637 -0.4045
  122CHL1   C1515232   5.126   2.342   3.926  0.8621 -0.3014  0.4074
  122CHL1  H15A15233   5.202   2.279   3.874 -0.0074 -1.5162  0.5666
  122CHL1  H15B15234   5.120   2.445   3.885  0.9406  0.7389  2.8683
  122CHL1   C1615235   5.160   2.363   4.074  0.4121 -0.3266  0.0676
  122CHL1  H16A15236   5.261   2.321   4.094  0.3040 -1.4039 -1.4920
  122CHL1  H16B15237   5.149   2.472   4.093 -2.3104 -0.7644  1.5303
  122CHL1   C1715238   5.048   2.296   4.158 -0.3809  0.2417  0.3651
  122CHL1   H1715239   4.969   2.373   4.172 -1.1446 -0.5181  0.3261
  122CHL1   C1315240   4.978   2.201   4.066 -0.5116  0.0602  0.2205
  122CHL1   C1815241   5.066   2.075   4.056 -0.3083  0.5811 -0.0355
  122CHL1  H18A15242   5.034   2.005   3.976 -1.9516  0.2183  0.8971
  122CHL1  H18B15243   5.173   2.099   4.034 -0.1696  0.3373  0.3543
  122CHL1  H18C15244   5.082   2.024   4.154  1.5442  2.9270  0.9860
  122CHL1   C1215245   4.832   2.164   4.086  0.8539 -0.1786  0.7716
  122CHL1  H12A15246   4.810   2.104   4.177  1.6333  0.0739  1.1384
  122CHL1  H12B15247   4.774   2.259   4.086 -0.8991 -1.0908 -2.8155
  122CHL1   C1115248   4.778   2.081   3.957 -0.1813 -0.9309 -0.6135
  122CHL1  H11A15249   4.835   1.986   3.950 -1.3361 -1.7197  0.1663
  122CHL1  H11B15250   4.670   2.062   3.977 -0.2645 -0.3892 -0.5370
  122CHL1    C915251   4.804   2.168   3.824  0.1627  0.7112 -0.1449
  122CHL1    H915252   4.737   2.257   3.833 -1.2779 -0.5263  2.1580
  122CHL1   C1015253   4.757   2.087   3.695  0.2324  0.2675  0.1345
  122CHL1   C1915254   4.826   1.946   3.693 -0.5449 -0.0210 -0.3211
  122CHL1  H19A15255   4.802   1.890   3.600  0.0001  1.6542 -1.5341
  122CHL1  H19B15256   4.936   1.950   3.683 -0.5654  0.9865 -0.2706
  122CHL1  H19C15257   4.787   1.891   3.781  3.1129 -0.3476  1.2832
  122CHL1    C115258   4.598   2.061   3.694 -0.5845 -0.4225 -0.6067
  122CHL1   H1A15259   4.588   1.997   3.784  3.9642 -2.0015 -0.9593
  122CHL1   H1B15260   4.541   2.156   3.708  0.3118  0.0592 -0.1294
  122CHL1    C215261   4.542   1.995   3.569  0.2126 -0.0717  0.1519
  122CHL1   H2A15262   4.431   1.995   3.555  0.4541  2.0656 -2.5204
  122CHL1   H2B15263   4.567   1.887   3.558 -0.4914 -0.3857  1.4029
  122CHL1   C2015264   5.092   2.262   4.301 -0.2543  0.0709 -0.1662
  122CHL1   H2015265   5.185   2.202   4.294 -1.5765 -2.0375 -0.5823
  122CHL1   C2115266   4.980   2.189   4.382 -0.1299  0.1317  0.1500
  122CHL1  H21A15267   4.943   2.097   4.334 -0.1019 -0.4195  1.1564
  122CHL1  H21B15268   4.898   2.258   4.413 -0.6669 -0.4649  0.0852
  122CHL1  H21C15269   5.020   2.155   4.480  0.8044  1.8103  0.3947
  122CHL1   C2215270   5.128   2.391   4.381  0.7146 -0.7767  0.3441
  122CHL1  H22A15271   5.205   2.444   4.322  0.0855  0.1682  0.3603
  122CHL1  H22B15272   5.044   2.464   4.384  0.8487 -0.6211  0.2973
  122CHL1   C2315273   5.184   2.379   4.523  0.4020 -0.9924 -0.1137
  122CHL1  H23A15274   5.102   2.331   4.580  0.7396  0.4098  1.6293
  122CHL1  H23B15275   5.279   2.321   4.519  0.3676 -1.0671  0.1628
  122CHL1   C2415276   5.208   2.518   4.579 -0.1563  0.5839 -0.2472
  122CHL1  H24A15277   5.294   2.571   4.534  1.7787 -0.7234  1.6969
  122CHL1  H24B15278   5.120   2.582   4.558 -0.2015  0.6993  0.2814
  122CHL1   C2515279   5.216   2.501   4.731  0.3843  0.4544 -0.3158
  122CHL1   H2515280   5.130   2.445   4.775  0.0409  2.5227  1.8449
  122CHL1   C2615281   5.347   2.432   4.773 -0.8765  0.0568 -0.3909
  122CHL1  H26A15282   5.440   2.483   4.741 -0.8751  0.4791  0.2636
  122CHL1  H26B15283   5.351   2.423   4.884 -1.8460 -0.0452 -0.3513
  122CHL1  H26C15284   5.350   2.330   4.727 -0.5896  0.2457 -0.7932
  122CHL1   C2715285   5.201   2.632   4.805 -0.1832 -0.0054  0.4965
  122CHL1  H27A15286   5.199   2.613   4.915  0.1965  2.5164  1.0013
  122CHL1  H27B15287   5.278   2.705   4.772  0.2279 -0.2022  0.9993
  122CHL1  H27C15288   5.102   2.678   4.788  0.1763  1.0533  1.1371
  123CHL1    C315289   7.212   4.160   3.604 -0.8953 -0.2705  0.0254
  123CHL1    H315290   7.283   4.094   3.658 -0.3625 -0.6057 -1.0526
  123CHL1    O315291   7.225   4.136   3.465 -0.5407 -0.2186  0.0986
  123CHL1   H3'15292   7.163   4.066   3.445 -1.6459  0.8549 -0.3637
  123CHL1    C415293   7.063   4.129   3.639 -0.4126  0.1545 -0.2845
  123CHL1   H4A15294   7.001   4.176   3.560 -0.3038 -0.0312 -0.4825
  123CHL1   H4B15295   7.051   4.020   3.619  0.9712 -0.0424 -0.1611
  123CHL1    C515296   7.015   4.167   3.776  0.0580 -0.1253  0.3346
  123CHL1    C615297   6.957   4.087   3.861 -0.2864 -0.0781  0.3718
  123CHL1    H615298   6.936   3.987   3.821 -1.2468  1.0824 -2.2532
  123CHL1    C715299   6.910   4.130   4.000  0.2974  0.0877 -0.3508
  123CHL1   H7A15300   6.813   4.086   4.033  0.0063 -1.7310 -3.3118
  123CHL1   H7B15301   6.970   4.091   4.086 -2.0482  0.9810  1.8084
  123CHL1    C815302   6.903   4.284   4.015 -0.3115  0.2670  0.4892
  123CHL1    H815303   6.813   4.312   3.956 -0.2324 -1.4828 -0.5126
  123CHL1   C1415304   6.895   4.327   4.159 -0.5504 -0.3789  0.1810
  123CHL1   H1415305   6.986   4.289   4.210 -1.6157 -1.0831  1.6196
  123CHL1   C1515306   6.776   4.275   4.237 -0.6623  0.4544  0.4387
  123CHL1  H15A15307   6.694   4.268   4.163  0.0133  1.5903 -0.4377
  123CHL1  H15B15308   6.792   4.169   4.266 -2.4218  0.3148  1.0428
  123CHL1   C1615309   6.772   4.362   4.361 -0.4851 -0.1507 -0.3999
  123CHL1  H16A15310   6.666   4.395   4.367 -1.6669 -3.7079  1.0825
  123CHL1  H16B15311   6.801   4.306   4.453  0.5620  0.9739 -0.0151
  123CHL1   C1715312   6.867   4.484   4.333 -0.0554 -0.4801  1.1300
  123CHL1   H1715313   6.961   4.454   4.382  0.3060  0.1516  0.8392
  123CHL1   C1315314   6.887   4.481   4.179 -0.9475  0.1132  0.7935
  123CHL1   C1815315   6.761   4.542   4.115  0.2418  0.2033  0.7611
  123CHL1  H18A15316   6.762   4.514   4.007  1.6118  2.1499  0.2216
  123CHL1  H18B15317   6.669   4.495   4.155 -1.5208  1.8903 -1.0775
  123CHL1  H18C15318   6.750   4.652   4.114 -0.8228  0.1110 -0.3795
  123CHL1   C1215319   7.022   4.543   4.124  0.0822  1.1007 -0.2850
  123CHL1  H12A15320   7.027   4.652   4.140 -0.9834  0.9473  1.3142
  123CHL1  H12B15321   7.100   4.483   4.175  0.1249  2.2884  1.0984
  123CHL1   C1115322   7.036   4.509   3.976  0.2315 -0.1843  0.2536
  123CHL1  H11A15323   6.950   4.556   3.925  1.5986  0.6307 -1.4231
  123CHL1  H11B15324   7.126   4.557   3.931 -1.3003  1.5717 -1.0558
  123CHL1    C915325   7.028   4.350   3.954  0.2084 -0.1442  0.5218
  123CHL1    H915326   7.118   4.309   4.004  0.2891 -0.7662 -0.1084
  123CHL1   C1015327   7.051   4.316   3.803  0.8287  0.9303 -0.4029
  123CHL1   C1915328   6.948   4.402   3.718  0.3794  0.0524 -0.2973
  123CHL1  H19A15329   6.844   4.403   3.758  0.6333  0.8317  0.3582
  123CHL1  H19B15330   6.973   4.510   3.712  1.4022 -0.1732 -0.2775
  123CHL1  H19C15331   6.935   4.370   3.612  1.2974  1.0425 -0.7348
  123CHL1    C115332   7.198   4.344   3.773  0.7875  0.2758  0.5178
  123CHL1   H1A15333   7.231   4.446   3.801  0.4500 -0.0587  2.2386
  123CHL1   H1B15334   7.256   4.278   3.841  0.7413  2.2521  2.5726
  123CHL1    C215335   7.247   4.309   3.627  0.3495  0.3617 -0.2329
  123CHL1   H2A15336   7.356   4.310   3.610  0.0038 -2.2982 -3.9278
  123CHL1   H2B15337   7.205   4.387   3.560 -1.6572 -0.3981  0.0411
  123CHL1   C2015338   6.814   4.614   4.407  0.2618  0.3165  0.5179
  123CHL1   H2015339   6.730   4.650   4.343 -0.4595 -2.0468  0.0366
  123CHL1   C2115340   6.925   4.727   4.397  0.9037  0.8672 -0.3635
  123CHL1  H21A15341   6.899   4.823   4.447 -1.1951 -0.0864  0.5020
  123CHL1  H21B15342   6.950   4.747   4.290  0.2591  1.0418 -0.4857
  123CHL1  H21C15343   7.012   4.684   4.450 -0.5647  1.1113  2.4262
  123CHL1   C2215344   6.766   4.585   4.548  0.7448  0.3869 -0.4503
  123CHL1  H22A15345   6.728   4.677   4.598  0.8972 -0.3803  1.1451
  123CHL1  H22B15346   6.683   4.512   4.554  0.1381  1.1654  1.0285
  123CHL1   C2315347   6.872   4.537   4.648 -0.8427  0.2816 -0.3724
  123CHL1  H23A15348   6.911   4.439   4.612 -1.3391 -1.2738  2.9785
  123CHL1  H23B15349   6.968   4.591   4.660  0.2027 -1.8947  1.8634
  123CHL1   C2415350   6.810   4.501   4.788 -0.3637  0.0979  1.0465
  123CHL1  H24A15351   6.766   4.591   4.836 -0.4203  0.2913  0.6309
  123CHL1  H24B15352   6.731   4.426   4.767 -0.1685  0.3639 -0.7624
  123CHL1   C2515353   6.921   4.441   4.886 -0.0450  0.6107  0.4980
  123CHL1   H2515354   6.959   4.348   4.838 -3.9807 -0.9761  0.1322
  123CHL1   C2615355   7.031   4.538   4.930  0.2243  0.1522  0.4779
  123CHL1  H26A15356   7.104   4.486   4.996  0.9727  0.4441 -0.0978
  123CHL1  H26B15357   7.093   4.579   4.847  2.2598 -4.1268 -0.3728
  123CHL1  H26C15358   6.987   4.621   4.990 -1.8829 -0.1704 -0.5191
  123CHL1   C2715359   6.850   4.380   5.006  0.4641  0.5077 -0.8688
  123CHL1  H27A15360   6.914   4.310   5.063  1.6538  0.9572 -1.6264
  123CHL1  H27B15361   6.830   4.468   5.072  0.4936 -0.4882  0.5164
  123CHL1  H27C15362   6.749   4.338   4.989 -0.0178  1.4218 -0.3643
  124CHL1    C315363   5.030   5.142   3.385  0.8823  0.6834 -0.1889
  124CHL1    H315364   5.076   5.223   3.325  0.8206  0.1179 -1.0144
  124CHL1    O315365   5.033   5.027   3.307 -0.1174  0.5444  0.5645
  124CHL1   H3'15366   4.995   4.954   3.357 -1.3198  0.4091 -0.4802
  124CHL1    C415367   5.110   5.112   3.513 -0.3979 -0.7337  0.6625
  124CHL1   H4A15368   5.073   5.021   3.564 -2.8270 -0.3434 -0.2536
  124CHL1   H4B15369   5.214   5.091   3.482  0.3614  3.0605  0.1161
  124CHL1    C515370   5.100   5.231   3.605 -0.3181 -0.6074  0.2079
  124CHL1    C615371   5.214   5.291   3.646 -0.2585  0.8181 -0.3166
  124CHL1    H615372   5.309   5.245   3.614 -0.1109 -0.5481  1.9235
  124CHL1    C715373   5.218   5.405   3.746  0.7582  0.1211  0.9639
  124CHL1   H7A15374   5.288   5.373   3.826  1.4779 -1.6304 -0.3018
  124CHL1   H7B15375   5.252   5.495   3.691  1.9771  0.0333  1.5492
  124CHL1    C815376   5.079   5.432   3.808  0.1664  0.0756  0.0772
  124CHL1    H815377   5.062   5.341   3.870 -0.1569  0.0571 -0.0351
  124CHL1   C1415378   5.086   5.555   3.894  0.5397  0.0284  0.0633
  124CHL1   H1415379   5.103   5.634   3.818  3.2739 -1.2738 -0.7918
  124CHL1   C1515380   5.187   5.572   3.997  0.8568  0.5021  0.3262
  124CHL1  H15A15381   5.180   5.479   4.058  0.4790  1.0366  1.1148
  124CHL1  H15B15382   5.290   5.583   3.957  1.4259 -1.1949  1.2117
  124CHL1   C1615383   5.138   5.692   4.086  0.4021  0.1166  0.0379
  124CHL1  H16A15384   5.156   5.658   4.191  1.2303  0.3257 -0.0311
  124CHL1  H16B15385   5.193   5.783   4.052  1.1863 -0.8463 -1.3750
  124CHL1   C1715386   4.984   5.709   4.047 -0.0579  0.0495  0.1728
  124CHL1   H1715387   4.981   5.791   3.973  0.2453 -0.4152 -0.3620
  124CHL1   C1315388   4.945   5.583   3.964 -0.0175 -0.2804  1.3572
  124CHL1   C1815389   4.901   5.475   4.066 -0.2614 -0.0575  0.2159
  124CHL1  H18A15390   4.800   5.495   4.107 -0.8428  1.0182 -1.6064
  124CHL1  H18B15391   4.902   5.376   4.015  2.2690 -0.4764  0.9297
  124CHL1  H18C15392   4.985   5.484   4.138  0.4888 -2.0140 -0.3383
  124CHL1   C1215393   4.844   5.605   3.843  0.1279 -0.1446  0.3091
  124CHL1  H12A15394   4.750   5.639   3.893  0.1931  0.4857  0.0181
  124CHL1  H12B15395   4.884   5.691   3.785  0.2063  0.4820  1.2566
  124CHL1   C1115396   4.830   5.477   3.766 -1.0358  0.1669  1.1362
  124CHL1  H11A15397   4.781   5.401   3.829 -1.4741 -0.8545 -0.3688
  124CHL1  H11B15398   4.764   5.495   3.678 -0.6565 -1.2099  0.5522
  124CHL1    C915399   4.964   5.422   3.705  0.2705  0.1439  0.0667
  124CHL1    H915400   4.993   5.497   3.629 -1.9108 -0.5039 -1.4844
  124CHL1   C1015401   4.955   5.278   3.641 -0.4884  0.0422 -0.5841
  124CHL1   C1915402   4.882   5.176   3.749  0.4793  0.1766 -0.1380
  124CHL1  H19A15403   4.778   5.208   3.768  1.3811  2.4003  1.5889
  124CHL1  H19B15404   4.887   5.078   3.698  1.8937  0.3769 -0.4281
  124CHL1  H19C15405   4.937   5.157   3.844  0.5218 -2.1251 -0.5648
  124CHL1    C115406   4.876   5.295   3.507  1.3782 -0.5526  0.0291
  124CHL1   H1A15407   4.768   5.312   3.531  1.8823 -0.0904  2.1805
  124CHL1   H1B15408   4.916   5.388   3.461 -2.2344  0.6409 -1.0215
  124CHL1    C215409   4.887   5.172   3.418 -0.2447  0.4713  0.8194
  124CHL1   H2A15410   4.828   5.193   3.326  2.1068  0.5011 -0.7708
  124CHL1   H2B15411   4.836   5.093   3.478 -2.0498  2.2910  1.8352
  124CHL1   C2015412   4.893   5.751   4.166 -0.7127 -0.0337  0.5062
  124CHL1   H2015413   4.875   5.663   4.233  2.3565 -1.7106 -0.6834
  124CHL1   C2115414   4.759   5.802   4.109  0.1983 -0.3159  0.5078
  124CHL1  H21A15415   4.686   5.725   4.077 -2.5774  2.2594  0.1309
  124CHL1  H21B15416   4.769   5.870   4.022  1.0504 -1.2304 -0.1275
  124CHL1  H21C15417   4.702   5.857   4.188  1.9628 -1.3399  2.6294
  124CHL1   C2215418   4.955   5.866   4.250 -0.0642  0.2870 -0.0586
  124CHL1  H22A15419   4.891   5.879   4.340 -1.0287 -0.2651 -0.6443
  124CHL1  H22B15420   5.055   5.839   4.289 -0.9035 -1.5018  1.0022
  124CHL1   C2315421   4.967   6.011   4.179 -0.0598  0.3944  0.0723
  124CHL1  H23A15422   5.050   6.053   4.239 -0.0453 -0.1023  0.4041
  124CHL1  H23B15423   5.003   6.006   4.074  0.0291  0.7697  0.0824
  124CHL1   C2415424   4.842   6.100   4.198  0.5240  0.7550 -0.0978
  124CHL1  H24A15425   4.766   6.088   4.119  0.9610  0.6056 -0.5019
  124CHL1  H24B15426   4.792   6.068   4.291 -1.4167  1.7581 -0.7474
  124CHL1   C2515427   4.867   6.254   4.221  0.2407  0.0192 -0.1190
  124CHL1   H2515428   4.929   6.269   4.312 -1.5895  1.2698  0.9964
  124CHL1   C2615429   4.942   6.334   4.113 -0.4156 -0.2302 -0.0046
  124CHL1  H26A15430   5.028   6.275   4.077 -0.0339 -0.9066  1.8976
  124CHL1  H26B15431   4.873   6.346   4.027 -0.1595 -1.3525 -0.3742
  124CHL1  H26C15432   4.992   6.426   4.150  0.6692 -0.6332 -0.4305
  124CHL1   C2715433   4.732   6.317   4.260  0.5057 -0.4938  0.1260
  124CHL1  H27A15434   4.681   6.270   4.347 -0.1474 -2.9796 -1.4928
  124CHL1  H27B15435   4.739   6.427   4.270  0.5740 -0.4581 -0.2969
  124CHL1  H27C15436   4.671   6.290   4.171  0.7030 -0.5018 -0.0063
  125CHL1    C315437   5.338   4.953   3.844 -0.3824 -0.2133 -0.2859
  125CHL1    H315438   5.392   4.862   3.879 -1.1542 -0.1646  1.0731
  125CHL1    O315439   5.354   4.984   3.712  0.2521  0.1675  0.2676
  125CHL1   H3'15440   5.311   4.909   3.672  2.2224 -1.0019  0.2559
  125CHL1    C415441   5.190   4.964   3.878 -0.4680  0.4894 -0.0912
  125CHL1   H4A15442   5.157   5.069   3.865  0.3309  0.7624  0.0080
  125CHL1   H4B15443   5.125   4.913   3.804  0.6902  1.8456 -2.1401
  125CHL1    C515444   5.165   4.929   4.024  0.0541 -1.0754 -0.1226
  125CHL1    C615445   5.087   4.825   4.053  0.0153 -0.3890 -0.0719
  125CHL1    H615446   5.014   4.782   3.982 -1.0350 -0.4061  0.9759
  125CHL1    C715447   5.062   4.790   4.198 -0.1886 -0.0880 -0.4667
  125CHL1   H7A15448   4.952   4.785   4.213 -0.1066  1.1757  0.7693
  125CHL1   H7B15449   5.098   4.685   4.210  0.0511 -0.0345 -0.7162
  125CHL1    C815450   5.122   4.881   4.306 -1.1273  0.0147 -0.7393
  125CHL1    H815451   5.059   4.968   4.333  0.1709 -0.4384  4.9983
  125CHL1   C1415452   5.146   4.808   4.441 -0.0273  0.9644 -0.0369
  125CHL1   H1415453   5.230   4.739   4.419 -1.4701 -1.0731  0.6044
  125CHL1   C1515454   5.037   4.711   4.481  0.2945  0.3601 -0.1737
  125CHL1  H15A15455   4.944   4.770   4.465 -0.1607 -0.7902 -2.2214
  125CHL1  H15B15456   5.014   4.619   4.422 -0.9948 -0.6117  1.7188
  125CHL1   C1615457   5.067   4.682   4.626  0.3771  0.2341 -1.0657
  125CHL1  H16A15458   4.970   4.707   4.673  0.3844 -1.1804 -0.2274
  125CHL1  H16B15459   5.087   4.574   4.647 -0.8673  0.2330  0.2423
  125CHL1   C1715460   5.184   4.779   4.665  0.1813  0.5915 -0.1304
  125CHL1   H1715461   5.274   4.719   4.638  0.1385 -0.7018  2.3507
  125CHL1   C1315462   5.185   4.891   4.564 -0.6390 -0.0399  0.6258
  125CHL1   C1815463   5.078   4.995   4.594  0.5518  0.0002 -0.3644
  125CHL1  H18A15464   5.123   5.061   4.671 -0.2901  2.0549 -1.5492
  125CHL1  H18B15465   5.054   5.064   4.510  1.6472  1.5030  0.5193
  125CHL1  H18C15466   4.986   4.940   4.623  1.2672 -1.0610 -0.0532
  125CHL1   C1215467   5.318   4.951   4.527 -0.3075  0.3970 -0.5091
  125CHL1  H12A15468   5.355   5.008   4.615  0.8172 -2.0348  0.7177
  125CHL1  H12B15469   5.386   4.864   4.516 -0.2821  0.6114 -2.2898
  125CHL1   C1115470   5.312   5.024   4.394 -0.2119 -0.5097 -0.0565
  125CHL1  H11A15471   5.249   5.113   4.417 -0.3299 -0.8529  1.0330
  125CHL1  H11B15472   5.415   5.059   4.370 -0.0227 -0.8247  0.2836
  125CHL1    C915473   5.254   4.941   4.275  0.4630  0.0002  0.7406
  125CHL1    H915474   5.321   4.853   4.261  0.6830  0.2217  0.3768
  125CHL1   C1015475   5.252   5.005   4.135  0.7537  0.5057  0.1569
  125CHL1   C1915476   5.184   5.151   4.139  0.5999 -0.0676  0.5603
  125CHL1  H19A15477   5.202   5.208   4.046  2.6944 -1.2246  0.1758
  125CHL1  H19B15478   5.076   5.144   4.163 -0.0331  2.2309 -1.3082
  125CHL1  H19C15479   5.225   5.220   4.216  1.8213 -0.7867  0.5772
  125CHL1    C115480   5.396   5.026   4.079  0.6641  0.3601 -0.1987
  125CHL1   H1A15481   5.442   5.105   4.142 -0.8148 -0.1094  1.5428
  125CHL1   H1B15482   5.454   4.934   4.104  0.4820  0.3833  0.3174
  125CHL1    C215483   5.411   5.061   3.930  0.4067  0.8988  0.0725
  125CHL1   H2A15484   5.514   5.081   3.896  0.9902  0.5780  1.5706
  125CHL1   H2B15485   5.355   5.156   3.915  1.0700  1.6887  2.2149
  125CHL1   C2015486   5.204   4.823   4.809  0.7750 -0.5110 -0.2882
  125CHL1   H2015487   5.259   4.919   4.805 -0.4609  0.1788 -1.6193
  125CHL1   C2115488   5.292   4.717   4.875 -0.6255  0.0245 -0.1665
  125CHL1  H21A15489   5.303   4.744   4.983 -1.1626 -3.1391  0.7770
  125CHL1  H21B15490   5.390   4.715   4.823 -0.9062 -1.9260 -0.6739
  125CHL1  H21C15491   5.251   4.614   4.872  0.7723 -0.5467 -0.5264
  125CHL1   C2215492   5.079   4.841   4.895  0.0352  0.1806  0.5416
  125CHL1  H22A15493   5.018   4.911   4.833 -0.3750 -1.2281 -0.7068
  125CHL1  H22B15494   5.028   4.744   4.909 -4.1119  1.9130 -0.9553
  125CHL1   C2315495   5.098   4.906   5.033  0.2631  0.0903 -0.2474
  125CHL1  H23A15496   4.994   4.910   5.072  0.3302  2.3960 -0.1819
  125CHL1  H23B15497   5.167   4.841   5.090 -0.1163  0.4452  0.6368
  125CHL1   C2415498   5.147   5.058   5.045  0.5369  0.3574 -0.2289
  125CHL1  H24A15499   5.231   5.078   4.976 -0.5841  2.8161 -0.9713
  125CHL1  H24B15500   5.066   5.127   5.014 -0.9732 -0.6762  1.1866
  125CHL1   C2515501   5.202   5.094   5.191  0.6730 -0.4228  0.4384
  125CHL1   H2515502   5.291   5.030   5.209  0.2690 -0.7065  1.5044
  125CHL1   C2615503   5.259   5.236   5.190 -0.9009  0.1197  0.2127
  125CHL1  H26A15504   5.323   5.260   5.103 -0.6960 -0.3009  0.2484
  125CHL1  H26B15505   5.182   5.316   5.179 -0.7167  0.6630  2.3329
  125CHL1  H26C15506   5.315   5.253   5.284  0.6047 -0.8231 -0.4922
  125CHL1   C2715507   5.105   5.072   5.310 -0.1835  0.8820  0.1624
  125CHL1  H27A15508   5.092   4.962   5.313  1.0665  0.6551 -1.2333
  125CHL1  H27B15509   5.144   5.103   5.409  0.3486  0.4760  0.0858
  125CHL1  H27C15510   5.006   5.120   5.297 -0.7016  0.3410  1.8982
  126CHL1    C315511   4.874   4.704   3.499 -0.6778  0.1332  0.3716
  126CHL1    H315512   4.765   4.694   3.478 -0.3687 -0.0485 -1.3113
  126CHL1    O315513   4.928   4.777   3.388 -0.2297 -0.4427 -0.7529
  126CHL1   H3'15514   5.016   4.738   3.381 -0.7430 -1.3750 -3.6870
  126CHL1    C415515   4.890   4.774   3.630 -0.4921 -0.2504  0.5648
  126CHL1   H4A15516   4.999   4.794   3.640  0.0228 -2.1570 -0.7236
  126CHL1   H4B15517   4.833   4.869   3.619 -1.6702 -1.2242 -2.8525
  126CHL1    C515518   4.858   4.689   3.749 -0.2786 -0.3093  0.0672
  126CHL1    C615519   4.777   4.722   3.848 -0.0340 -0.1920  0.3675
  126CHL1    H615520   4.722   4.817   3.854  2.1453  1.0540  2.2459
  126CHL1    C715521   4.743   4.643   3.977  0.5136 -0.1803 -0.3181
  126CHL1   H7A15522   4.757   4.703   4.070  0.4363 -1.2914  0.4358
  126CHL1   H7B15523   4.634   4.622   3.969 -0.1130  2.4195  0.4126
  126CHL1    C815524   4.840   4.524   3.996 -0.2038  0.0721 -0.9307
  126CHL1    H815525   4.944   4.554   4.021 -0.3928  0.6624 -0.8316
  126CHL1   C1415526   4.792   4.423   4.097 -0.4068 -0.0449 -0.5023
  126CHL1   H1415527   4.696   4.385   4.055 -0.8388  0.0934  0.3446
  126CHL1   C1515528   4.749   4.479   4.234  0.3261  0.1489 -0.5631
  126CHL1  H15A15529   4.834   4.540   4.271 -0.3829  1.2022 -0.6129
  126CHL1  H15B15530   4.658   4.543   4.242 -1.3602 -2.2718  0.8783
  126CHL1   C1615531   4.743   4.347   4.317 -0.2434  1.3940 -0.3163
  126CHL1  H16A15532   4.793   4.351   4.416 -1.3014  0.5352  0.2801
  126CHL1  H16B15533   4.639   4.313   4.334  0.5232  0.2690  2.9054
  126CHL1   C1715534   4.797   4.226   4.235 -0.3949 -0.1697 -0.9380
  126CHL1   H1715535   4.711   4.182   4.180 -3.6184  2.6449  1.3817
  126CHL1   C1315536   4.881   4.300   4.120  0.2471  0.0058 -0.0513
  126CHL1   C1815537   5.022   4.336   4.160 -0.2391 -0.2934 -0.8137
  126CHL1  H18A15538   5.081   4.242   4.158 -1.6747 -1.2414 -3.7270
  126CHL1  H18B15539   5.080   4.392   4.084  0.3875 -1.9444 -1.5866
  126CHL1  H18C15540   5.033   4.386   4.259 -0.7466 -0.4450 -0.6785
  126CHL1   C1215541   4.886   4.227   3.987 -0.1528 -0.3123 -0.3192
  126CHL1  H12A15542   4.945   4.133   3.982 -0.6649 -0.6007 -1.3322
  126CHL1  H12B15543   4.780   4.201   3.964 -0.5182  2.3234 -2.1246
  126CHL1   C1115544   4.943   4.314   3.874 -0.1174 -0.1671 -0.3845
  126CHL1  H11A15545   5.047   4.336   3.905 -0.5558  0.2067  0.8921
  126CHL1  H11B15546   4.946   4.261   3.776  1.4870 -1.1213  0.1485
  126CHL1    C915547   4.864   4.450   3.863 -0.4133  0.0784 -1.3379
  126CHL1    H915548   4.761   4.418   3.834 -1.5563  0.2329  2.0996
  126CHL1   C1015549   4.920   4.543   3.750 -0.4796  0.2861  0.3564
  126CHL1   C1915550   5.076   4.553   3.770  0.4629  0.2983 -0.4785
  126CHL1  H19A15551   5.113   4.649   3.728  1.5729 -0.0023 -0.2280
  126CHL1  H19B15552   5.103   4.547   3.878 -1.6080  3.1596  0.3102
  126CHL1  H19C15553   5.130   4.468   3.723  2.5924  2.7135 -2.7801
  126CHL1    C115554   4.890   4.477   3.612  0.2604  1.0256  0.0783
  126CHL1   H1A15555   4.950   4.383   3.614  0.4694  1.1514 -0.2152
  126CHL1   H1B15556   4.780   4.465   3.602  0.3547  1.6070 -2.0911
  126CHL1    C215557   4.927   4.562   3.492 -0.6747  0.5090  0.4111
  126CHL1   H2A15558   4.893   4.498   3.408  0.2768 -1.0880  1.1939
  126CHL1   H2B15559   5.038   4.571   3.493 -0.8150  2.9368  1.2756
  126CHL1   C2015560   4.869   4.122   4.319  0.4076 -0.3491 -0.3031
  126CHL1   H2015561   4.968   4.158   4.354  2.0777 -1.5903 -3.3651
  126CHL1   C2115562   4.912   4.001   4.237 -1.3712 -0.1593 -0.9556
  126CHL1  H21A15563   4.981   4.033   4.156  1.0641  2.8205  1.9485
  126CHL1  H21B15564   4.832   3.942   4.189  1.5415 -3.2991 -2.4027
  126CHL1  H21C15565   4.977   3.936   4.300 -0.6675  0.7055 -0.7653
  126CHL1   C2215566   4.788   4.075   4.448 -0.0462 -0.3990 -0.0646
  126CHL1  H22A15567   4.743   4.159   4.506 -0.3043  0.0646 -0.9124
  126CHL1  H22B15568   4.700   4.018   4.411 -0.9346 -1.1136  2.8921
  126CHL1   C2315569   4.858   3.995   4.566 -0.1499  0.0351  0.3107
  126CHL1  H23A15570   4.888   3.897   4.525  1.0279  0.3720  0.3410
  126CHL1  H23B15571   4.947   4.049   4.607 -0.1438  1.0178 -0.9345
  126CHL1   C2415572   4.763   3.966   4.692  0.6525  0.7680 -0.5536
  126CHL1  H24A15573   4.760   4.062   4.748 -1.6795  0.3450  0.1261
  126CHL1  H24B15574   4.660   3.935   4.663  0.0334 -0.7283  2.7168
  126CHL1   C2515575   4.804   3.854   4.793 -0.1466 -1.5613 -0.1570
  126CHL1   H2515576   4.836   3.763   4.737  1.6373 -1.8269  1.1981
  126CHL1   C2615577   4.937   3.898   4.870 -0.2270  0.3613 -0.2575
  126CHL1  H26A15578   4.963   3.816   4.940  0.3191  1.6684  1.1189
  126CHL1  H26B15579   5.016   3.923   4.796  0.7482  1.4330  1.0868
  126CHL1  H26C15580   4.920   3.990   4.931 -0.0195  0.8788 -0.9616
  126CHL1   C2715581   4.701   3.818   4.901 -0.4596 -0.4010  0.2539
  126CHL1  H27A15582   4.676   3.913   4.954 -1.3057  0.5944 -1.8298
  126CHL1  H27B15583   4.607   3.782   4.854 -0.0505  0.4665 -1.3039
  126CHL1  H27C15584   4.742   3.745   4.974  0.1530  0.4712  0.8035
  127CHL1    C315585   3.967   5.847   3.512  0.2526  0.8254 -0.5766
  127CHL1    H315586   3.998   5.741   3.502  1.3937  1.0620  0.2019
  127CHL1    O315587   3.970   5.908   3.384 -0.1784 -0.4045 -0.1043
  127CHL1   H3'15588   3.964   6.003   3.394  1.6084 -0.0855 -1.4884
  127CHL1    C415589   3.823   5.840   3.573  0.0680  0.4878  0.7509
  127CHL1   H4A15590   3.787   5.945   3.568  0.4446  0.6822  1.8500
  127CHL1   H4B15591   3.766   5.785   3.495  1.5635  0.5016 -0.3964
  127CHL1    C515592   3.812   5.779   3.712  0.7849  0.6212 -0.4342
  127CHL1    C615593   3.739   5.666   3.738  0.3748 -0.3664 -0.3247
  127CHL1    H615594   3.685   5.617   3.655  0.2054 -1.0450  0.1838
  127CHL1    C715595   3.726   5.602   3.871  0.2674 -0.7851 -0.0346
  127CHL1   H7A15596   3.620   5.569   3.883 -0.6951  1.6467 -1.3539
  127CHL1   H7B15597   3.792   5.513   3.884  2.4942  0.5049 -1.8861
  127CHL1    C815598   3.765   5.712   3.975  0.0046 -0.4817 -0.2087
  127CHL1    H815599   3.687   5.791   3.968 -0.5077 -1.0447 -1.0980
  127CHL1   C1415600   3.756   5.646   4.111 -0.6123 -0.4786  0.0165
  127CHL1   H1415601   3.823   5.557   4.109  0.7515  0.4977  0.7267
  127CHL1   C1515602   3.623   5.590   4.158 -0.0289 -0.3529  0.2238
  127CHL1  H15A15603   3.539   5.657   4.129 -0.8934 -2.0195 -1.3961
  127CHL1  H15B15604   3.591   5.493   4.114 -0.0684 -0.6360  0.8677
  127CHL1   C1615605   3.629   5.579   4.313 -0.4617 -0.7469  0.9282
  127CHL1  H16A15606   3.544   5.634   4.359 -0.9689 -0.5947 -0.1631
  127CHL1  H16B15607   3.622   5.473   4.347 -1.4971 -1.2708 -0.7803
  127CHL1   C1715608   3.771   5.642   4.339  0.5657 -0.0350  0.3013
  127CHL1   H1715609   3.850   5.565   4.326 -0.4490 -1.1542  0.6370
  127CHL1   C1315610   3.809   5.735   4.225 -0.3617 -0.1567 -0.0136
  127CHL1   C1815611   3.724   5.869   4.239 -0.0481  0.4874 -0.1114
  127CHL1  H18A15612   3.739   5.939   4.154  0.1441 -0.2773 -0.7213
  127CHL1  H18B15613   3.617   5.851   4.262 -0.8024  1.0523 -2.8854
  127CHL1  H18C15614   3.762   5.924   4.327 -2.8247  0.5463  1.1414
  127CHL1   C1215615   3.955   5.764   4.196 -0.4445 -0.0795 -0.2692
  127CHL1  H12A15616   4.010   5.823   4.271 -0.7013 -1.4866  1.0840
  127CHL1  H12B15617   4.005   5.665   4.195 -0.6173 -0.2045  0.9944
  127CHL1   C1115618   3.974   5.827   4.056 -0.5451 -0.6405  0.0993
  127CHL1  H11A15619   3.930   5.928   4.074 -0.6192 -0.5589 -0.5219
  127CHL1  H11B15620   4.081   5.842   4.032 -1.3234  2.6780 -1.9539
  127CHL1    C915621   3.908   5.761   3.939  0.4745  0.1097 -0.3266
  127CHL1    H915622   3.964   5.672   3.904  1.7017  0.0846  1.5715
  127CHL1   C1015623   3.904   5.850   3.813  0.1824  0.4131 -0.1375
  127CHL1   C1915624   3.839   5.987   3.841 -0.0182  0.4949 -0.2425
  127CHL1  H19A15625   3.830   6.052   3.752 -2.9070  1.4468  0.6444
  127CHL1  H19B15626   3.739   5.972   3.887 -0.4712 -0.7345 -1.5655
  127CHL1  H19C15627   3.895   6.051   3.913  2.2002 -2.7486  1.1660
  127CHL1    C115628   4.053   5.859   3.754  0.2059  0.5892 -0.6727
  127CHL1   H1A15629   4.119   5.924   3.815  1.0431  0.1452 -1.0816
  127CHL1   H1B15630   4.084   5.752   3.748 -0.9241  0.2103  0.0880
  127CHL1    C215631   4.061   5.919   3.609 -0.2536  0.0758 -0.7477
  127CHL1   H2A15632   4.158   5.900   3.559 -0.3761 -0.0020 -0.9579
  127CHL1   H2B15633   4.036   6.027   3.616  2.1802  0.6064  2.5577
  127CHL1   C2015634   3.781   5.689   4.485 -0.0752  0.8396  0.3910
  127CHL1   H2015635   3.704   5.768   4.500 -0.7935  0.5047 -1.3109
  127CHL1   C2115636   3.917   5.747   4.516 -0.3130 -0.6241  0.0011
  127CHL1  H21A15637   3.939   5.752   4.625 -0.6490 -2.8651  0.2098
  127CHL1  H21B15638   3.929   5.854   4.488 -1.6033 -0.9157 -1.8252
  127CHL1  H21C15639   4.004   5.707   4.461  0.0430  0.5165 -0.2930
  127CHL1   C2215640   3.739   5.583   4.588  0.1750  0.1755  0.3096
  127CHL1  H22A15641   3.739   5.624   4.692 -2.1719  1.6519 -0.1810
  127CHL1  H22B15642   3.635   5.546   4.570 -0.2012  0.9361  0.8723
  127CHL1   C2315643   3.825   5.449   4.600  0.4478  0.5079 -0.0220
  127CHL1  H23A15644   3.791   5.385   4.516 -1.8538  0.6184  0.7768
  127CHL1  H23B15645   3.933   5.471   4.580  0.7442 -0.6759  0.2236
  127CHL1   C2415646   3.782   5.380   4.728 -0.7551  0.4268 -0.2438
  127CHL1  H24A15647   3.816   5.432   4.820  0.2534 -1.8207  0.7203
  127CHL1  H24B15648   3.672   5.364   4.723 -0.3619 -2.4655 -2.4042
  127CHL1   C2515649   3.849   5.241   4.736  0.1822 -0.5604  0.3062
  127CHL1   H2515650   3.922   5.235   4.652 -0.0611  0.6856 -0.0006
  127CHL1   C2615651   3.941   5.231   4.855  0.1195  0.5843  0.0433
  127CHL1  H26A15652   4.016   5.313   4.847  1.1579 -0.3961 -0.7618
  127CHL1  H26B15653   3.881   5.246   4.947 -1.0064  3.5092 -1.0474
  127CHL1  H26C15654   4.001   5.138   4.866  2.5542  2.0973  0.4559
  127CHL1   C2715655   3.746   5.123   4.723  0.8948  0.2827  0.4153
  127CHL1  H27A15656   3.723   5.127   4.615  0.1638 -1.1965  0.4978
  127CHL1  H27B15657   3.788   5.021   4.739  0.7498  0.5242  2.7379
  127CHL1  H27C15658   3.661   5.131   4.794  1.3958  1.8306  0.8833
  128CHL1    C315659   3.352   1.354   3.236  0.0924  0.1333  0.1201
  128CHL1    H315660   3.242   1.342   3.242  0.2511 -0.5684  2.8844
  128CHL1    O315661   3.388   1.356   3.100  0.2328  0.2242  0.1663
  128CHL1   H3'15662   3.464   1.413   3.098 -0.9698  1.8895 -0.5044
  128CHL1    C415663   3.400   1.485   3.301  0.2320  0.7388  0.4355
  128CHL1   H4A15664   3.510   1.493   3.292  0.3346 -0.2282  0.6444
  128CHL1   H4B15665   3.358   1.571   3.246  0.5478  0.1328 -0.7830
  128CHL1    C515666   3.369   1.498   3.452 -0.1505  0.2427  1.2961
  128CHL1    C615667   3.290   1.590   3.509  0.8870 -0.0863  1.0963
  128CHL1    H615668   3.246   1.666   3.443 -0.8461 -2.9196 -1.2427
  128CHL1    C715669   3.269   1.604   3.655  0.6307 -0.3961  0.8023
  128CHL1   H7A15670   3.282   1.714   3.669  1.5566 -0.1926 -1.2606
  128CHL1   H7B15671   3.166   1.568   3.674 -0.7294  2.4325 -0.5120
  128CHL1    C815672   3.363   1.527   3.751 -0.4744 -0.3286  0.5744
  128CHL1    H815673   3.458   1.584   3.753 -0.1447 -0.8696  0.3624
  128CHL1   C1415674   3.298   1.518   3.892 -0.3663  0.0924  0.5448
  128CHL1   H1415675   3.198   1.470   3.880  0.1346 -1.2267  1.3672
  128CHL1   C1515676   3.254   1.642   3.964  0.8267 -0.5126 -1.0944
  128CHL1  H15A15677   3.336   1.716   3.962 -1.9167  2.8585  0.2213
  128CHL1  H15B15678   3.161   1.686   3.922 -1.0205 -1.1380  1.9773
  128CHL1   C1615679   3.231   1.581   4.109  0.0514 -0.6207  0.4473
  128CHL1  H16A15680   3.278   1.642   4.189 -1.1623  2.2993 -0.9072
  128CHL1  H16B15681   3.121   1.587   4.125 -0.1228 -2.0530 -0.0552
  128CHL1   C1715682   3.288   1.440   4.121 -0.3939  0.4358  0.2611
  128CHL1   H1715683   3.206   1.366   4.115  1.0615 -1.3657  1.6184
  128CHL1   C1315684   3.376   1.428   3.993 -1.0650  0.6925  1.3052
  128CHL1   C1815685   3.508   1.498   4.023  0.0322 -0.1873 -0.1799
  128CHL1  H18A15686   3.579   1.507   3.938  2.5022 -1.3165  1.6439
  128CHL1  H18B15687   3.491   1.595   4.074 -0.7832  0.4689 -1.6310
  128CHL1  H18C15688   3.558   1.430   4.095 -3.6594 -1.0595  1.8627
  128CHL1   C1215689   3.399   1.280   3.922 -0.0607 -1.0955 -0.4457
  128CHL1  H12A15690   3.473   1.220   3.979 -1.8434 -1.9268  1.0976
  128CHL1  H12B15691   3.298   1.237   3.912 -0.9005  0.4057  1.1102
  128CHL1   C1115692   3.471   1.301   3.785  0.2194 -0.6287  0.1539
  128CHL1  H11A15693   3.566   1.355   3.804 -0.2125  0.6875 -1.2491
  128CHL1  H11B15694   3.489   1.203   3.735  0.7770 -0.6148  0.3285
  128CHL1    C915695   3.382   1.390   3.684  0.2000  0.3575 -0.1772
  128CHL1    H915696   3.279   1.347   3.690 -0.5804  1.7901 -2.3875
  128CHL1   C1015697   3.438   1.396   3.534  1.2955 -0.8134  0.4856
  128CHL1   C1915698   3.593   1.435   3.547  0.1111  0.8319  0.3747
  128CHL1  H19A15699   3.601   1.539   3.586 -3.2707  0.4446  2.5429
  128CHL1  H19B15700   3.649   1.372   3.619 -1.7854  0.1448  1.3276
  128CHL1  H19C15701   3.638   1.430   3.446 -0.5452  3.0893 -0.1048
  128CHL1    C115702   3.409   1.256   3.465  0.1139 -0.7078  0.6774
  128CHL1   H1A15703   3.476   1.180   3.510 -0.3694 -1.2039  0.5842
  128CHL1   H1B15704   3.309   1.217   3.496  0.3772 -1.3682  0.7046
  128CHL1    C215705   3.420   1.238   3.309 -0.2826 -0.4567 -0.5501
  128CHL1   H2A15706   3.378   1.141   3.276  1.0947 -1.0986 -0.4703
  128CHL1   H2B15707   3.530   1.232   3.293  0.3282  0.7210  2.5167
  128CHL1   C2015708   3.345   1.412   4.256  0.8887  0.4887 -0.2324
  128CHL1   H2015709   3.429   1.484   4.264 -0.4517  2.1118 -0.1651
  128CHL1   C2115710   3.400   1.260   4.259  0.2765 -0.1858 -0.2561
  128CHL1  H21A15711   3.491   1.271   4.194  2.2295  1.5871  2.5545
  128CHL1  H21B15712   3.323   1.190   4.223 -0.7387  0.5967  0.3447
  128CHL1  H21C15713   3.430   1.216   4.356 -1.8564  0.7168  0.8688
  128CHL1   C2215714   3.245   1.431   4.373 -0.1553  0.5873 -0.3168
  128CHL1  H22A15715   3.186   1.525   4.364 -1.2617  0.0354  0.9031
  128CHL1  H22B15716   3.174   1.346   4.377  0.4492  0.1098  0.6406
  128CHL1   C2315717   3.311   1.447   4.513 -0.4308 -0.5393 -0.0494
  128CHL1  H23A15718   3.360   1.348   4.528 -1.1153 -0.7556  0.8396
  128CHL1  H23B15719   3.382   1.532   4.508 -0.9788 -0.0231  0.6894
  128CHL1   C2415720   3.205   1.484   4.616  0.2361  0.3181  0.5159
  128CHL1  H24A15721   3.146   1.574   4.586 -0.8522 -0.6776 -0.4482
  128CHL1  H24B15722   3.119   1.413   4.618 -0.3270  0.9785  0.3476
  128CHL1   C2515723   3.255   1.508   4.760 -0.1436 -0.2476  0.5457
  128CHL1   H2515724   3.328   1.592   4.758  1.7059 -1.6745 -3.3449
  128CHL1   C2615725   3.142   1.553   4.854  0.0428  0.2247 -0.7832
  128CHL1  H26A15726   3.189   1.549   4.955 -1.1484  0.1065 -0.2141
  128CHL1  H26B15727   3.114   1.657   4.827  2.4207  1.4670  1.1343
  128CHL1  H26C15728   3.055   1.484   4.861  0.1397  0.2337  1.1661
  128CHL1   C2715729   3.320   1.377   4.809 -0.1295 -0.3030 -0.1555
  128CHL1  H27A15730   3.353   1.392   4.914  0.0532  2.3359 -0.5239
  128CHL1  H27B15731   3.257   1.286   4.808 -1.8087  0.6842  3.3363
  128CHL1  H27C15732   3.415   1.365   4.753 -0.2425  1.7762 -0.9004
  129CHL1    C315733   0.293   4.784   3.696 -0.2100 -0.2374  0.6074
  129CHL1    H315734   0.386   4.787   3.756 -0.7584  0.4412  1.4667
  129CHL1    O315735   0.302   4.712   3.575  0.0629  0.1401 -0.1216
  129CHL1   H3'15736   0.218   4.731   3.533 -0.3231  0.9683  0.9698
  129CHL1    C415737   0.209   4.702   3.793  0.5066  0.6369 -0.0207
  129CHL1   H4A15738   0.117   4.685   3.733  0.6285  1.6693 -0.5294
  129CHL1   H4B15739   0.253   4.602   3.810 -0.1371  0.4982  0.9083
  129CHL1    C515740   0.182   4.777   3.930 -0.3513 -0.2447 -0.5627
  129CHL1    C615741   0.207   4.715   4.047 -0.2647 -0.8787  0.0212
  129CHL1    H615742   0.243   4.611   4.050 -0.5339 -1.2285 -3.9256
  129CHL1    C715743   0.166   4.776   4.183  0.1823 -0.4952  0.7935
  129CHL1   H7A15744   0.093   4.701   4.223 -1.3254  1.0903  1.1411
  129CHL1   H7B15745   0.254   4.780   4.251 -0.2757  1.1217  1.3464
  129CHL1    C815746   0.099   4.918   4.172  0.3856 -0.2189 -0.7804
  129CHL1    H815747  -0.007   4.889   4.151 -0.1084  0.2428  0.8616
  129CHL1   C1415748   0.111   5.005   4.301 -0.2869 -0.3171  0.2558
  129CHL1   H1415749   0.219   5.028   4.313 -0.7417  2.5749 -0.2717
  129CHL1   C1515750   0.074   4.935   4.430  0.0079  0.2053 -0.6611
  129CHL1  H15A15751  -0.013   4.869   4.410  0.5354 -0.8679  0.4590
  129CHL1  H15B15752   0.160   4.870   4.455  1.0203  1.6889 -0.1780
  129CHL1   C1615753   0.045   5.051   4.529 -0.0887 -0.5382  0.0156
  129CHL1  H16A15754  -0.062   5.039   4.557 -0.2141  1.9378  0.8158
  129CHL1  H16B15755   0.121   5.045   4.610 -0.2125 -0.8494  0.1104
  129CHL1   C1715756   0.058   5.184   4.443  0.2974 -0.6866 -0.1982
  129CHL1   H1715757   0.168   5.203   4.443  0.1973 -0.0875 -0.4303
  129CHL1   C1315758   0.033   5.137   4.298  0.1772 -0.3922 -0.5652
  129CHL1   C1815759  -0.117   5.111   4.276 -0.5174  0.5234  0.2755
  129CHL1  H18A15760  -0.163   5.208   4.247 -0.7890  0.2693 -0.1618
  129CHL1  H18B15761  -0.143   5.045   4.191  1.2302  1.3131 -0.9364
  129CHL1  H18C15762  -0.174   5.070   4.362  2.0913 -0.4378  1.6855
  129CHL1   C1215763   0.082   5.225   4.180  0.0910  0.5169 -0.4649
  129CHL1  H12A15764   0.026   5.321   4.180  0.0652  0.5048 -0.2824
  129CHL1  H12B15765   0.189   5.249   4.193  2.0554 -4.4055 -4.3634
  129CHL1   C1115766   0.081   5.147   4.050 -0.6151 -0.2298  0.2700
  129CHL1  H11A15767  -0.027   5.143   4.025 -0.1948  1.3689 -2.2269
  129CHL1  H11B15768   0.126   5.213   3.973 -1.2091 -0.8077 -0.5862
  129CHL1    C915769   0.152   5.000   4.052  0.1671 -0.2986  0.2846
  129CHL1    H915770   0.259   5.023   4.072  0.5015 -0.4723 -1.2365
  129CHL1   C1015771   0.135   4.926   3.916 -0.6193  0.0883 -0.5936
  129CHL1   C1915772  -0.013   4.926   3.878  0.0848 -0.0781  0.4058
  129CHL1  H19A15773  -0.076   4.884   3.960 -1.8835 -0.5115 -1.2588
  129CHL1  H19B15774  -0.047   5.030   3.860 -1.2235 -0.8544 -2.0144
  129CHL1  H19C15775  -0.020   4.875   3.780 -0.3752 -0.4110  0.6110
  129CHL1    C115776   0.216   5.002   3.808  0.2660  0.3239 -0.9971
  129CHL1   H1A15777   0.183   5.106   3.789  1.0330  0.2733 -2.8313
  129CHL1   H1B15778   0.317   5.018   3.852  0.3204 -0.5644 -0.7808
  129CHL1    C215779   0.235   4.925   3.678  0.1358 -0.2303 -0.1157
  129CHL1   H2A15780   0.310   4.985   3.623 -1.1259 -1.0568 -2.9313
  129CHL1   H2B15781   0.145   4.941   3.615 -0.4105  1.3679  1.0138
  129CHL1   C2015782  -0.019   5.302   4.491 -0.1165  0.2235  0.2023
  129CHL1   H2015783  -0.050   5.372   4.410 -2.1240 -1.1369 -0.2747
  129CHL1   C2115784   0.079   5.379   4.584 -0.2598 -0.1490 -0.4108
  129CHL1  H21A15785   0.024   5.438   4.661  0.6766  2.3776 -1.5511
  129CHL1  H21B15786   0.137   5.451   4.522  1.6859 -0.4235  0.9889
  129CHL1  H21C15787   0.152   5.308   4.628 -0.2798  0.3014  0.3776
  129CHL1   C2215788  -0.141   5.274   4.567 -0.0181  0.0876 -0.7521
  129CHL1  H22A15789  -0.212   5.201   4.523 -0.2008 -0.6130  0.6546
  129CHL1  H22B15790  -0.115   5.224   4.663 -1.0562 -0.3935 -0.7044
  129CHL1   C2315791  -0.228   5.401   4.616  0.3551 -0.0347 -0.6783
  129CHL1  H23A15792  -0.297   5.370   4.698  1.0782  1.1824  0.4276
  129CHL1  H23B15793  -0.169   5.476   4.673 -0.0525  0.3029 -0.6944
  129CHL1   C2415794  -0.289   5.477   4.494  0.0212 -0.9716 -0.2592
  129CHL1  H24A15795  -0.201   5.520   4.442  0.1167 -1.3128 -0.3821
  129CHL1  H24B15796  -0.328   5.392   4.434 -0.8726 -1.9838  1.6287
  129CHL1   C2515797  -0.406   5.576   4.528 -0.6192 -0.1250 -0.4130
  129CHL1   H2515798  -0.369   5.649   4.603 -1.2574 -0.8578  0.6447
  129CHL1   C2615799  -0.456   5.642   4.403  0.4537  0.0779 -0.2722
  129CHL1  H26A15800  -0.512   5.570   4.339  0.5646  0.4505 -0.7926
  129CHL1  H26B15801  -0.528   5.720   4.435  0.9710  0.6364 -0.4483
  129CHL1  H26C15802  -0.374   5.685   4.342  1.4234  0.0279  0.9519
  129CHL1   C2715803  -0.522   5.489   4.604  0.0945  0.2044  0.0137
  129CHL1  H27A15804  -0.608   5.554   4.635  0.1062 -0.0924  0.6823
  129CHL1  H27B15805  -0.551   5.399   4.547 -1.2593  0.6842 -0.1159
  129CHL1  H27C15806  -0.489   5.460   4.706 -1.6431 -0.4707  0.4195
  130CHL1    C315807   3.768   6.922   3.345 -0.1566 -0.3363 -0.2466
  130CHL1    H315808   3.859   6.928   3.409 -0.3313  0.0210 -0.0227
  130CHL1    O315809   3.783   7.011   3.238  0.3040  0.7043  0.1550
  130CHL1   H3'15810   3.723   6.978   3.171 -0.9292  0.2074  1.4516
  130CHL1    C415811   3.736   6.780   3.299 -0.6045 -0.7105  0.0511
  130CHL1   H4A15812   3.643   6.779   3.237  0.1664 -1.5593 -1.1439
  130CHL1   H4B15813   3.814   6.748   3.227 -0.2635  0.1946  0.0067
  130CHL1    C515814   3.717   6.685   3.414 -0.2238  0.5139 -0.8593
  130CHL1    C615815   3.795   6.576   3.432 -0.3039  0.8393  0.3723
  130CHL1    H615816   3.866   6.559   3.349  0.6608  3.6530  0.4994
  130CHL1    C715817   3.790   6.490   3.553 -0.3057 -0.0318 -0.9530
  130CHL1   H7A15818   3.786   6.384   3.517  0.6118 -0.2579 -0.4013
  130CHL1   H7B15819   3.880   6.498   3.618 -1.0011  1.5444 -0.1471
  130CHL1    C815820   3.660   6.516   3.634 -0.0417  0.2364 -0.2142
  130CHL1    H815821   3.576   6.464   3.583  1.3584  0.2738 -2.6940
  130CHL1   C1415822   3.667   6.446   3.768  0.4141  0.1440 -1.3914
  130CHL1   H1415823   3.735   6.508   3.829  1.9449 -0.6965 -2.1890
  130CHL1   C1515824   3.722   6.301   3.773 -0.0872  0.6494 -0.7601
  130CHL1  H15A15825   3.671   6.246   3.690  1.8577 -0.6448 -1.1572
  130CHL1  H15B15826   3.832   6.291   3.783 -0.0881 -1.3386 -2.1097
  130CHL1   C1615827   3.655   6.247   3.902 -0.0273 -0.0178  0.5022
  130CHL1  H16A15828   3.578   6.174   3.869  0.4316 -0.5435  0.5776
  130CHL1  H16B15829   3.719   6.180   3.964  0.2972 -2.5448 -2.3593
  130CHL1   C1715830   3.581   6.367   3.974  0.3257  0.0334  0.8775
  130CHL1   H1715831   3.654   6.418   4.040 -0.7828  1.9512  0.6755
  130CHL1   C1315832   3.539   6.456   3.853 -0.0781 -0.4087  0.4991
  130CHL1   C1815833   3.419   6.385   3.779  0.5243 -0.3045 -0.1394
  130CHL1  H18A15834   3.388   6.437   3.686  1.0783 -0.1678 -0.2461
  130CHL1  H18B15835   3.445   6.280   3.755 -3.1833 -1.2995 -0.5191
  130CHL1  H18C15836   3.330   6.371   3.845  0.2192 -1.2902 -0.7361
  130CHL1   C1215837   3.512   6.609   3.875  0.2748 -0.5212  0.2786
  130CHL1  H12A15838   3.425   6.636   3.938  0.3272  0.8114 -0.1978
  130CHL1  H12B15839   3.604   6.645   3.927  2.1335  0.2428 -3.2078
  130CHL1   C1115840   3.512   6.693   3.747 -0.7451 -0.6435 -0.2161
  130CHL1  H11A15841   3.417   6.680   3.690 -1.2618  0.5720  0.3439
  130CHL1  H11B15842   3.501   6.800   3.775 -1.8617 -0.9578  0.6120
  130CHL1    C915843   3.630   6.670   3.654 -0.5220  0.8697  0.1147
  130CHL1    H915844   3.718   6.707   3.710  0.4257  0.9561 -1.3796
  130CHL1   C1015845   3.615   6.741   3.516  0.0518 -0.8338  0.6957
  130CHL1   C1915846   3.476   6.707   3.457 -0.5175  0.1210 -0.1805
  130CHL1  H19A15847   3.455   6.606   3.499  1.8131 -0.2374  0.2491
  130CHL1  H19B15848   3.401   6.786   3.479 -0.7906  0.4485 -2.0928
  130CHL1  H19C15849   3.476   6.683   3.349 -1.5900 -0.3332 -0.0978
  130CHL1    C115850   3.629   6.897   3.549 -0.5141 -0.9716  0.4821
  130CHL1   H1A15851   3.530   6.921   3.594  0.1446 -1.1960  2.1189
  130CHL1   H1B15852   3.714   6.913   3.618  0.0097  0.1140 -0.3827
  130CHL1    C215853   3.655   6.980   3.429  0.5065 -0.8210 -0.9725
  130CHL1   H2A15854   3.674   7.087   3.450  0.6833 -0.9392 -0.5168
  130CHL1   H2B15855   3.565   6.988   3.363 -1.1298  1.7391  1.3601
  130CHL1   C2015856   3.468   6.325   4.064 -0.1512 -0.1815 -0.0621
  130CHL1   H2015857   3.403   6.252   4.009  0.8454  0.2816 -1.9625
  130CHL1   C2115858   3.369   6.443   4.106 -0.6887  0.0185 -0.7199
  130CHL1  H21A15859   3.307   6.464   4.017 -0.5864 -0.8776 -1.0140
  130CHL1  H21B15860   3.420   6.538   4.136 -2.4806  0.3126  1.7146
  130CHL1  H21C15861   3.302   6.419   4.192  0.3818  0.5698  0.3084
  130CHL1   C2215862   3.524   6.249   4.190  0.3183 -0.1673  0.7547
  130CHL1  H22A15863   3.573   6.159   4.148 -1.8094 -0.8256 -0.4574
  130CHL1  H22B15864   3.587   6.321   4.246  3.0826 -1.6941 -0.2236
  130CHL1   C2315865   3.411   6.197   4.288  0.3161  0.1574  0.5468
  130CHL1  H23A15866   3.348   6.273   4.338  0.6335 -0.9488  2.7695
  130CHL1  H23B15867   3.348   6.123   4.235 -1.4718  0.2827  2.3562
  130CHL1   C2415868   3.471   6.121   4.414  0.1626  0.3802 -0.0726
  130CHL1  H24A15869   3.387   6.080   4.475 -0.4531  0.5540 -0.7988
  130CHL1  H24B15870   3.532   6.034   4.380  1.0041  0.1190  1.9548
  130CHL1   C2515871   3.577   6.194   4.486  0.3246  0.2637  0.5687
  130CHL1   H2515872   3.657   6.223   4.414 -0.1961 -1.1033 -0.6194
  130CHL1   C2615873   3.538   6.329   4.546  0.6568  0.0449 -0.0102
  130CHL1  H26A15874   3.485   6.407   4.487  0.3964  0.5743  0.9002
  130CHL1  H26B15875   3.481   6.320   4.641 -0.2833 -1.0811 -0.6596
  130CHL1  H26C15876   3.636   6.372   4.576  0.1722  1.6915 -0.6882
  130CHL1   C2715877   3.642   6.107   4.594 -0.4337 -0.2659 -0.0936
  130CHL1  H27A15878   3.690   6.017   4.551 -0.9640  0.1878 -1.7002
  130CHL1  H27B15879   3.705   6.168   4.662 -0.6696  0.9755 -0.9551
  130CHL1  H27C15880   3.565   6.071   4.667  1.5380 -2.2519  1.1266
  131CHL1    C315881   3.081   5.014   3.601  0.5633  0.7043 -0.3782
  131CHL1    H315882   3.144   4.926   3.579 -0.3319  0.0034 -0.2153
  131CHL1    O315883   3.112   5.128   3.514 -0.4189  0.5472 -0.1098
  131CHL1   H3'15884   3.057   5.202   3.540 -1.5598 -0.1191 -0.5412
  131CHL1    C415885   2.934   4.977   3.593  0.4537 -0.0902  0.2661
  131CHL1   H4A15886   2.869   5.065   3.610 -1.0336 -1.4434  2.1516
  131CHL1   H4B15887   2.924   4.937   3.489  1.6255 -1.3264  0.5995
  131CHL1    C515888   2.890   4.874   3.688  0.0835  0.1917 -1.3591
  131CHL1    C615889   2.832   4.755   3.647 -0.5067  0.3870 -0.1183
  131CHL1    H615890   2.813   4.736   3.540 -1.7252 -0.8417  0.2855
  131CHL1    C715891   2.795   4.643   3.744 -0.2554  0.1936  0.0165
  131CHL1   H7A15892   2.691   4.611   3.725 -0.1190  0.6449 -1.6644
  131CHL1   H7B15893   2.858   4.552   3.733 -0.1651  0.4534 -2.0860
  131CHL1    C815894   2.787   4.686   3.888 -0.3377  0.1630 -0.4074
  131CHL1    H815895   2.694   4.745   3.900  0.1255  0.7026  0.6265
  131CHL1   C1415896   2.776   4.562   3.987 -0.5431 -0.9930  0.0571
  131CHL1   H1415897   2.864   4.500   3.961 -2.0620 -2.1086 -2.7968
  131CHL1   C1515898   2.661   4.468   3.967 -0.0019 -0.0172  0.0457
  131CHL1  H15A15899   2.558   4.509   3.954 -0.5162 -0.3868  2.4967
  131CHL1  H15B15900   2.670   4.407   3.875 -0.2381  0.4197 -0.2716
  131CHL1   C1615901   2.656   4.380   4.091 -0.5392  0.3756  0.2285
  131CHL1  H16A15902   2.554   4.390   4.133 -0.7045  0.2441 -0.1483
  131CHL1  H16B15903   2.681   4.275   4.064 -0.4326  0.2417  0.8198
  131CHL1   C1715904   2.759   4.445   4.187 -0.9689 -0.6803  0.1136
  131CHL1   H1715905   2.858   4.396   4.174  0.4176  1.7983  0.6794
  131CHL1   C1315906   2.775   4.593   4.139  1.0342 -0.9555  0.6005
  131CHL1   C1815907   2.653   4.683   4.173 -0.4167  0.5052  0.1688
  131CHL1  H18A15908   2.664   4.774   4.110 -1.8442  1.8615  1.7860
  131CHL1  H18B15909   2.555   4.634   4.157 -0.1657  0.1080 -0.1940
  131CHL1  H18C15910   2.659   4.706   4.281 -1.0553 -1.3593  0.6444
  131CHL1   C1215911   2.907   4.668   4.160 -0.4676  0.2811  0.5695
  131CHL1  H12A15912   2.929   4.700   4.264  0.8098  2.8402 -0.4120
  131CHL1  H12B15913   2.988   4.599   4.127 -0.4280  0.8713 -0.6179
  131CHL1   C1115914   2.917   4.798   4.077  0.2534 -0.5079 -0.1728
  131CHL1  H11A15915   2.840   4.871   4.111  0.5220 -0.7460  0.9803
  131CHL1  H11B15916   3.017   4.845   4.092 -0.4092  0.8212  0.2163
  131CHL1    C915917   2.903   4.768   3.925  0.5874 -0.9185 -0.0243
  131CHL1    H915918   2.989   4.703   3.896  1.0784 -0.7148  0.9484
  131CHL1   C1015919   2.921   4.899   3.835  0.6985  0.0301 -0.5509
  131CHL1   C1915920   2.827   5.015   3.886  0.5058 -0.2908  0.3212
  131CHL1  H19A15921   2.837   5.034   3.995  0.4598  0.5251  0.1869
  131CHL1  H19B15922   2.859   5.112   3.842  0.5282 -0.3217  0.2694
  131CHL1  H19C15923   2.721   4.987   3.866  0.5524 -0.0055 -0.3583
  131CHL1    C115924   3.065   4.951   3.850 -0.1869 -0.1093  0.2305
  131CHL1   H1A15925   3.075   5.001   3.948  1.4975  2.0880 -0.9624
  131CHL1   H1B15926   3.145   4.875   3.848 -0.5832 -0.5684  1.1779
  131CHL1    C215927   3.096   5.059   3.747 -0.7571  0.3200  0.2976
  131CHL1   H2A15928   3.203   5.086   3.756 -0.4416 -0.3545 -1.2668
  131CHL1   H2B15929   3.036   5.153   3.752  1.1760  1.7797 -1.8663
  131CHL1   C2015930   2.717   4.427   4.336 -1.1539 -0.5923  0.3357
  131CHL1   H2015931   2.632   4.493   4.362 -0.9628 -1.0537  2.2703
  131CHL1   C2115932   2.832   4.455   4.430  0.0648 -0.5517 -0.1448
  131CHL1  H21A15933   2.860   4.562   4.418 -0.1012 -0.6274 -1.2704
  131CHL1  H21B15934   2.921   4.395   4.400  0.4337  0.2676 -0.7480
  131CHL1  H21C15935   2.802   4.453   4.537 -0.9696 -0.0703 -0.4101
  131CHL1   C2215936   2.665   4.287   4.378 -0.2937 -0.4035  0.0716
  131CHL1  H22A15937   2.631   4.282   4.484 -1.4888 -4.4216 -0.3515
  131CHL1  H22B15938   2.573   4.256   4.325 -0.9606 -0.3922  1.1871
  131CHL1   C2315939   2.762   4.168   4.354  0.2475 -0.2042  0.6990
  131CHL1  H23A15940   2.807   4.167   4.253  1.2342 -0.1425  1.1232
  131CHL1  H23B15941   2.851   4.182   4.420  1.6214  2.2703 -1.4825
  131CHL1   C2415942   2.698   4.027   4.389  0.2309  0.0396 -0.4820
  131CHL1  H24A15943   2.781   3.964   4.428  2.1751  2.6948 -0.0295
  131CHL1  H24B15944   2.618   4.037   4.465 -0.7712  1.9064 -1.7236
  131CHL1   C2515945   2.622   3.958   4.269  0.5473 -0.3100 -0.4180
  131CHL1   H2515946   2.556   4.031   4.217  0.0598 -0.7382 -0.4151
  131CHL1   C2615947   2.729   3.911   4.175 -0.5353 -0.7749 -0.0151
  131CHL1  H26A15948   2.674   3.847   4.103 -1.6432 -1.4316  1.3509
  131CHL1  H26B15949   2.784   3.996   4.130 -0.3734 -2.0390 -2.3503
  131CHL1  H26C15950   2.799   3.842   4.227 -1.6938 -0.8864  1.4857
  131CHL1   C2715951   2.545   3.841   4.327  0.0209 -0.3697 -0.3700
  131CHL1  H27A15952   2.598   3.791   4.410  2.8619  2.9090  0.0074
  131CHL1  H27B15953   2.457   3.888   4.375 -0.8131  0.1772 -2.3149
  131CHL1  H27C15954   2.519   3.767   4.248 -0.7379 -0.6040  0.0910
  132CHL1    C315955   4.456   7.319   3.367  0.6429 -0.6367  0.1314
  132CHL1    H315956   4.359   7.359   3.332  0.9436  1.2037  1.2459
  132CHL1    O315957   4.556   7.330   3.262 -0.2132  0.1383 -0.0588
  132CHL1   H3'15958   4.641   7.317   3.305 -1.1190 -3.1066  1.0301
  132CHL1    C415959   4.498   7.397   3.491 -0.3735  0.3331 -0.1951
  132CHL1   H4A15960   4.607   7.378   3.502 -0.6064 -0.3279  1.0603
  132CHL1   H4B15961   4.484   7.505   3.469 -0.8403 -0.1522 -2.6350
  132CHL1    C515962   4.421   7.361   3.614 -0.9217 -0.3233 -0.1623
  132CHL1    C615963   4.365   7.458   3.686  0.1096  0.7862  0.9130
  132CHL1    H615964   4.367   7.561   3.649 -1.1899  0.3513 -0.4730
  132CHL1    C715965   4.302   7.433   3.817 -0.1239  0.0993 -0.0945
  132CHL1   H7A15966   4.342   7.510   3.886  1.1417 -0.8268  0.2416
  132CHL1   H7B15967   4.192   7.449   3.820 -0.2482 -0.6491  2.6608
  132CHL1    C815968   4.331   7.295   3.877 -0.1449  0.1151  0.1216
  132CHL1    H815969   4.437   7.297   3.910 -0.0108  1.1698 -0.3273
  132CHL1   C1415970   4.248   7.265   4.005  0.3144 -0.1923 -0.1875
  132CHL1   H1415971   4.147   7.262   3.960  0.6445 -0.6816 -0.9141
  132CHL1   C1515972   4.225   7.375   4.108 -0.1453 -0.8282  0.0386
  132CHL1  H15A15973   4.316   7.436   4.127 -0.3740 -0.6335  0.5279
  132CHL1  H15B15974   4.145   7.440   4.068  0.0388 -2.0885 -2.6184
  132CHL1   C1615975   4.185   7.299   4.234  0.3211  0.3794 -0.1921
  132CHL1  H16A15976   4.267   7.281   4.307  1.1118  1.7112 -0.7118
  132CHL1  H16B15977   4.099   7.347   4.285  1.9848  1.0387  2.2115
  132CHL1   C1715978   4.156   7.150   4.182  0.5829  0.2727 -0.1452
  132CHL1   H1715979   4.059   7.157   4.127  0.7876 -0.7150 -0.6674
  132CHL1   C1315980   4.268   7.136   4.069 -0.4516  0.2801 -0.7572
  132CHL1   C1815981   4.407   7.119   4.137  0.3221 -0.1564 -0.0147
  132CHL1  H18A15982   4.429   7.208   4.199  1.4874 -0.3617 -0.1230
  132CHL1  H18B15983   4.416   7.024   4.194 -2.1884 -0.9858 -0.8618
  132CHL1  H18C15984   4.481   7.128   4.055  0.0307 -1.2854 -0.4303
  132CHL1   C1215985   4.254   7.037   3.961 -0.2296 -0.0484 -0.3783
  132CHL1  H12A15986   4.263   6.935   4.003  0.2808  0.8207  1.7597
  132CHL1  H12B15987   4.150   7.043   3.923 -1.2301  0.0829  2.1833
  132CHL1   C1115988   4.346   7.055   3.835 -0.0309 -0.0317 -0.3799
  132CHL1  H11A15989   4.448   7.036   3.874 -0.7433 -1.4785  0.8817
  132CHL1  H11B15990   4.328   6.967   3.770  3.0201 -1.6952  0.8146
  132CHL1    C915991   4.320   7.190   3.772 -0.4447 -0.1835  0.4201
  132CHL1    H915992   4.217   7.194   3.731  1.1555 -0.6892 -4.3036
  132CHL1   C1015993   4.416   7.214   3.644 -0.4414 -0.4805 -0.7910
  132CHL1   C1915994   4.562   7.169   3.677 -0.5454 -0.1119 -0.4009
  132CHL1  H19A15995   4.591   7.204   3.779  0.0181  1.6991 -1.1518
  132CHL1  H19B15996   4.562   7.058   3.676  1.6508 -0.2144  1.6097
  132CHL1  H19C15997   4.642   7.201   3.607 -1.3103  0.4319 -1.0458
  132CHL1    C115998   4.361   7.143   3.519 -0.2143 -0.1110 -0.6109
  132CHL1   H1A15999   4.362   7.033   3.539 -1.6101 -0.0267  0.0852
  132CHL1   H1B16000   4.253   7.168   3.508 -0.2660 -0.1934 -0.3044
  132CHL1    C216001   4.446   7.171   3.398  0.1555  0.0661 -0.1838
  132CHL1   H2A16002   4.402   7.123   3.308  0.9279 -3.1442  0.9887
  132CHL1   H2B16003   4.548   7.130   3.410  0.3078  0.5918  0.3810
  132CHL1   C2016004   4.146   7.041   4.289 -0.3911  0.5577 -0.0738
  132CHL1   H2016005   4.246   7.020   4.330 -0.4098 -1.4737 -0.9295
  132CHL1   C2116006   4.100   6.911   4.227  0.0649  0.1627 -0.0834
  132CHL1  H21A16007   4.032   6.934   4.142 -0.4509  2.3030  0.8353
  132CHL1  H21B16008   4.054   6.834   4.292  0.9797 -0.8294 -0.5844
  132CHL1  H21C16009   4.189   6.861   4.185 -0.8946 -1.3262 -0.4217
  132CHL1   C2216010   4.064   7.090   4.410 -0.2122 -0.3392  0.2184
  132CHL1  H22A16011   4.054   7.010   4.486  0.0915  0.3890  1.0349
  132CHL1  H22B16012   4.113   7.178   4.457  0.7198 -0.4949 -0.4253
  132CHL1   C2316013   3.924   7.116   4.386 -0.2344  0.0923 -0.6099
  132CHL1  H23A16014   3.922   7.193   4.306  1.9126 -0.9671 -1.7918
  132CHL1  H23B16015   3.867   7.031   4.343 -1.0992 -0.8713  2.2396
  132CHL1   C2416016   3.850   7.176   4.505  0.0761  0.1312  0.3428
  132CHL1  H24A16017   3.881   7.282   4.521  1.9444 -0.5062  1.1576
  132CHL1  H24B16018   3.742   7.171   4.478  0.2011 -1.5539  0.0951
  132CHL1   C2516019   3.864   7.106   4.634 -0.3840  0.4259  0.1326
  132CHL1   H2516020   3.966   7.067   4.653 -0.9425 -0.8642  0.6245
  132CHL1   C2616021   3.823   7.200   4.739 -0.5630  0.1521 -0.6589
  132CHL1  H26A16022   3.744   7.270   4.705  0.1818  1.2932 -0.0988
  132CHL1  H26B16023   3.793   7.137   4.825  1.0037  0.0264 -0.1747
  132CHL1  H26C16024   3.900   7.274   4.769 -0.4054  0.8452 -2.6171
  132CHL1   C2716025   3.768   6.988   4.644  0.2469  0.3151 -0.3691
  132CHL1  H27A16026   3.665   7.030   4.642  1.1107  2.5533 -1.0588
  132CHL1  H27B16027   3.790   6.928   4.553 -0.9669 -0.8411  0.0619
  132CHL1  H27C16028   3.774   6.931   4.739 -0.3405  1.1450  0.1763
  133CHL1    C316029   2.531   1.905   3.251  0.6762  0.1816 -0.6209
  133CHL1    H316030   2.424   1.912   3.281  1.0899  0.2884  0.9654
  133CHL1    O316031   2.546   1.948   3.114 -0.0583  0.6253 -0.6176
  133CHL1   H3'16032   2.514   1.877   3.058  0.4476 -1.4325  1.5384
  133CHL1    C416033   2.616   2.004   3.331  0.7256  0.0932 -0.2053
  133CHL1   H4A16034   2.722   2.003   3.299  0.8481 -1.1241  0.1876
  133CHL1   H4B16035   2.587   2.111   3.319 -0.9139 -0.2057  0.7830
  133CHL1    C516036   2.616   1.982   3.477 -0.3141 -0.4154  0.9809
  133CHL1    C616037   2.586   2.076   3.563  0.3561 -0.6233 -0.7355
  133CHL1    H616038   2.534   2.167   3.530  0.1006 -0.7991 -0.8226
  133CHL1    C716039   2.592   2.056   3.708  0.3237  0.1816  0.0441
  133CHL1   H7A16040   2.648   2.140   3.756  0.5551  0.6323 -0.9957
  133CHL1   H7B16041   2.490   2.051   3.751  0.7363 -0.2729  1.0181
  133CHL1    C816042   2.682   1.935   3.754  1.0252  0.7220 -0.8118
  133CHL1    H816043   2.790   1.956   3.736  0.4604  1.9442 -3.2289
  133CHL1   C1416044   2.659   1.907   3.899  0.2236 -0.5450 -0.4259
  133CHL1   H1416045   2.551   1.895   3.918  0.2935 -0.5360 -0.0157
  133CHL1   C1516046   2.678   2.023   4.000 -0.2997  0.4590  0.2881
  133CHL1  H15A16047   2.770   2.082   3.980 -0.5370  1.2471  1.4233
  133CHL1  H15B16048   2.597   2.098   3.984 -1.3931 -0.0985  2.7253
  133CHL1   C1616049   2.678   1.954   4.136  0.6107 -0.6249  0.4773
  133CHL1  H16A16050   2.764   1.996   4.193  0.7161  0.1212 -0.2173
  133CHL1  H16B16051   2.580   1.979   4.183  1.3814 -1.4700  2.6913
  133CHL1   C1716052   2.685   1.808   4.109 -0.5651  0.7244 -0.5372
  133CHL1   H1716053   2.579   1.778   4.121 -1.0399  2.9798  1.8007
  133CHL1   C1316054   2.728   1.791   3.956  0.0189  0.0569  0.0772
  133CHL1   C1816055   2.887   1.808   3.948  0.0479 -0.4217 -0.2239
  133CHL1  H18A16056   2.948   1.729   3.995  2.2394  1.3894  0.1531
  133CHL1  H18B16057   2.932   1.821   3.847 -1.0229 -1.7105 -0.8934
  133CHL1  H18C16058   2.913   1.895   4.012  1.4374 -0.8901 -0.1354
  133CHL1   C1216059   2.681   1.662   3.873 -0.2547 -0.0067 -0.1292
  133CHL1  H12A16060   2.739   1.578   3.916  0.2307  1.1282  1.5189
  133CHL1  H12B16061   2.575   1.658   3.906 -0.0821  1.7892  0.7941
  133CHL1   C1116062   2.706   1.679   3.722  0.0986  0.1516 -0.2970
  133CHL1  H11A16063   2.814   1.682   3.695  0.4148 -3.5722  0.0044
  133CHL1  H11B16064   2.647   1.604   3.666 -1.5481  0.4692  0.9405
  133CHL1    C916065   2.646   1.814   3.667 -0.0619 -0.0527 -0.0702
  133CHL1    H916066   2.538   1.803   3.688 -0.1646  1.5835  0.4241
  133CHL1   C1016067   2.667   1.838   3.515 -0.6908 -0.7113  0.1648
  133CHL1   C1916068   2.814   1.810   3.486  0.3459  0.3400  0.1900
  133CHL1  H19A16069   2.838   1.703   3.502  0.0866  0.5178  1.9211
  133CHL1  H19B16070   2.844   1.827   3.380  1.3761  0.5513  0.5080
  133CHL1  H19C16071   2.881   1.866   3.555 -1.3737  0.8132  1.5404
  133CHL1    C116072   2.570   1.742   3.429 -0.8427 -0.9556 -0.4725
  133CHL1   H1A16073   2.602   1.638   3.449  0.2202 -0.7582 -1.0761
  133CHL1   H1B16074   2.463   1.760   3.455 -0.3685  2.2048 -0.2894
  133CHL1    C216075   2.578   1.766   3.268 -0.2102  0.7516  0.0411
  133CHL1   H2A16076   2.517   1.696   3.207  1.0527  0.3857 -0.8348
  133CHL1   H2B16077   2.685   1.752   3.240  0.1552  0.1220  1.6101
  133CHL1   C2016078   2.771   1.734   4.209  0.5858  0.1337 -0.3705
  133CHL1   H2016079   2.881   1.736   4.191  0.5135 -3.4313 -2.0480
  133CHL1   C2116080   2.748   1.578   4.203 -0.3120 -0.2133 -0.5556
  133CHL1  H21A16081   2.798   1.525   4.287 -1.5250  0.0329  0.3435
  133CHL1  H21B16082   2.785   1.536   4.107  0.1695 -1.7402  0.2694
  133CHL1  H21C16083   2.641   1.550   4.207  0.2008 -2.3181 -0.3578
  133CHL1   C2216084   2.745   1.791   4.351 -0.4083 -0.2307 -0.7787
  133CHL1  H22A16085   2.791   1.891   4.365 -2.0786  0.3274  1.1972
  133CHL1  H22B16086   2.636   1.804   4.371 -0.4806 -0.8976 -0.7264
  133CHL1   C2316087   2.812   1.710   4.466 -0.6810 -0.0963  0.4002
  133CHL1  H23A16088   2.763   1.612   4.486 -0.8729 -0.1537 -0.3138
  133CHL1  H23B16089   2.916   1.684   4.438 -0.5995  1.4108 -0.8622
  133CHL1   C2416090   2.813   1.797   4.596 -0.6936 -0.1530 -0.1480
  133CHL1  H24A16091   2.869   1.890   4.571 -0.7813 -0.3831 -1.2939
  133CHL1  H24B16092   2.711   1.822   4.631 -1.0988 -1.2538 -0.5139
  133CHL1   C2516093   2.874   1.732   4.725  0.3878 -0.5785  0.5574
  133CHL1   H2516094   2.975   1.699   4.693  0.4013  0.2283 -0.2581
  133CHL1   C2616095   2.874   1.834   4.842 -0.1223  0.6738  0.5016
  133CHL1  H26A16096   2.908   1.935   4.811 -0.8525  0.3169 -1.6882
  133CHL1  H26B16097   2.771   1.837   4.885  0.5384 -2.8730  2.7307
  133CHL1  H26C16098   2.935   1.792   4.924 -2.1946 -3.5555  0.1628
  133CHL1   C2716099   2.792   1.610   4.768 -0.2595  0.4982 -0.1516
  133CHL1  H27A16100   2.843   1.559   4.852 -0.4239  0.6291  0.0271
  133CHL1  H27B16101   2.696   1.652   4.805 -1.0645 -0.0303 -1.5664
  133CHL1  H27C16102   2.765   1.540   4.686 -0.0697 -0.3652  0.5114
  134CHL1    C316103   0.160   1.956   3.537  0.6458 -0.1867  0.1368
  134CHL1    H316104   0.112   2.036   3.597 -1.9194 -0.3873 -1.4802
  134CHL1    O316105   0.135   1.973   3.397  0.7119  0.0714 -0.1024
  134CHL1   H3'16106   0.042   1.964   3.376  1.3526 -2.0289 -2.4431
  134CHL1    C416107   0.309   1.951   3.550  0.2243 -0.2825 -1.0308
  134CHL1   H4A16108   0.362   1.878   3.485  0.4549 -0.6622 -0.4265
  134CHL1   H4B16109   0.357   2.044   3.511  1.1024  0.3583  1.3509
  134CHL1    C516110   0.347   1.930   3.691  0.4053 -0.0409 -0.2949
  134CHL1    C616111   0.428   2.017   3.754 -0.3480  0.7557 -0.2034
  134CHL1    H616112   0.470   2.095   3.690  2.0160 -1.8567 -2.0982
  134CHL1    C716113   0.481   2.006   3.894  0.3461 -0.8228  0.4059
  134CHL1   H7A16114   0.590   2.027   3.895 -0.1002  2.5152 -2.3108
  134CHL1   H7B16115   0.442   2.089   3.957  2.0834 -0.4494  1.0311
  134CHL1    C816116   0.453   1.870   3.947 -0.1835  0.4941 -0.2470
  134CHL1    H816117   0.526   1.800   3.900 -2.2577 -1.6435 -0.4862
  134CHL1   C1416118   0.468   1.868   4.092  0.0966 -0.2434 -0.1805
  134CHL1   H1416119   0.391   1.940   4.126  2.1571  2.2456 -0.4250
  134CHL1   C1516120   0.605   1.914   4.148 -0.3271  0.0596  0.2036
  134CHL1  H15A16121   0.692   1.872   4.093  0.3376  1.5805  0.0357
  134CHL1  H15B16122   0.612   2.025   4.147  2.8613 -0.0186  2.0181
  134CHL1   C1616123   0.586   1.872   4.301 -0.4948 -0.3284  0.5861
  134CHL1  H16A16124   0.684   1.833   4.336  0.7143  1.2050 -0.9111
  134CHL1  H16B16125   0.560   1.964   4.357 -0.1414  0.4325 -0.4781
  134CHL1   C1716126   0.480   1.763   4.310 -0.7723  0.1585 -0.7353
  134CHL1   H1716127   0.390   1.810   4.355 -1.8946  1.9272 -4.4022
  134CHL1   C1316128   0.448   1.733   4.166  0.3379  0.9811  0.4760
  134CHL1   C1816129   0.544   1.621   4.117 -0.3033 -0.4830  0.1025
  134CHL1  H18A16130   0.517   1.521   4.159 -1.1777 -0.5938 -0.6965
  134CHL1  H18B16131   0.529   1.615   4.007 -2.0421  0.5856  0.2462
  134CHL1  H18C16132   0.649   1.650   4.141 -0.0352 -1.2401 -0.1143
  134CHL1   C1216133   0.298   1.688   4.143  0.1888  0.3662 -0.2206
  134CHL1  H12A16134   0.286   1.580   4.166  1.3411  0.4894  1.1391
  134CHL1  H12B16135   0.222   1.745   4.201  1.4898  1.5441  0.3973
  134CHL1   C1116136   0.277   1.685   3.987  0.4045 -0.3223 -0.2680
  134CHL1  H11A16137   0.339   1.599   3.953  0.6334 -1.4579  2.6897
  134CHL1  H11B16138   0.174   1.650   3.964  1.0943 -3.3136  0.7674
  134CHL1    C916139   0.308   1.815   3.912  0.5011  1.0238  0.1152
  134CHL1    H916140   0.233   1.893   3.940 -0.9370  0.8562 -2.9042
  134CHL1   C1016141   0.287   1.803   3.764  0.0855 -0.1419  0.5502
  134CHL1   C1916142   0.354   1.680   3.697 -0.1676 -0.3969 -0.4780
  134CHL1  H19A16143   0.358   1.693   3.587  0.2919 -3.1250 -0.8543
  134CHL1  H19B16144   0.459   1.676   3.734 -0.0978 -0.5920 -0.6978
  134CHL1  H19C16145   0.294   1.589   3.720 -0.9874  0.2095 -0.1618
  134CHL1    C116146   0.135   1.784   3.729  0.2909 -1.1386  0.3662
  134CHL1   H1A16147   0.092   1.684   3.752 -0.0850 -1.2693 -0.8437
  134CHL1   H1B16148   0.083   1.860   3.791  3.0237  0.4161  0.9225
  134CHL1    C216149   0.103   1.817   3.582  1.1274  0.2603 -0.8943
  134CHL1   H2A16150  -0.007   1.813   3.575  1.2160 -2.4125 -2.1901
  134CHL1   H2B16151   0.149   1.738   3.519  2.9630  0.5952 -0.0665
  134CHL1   C2016152   0.522   1.655   4.415  0.4446  0.6401  0.8715
  134CHL1   H2016153   0.618   1.603   4.396 -1.2913 -2.2040 -0.7729
  134CHL1   C2116154   0.414   1.544   4.422 -0.3281 -0.2808  0.1211
  134CHL1  H21A16155   0.429   1.471   4.505 -2.8917 -1.9015 -0.7367
  134CHL1  H21B16156   0.397   1.490   4.326  1.2372  1.8145 -1.4307
  134CHL1  H21C16157   0.316   1.592   4.442  0.4033  1.0607  0.6284
  134CHL1   C2216158   0.540   1.715   4.560  0.1762 -0.5896  0.9851
  134CHL1  H22A16159   0.614   1.796   4.546  0.2504 -0.9227 -0.7130
  134CHL1  H22B16160   0.447   1.751   4.609  0.5498  1.0640  0.5283
  134CHL1   C2316161   0.605   1.623   4.664  0.8383 -0.3587  0.3262
  134CHL1  H23A16162   0.530   1.543   4.685 -0.0652  0.2100 -0.6057
  134CHL1  H23B16163   0.689   1.562   4.625  1.1370 -0.1035  0.5691
  134CHL1   C2416164   0.655   1.697   4.788 -0.1476  0.3063  0.4716
  134CHL1  H24A16165   0.703   1.792   4.758 -0.3211 -0.2419 -1.7672
  134CHL1  H24B16166   0.566   1.732   4.844  0.6747  0.1762  1.9161
  134CHL1   C2516167   0.731   1.602   4.886 -1.1865 -0.0932  0.4673
  134CHL1   H2516168   0.673   1.510   4.907 -0.9077 -0.2174  0.6939
  134CHL1   C2616169   0.864   1.563   4.817 -0.5338  0.1459 -0.1547
  134CHL1  H26A16170   0.928   1.503   4.885  0.6123 -1.6122 -2.6100
  134CHL1  H26B16171   0.845   1.498   4.729  2.1779 -1.2010  0.1411
  134CHL1  H26C16172   0.933   1.643   4.783 -0.4388 -0.8148 -2.3720
  134CHL1   C2716173   0.755   1.658   5.022 -0.1674  0.0014 -0.2189
  134CHL1  H27A16174   0.829   1.741   5.017 -1.1150  0.8879  0.0618
  134CHL1  H27B16175   0.662   1.708   5.058  0.5048  1.5392 -0.5620
  134CHL1  H27C16176   0.789   1.572   5.083 -0.7817  0.2355  0.4591
  135CHL1    C316177   1.379   1.772   3.365 -1.0616 -0.1951 -0.4685
  135CHL1    H316178   1.442   1.731   3.447 -0.7865  3.6322  1.4509
  135CHL1    O316179   1.409   1.703   3.246 -0.3351 -0.5944 -0.5013
  135CHL1   H3'16180   1.350   1.732   3.176  1.7253 -1.0768 -2.5512
  135CHL1    C416181   1.229   1.756   3.391  0.6142 -0.6532  0.5306
  135CHL1   H4A16182   1.177   1.803   3.305  0.0008 -0.6428  0.8979
  135CHL1   H4B16183   1.206   1.647   3.393 -0.2596 -0.4699  1.3379
  135CHL1    C516184   1.198   1.820   3.522 -0.0034 -0.2710 -0.4468
  135CHL1    C616185   1.151   1.744   3.625  0.0292  0.6711 -0.3465
  135CHL1    H616186   1.132   1.637   3.609 -1.1216  0.5402  1.5807
  135CHL1    C716187   1.113   1.798   3.751  0.2995  0.3687 -0.4473
  135CHL1   H7A16188   1.016   1.752   3.777  1.2472 -0.7683  1.3297
  135CHL1   H7B16189   1.190   1.763   3.823 -0.3406 -0.3740 -0.1154
  135CHL1    C816190   1.088   1.955   3.747  0.3783 -0.6909  0.2573
  135CHL1    H816191   0.991   1.976   3.696  0.0691  0.0070  1.1172
  135CHL1   C1416192   1.076   2.006   3.896 -0.1555  0.4004  0.1950
  135CHL1   H1416193   1.174   1.982   3.942 -0.4521 -0.3282  0.4583
  135CHL1   C1516194   0.974   1.943   3.994 -0.0156  0.1341 -0.0826
  135CHL1  H15A16195   0.880   1.913   3.943 -1.4981  3.3206  0.5455
  135CHL1  H15B16196   1.029   1.857   4.038  1.4947  0.8888 -0.3908
  135CHL1   C1616197   0.942   2.051   4.098 -0.6304 -0.5468  0.1776
  135CHL1  H16A16198   0.837   2.085   4.090 -0.9914 -1.0195  2.3566
  135CHL1  H16B16199   0.951   2.007   4.200 -0.5269 -0.5481  0.1682
  135CHL1   C1716200   1.042   2.169   4.062  0.0154 -0.1027 -0.6378
  135CHL1   H1716201   1.144   2.151   4.102  0.1550  1.8798  0.0300
  135CHL1   C1316202   1.048   2.158   3.907 -0.5150  0.1679 -0.1038
  135CHL1   C1816203   0.916   2.197   3.835 -0.2340  0.3508  0.1239
  135CHL1  H18A16204   0.915   2.308   3.840  4.7499  0.6175  0.5278
  135CHL1  H18B16205   0.914   2.154   3.732  1.4592  0.4934 -0.0029
  135CHL1  H18C16206   0.823   2.160   3.883  0.2042  1.9780  2.3789
  135CHL1   C1216207   1.174   2.227   3.845  0.4244 -0.4312  0.9626
  135CHL1  H12A16208   1.162   2.338   3.842  2.5443 -0.1633 -1.9386
  135CHL1  H12B16209   1.265   2.203   3.904  2.3478  0.1220 -1.5981
  135CHL1   C1116210   1.198   2.176   3.701 -0.2745  0.6206  0.4060
  135CHL1  H11A16211   1.106   2.196   3.642 -0.6193 -0.4991  0.5263
  135CHL1  H11B16212   1.290   2.226   3.663  1.0487  0.0409  2.6367
  135CHL1    C916213   1.208   2.023   3.676  0.1796  0.4923 -0.2393
  135CHL1    H916214   1.300   1.996   3.732  0.5907  1.3665 -0.4754
  135CHL1   C1016215   1.229   1.973   3.530  0.5726 -0.0229 -0.5989
  135CHL1   C1916216   1.132   2.050   3.440 -0.0776  0.0064 -0.2897
  135CHL1  H19A16217   1.169   2.155   3.430 -0.5811  0.2411  0.2581
  135CHL1  H19B16218   1.112   2.003   3.341  0.8360 -2.8181  0.7507
  135CHL1  H19C16219   1.030   2.050   3.484  0.7588 -1.9439  1.8274
  135CHL1    C116220   1.375   1.986   3.485 -0.2167  0.5394  0.4097
  135CHL1   H1A16221   1.394   2.095   3.474 -2.5780  0.8527 -1.1353
  135CHL1   H1B16222   1.442   1.945   3.564  0.0420  1.1763  0.5275
  135CHL1    C216223   1.412   1.920   3.348  0.7745 -0.0257  0.3964
  135CHL1   H2A16224   1.523   1.923   3.334  0.7942 -1.2594  0.2308
  135CHL1   H2B16225   1.362   1.976   3.267  0.8981 -0.7239 -0.1657
  135CHL1   C2016226   0.996   2.306   4.127 -0.3163  0.1629  0.5435
  135CHL1   H2016227   0.905   2.335   4.070  1.0078  1.1604 -1.1707
  135CHL1   C2116228   1.102   2.425   4.106 -0.4154  0.1923  0.6573
  135CHL1  H21A16229   1.101   2.501   4.187 -0.9377 -0.5313  1.3517
  135CHL1  H21B16230   1.092   2.463   4.002 -2.8396 -2.5073 -0.2303
  135CHL1  H21C16231   1.199   2.373   4.118 -0.5547  0.1003  1.4994
  135CHL1   C2216232   0.956   2.295   4.277 -0.2971 -0.5329  0.1038
  135CHL1  H22A16233   0.942   2.400   4.312 -1.1998 -0.8241  0.6320
  135CHL1  H22B16234   0.857   2.248   4.295 -0.9332 -0.8050 -3.3768
  135CHL1   C2316235   1.067   2.236   4.363  0.4386 -0.7613  0.0113
  135CHL1  H23A16236   1.096   2.133   4.332  1.4232 -0.9423  1.4247
  135CHL1  H23B16237   1.160   2.295   4.347 -0.4764  0.5410 -0.6134
  135CHL1   C2416238   1.028   2.236   4.510 -0.6257 -0.4431 -0.5345
  135CHL1  H24A16239   1.112   2.210   4.578  1.1202  0.0884 -2.3827
  135CHL1  H24B16240   0.995   2.338   4.538 -0.3948 -0.2996 -0.7805
  135CHL1   C2516241   0.917   2.137   4.538  0.0447 -0.3968 -0.1578
  135CHL1   H2516242   0.834   2.165   4.470 -0.3041  3.5638  1.6212
  135CHL1   C2616243   0.957   1.991   4.501  0.1477 -0.0401 -0.5342
  135CHL1  H26A16244   1.046   1.960   4.561 -0.1240  1.5905  0.7991
  135CHL1  H26B16245   0.876   1.920   4.527 -0.7370  1.6731  1.7349
  135CHL1  H26C16246   0.985   1.976   4.395 -0.5092 -2.5629 -0.3981
  135CHL1   C2716247   0.867   2.153   4.683 -0.0906 -0.0322  0.3274
  135CHL1  H27A16248   0.793   2.073   4.702 -0.2481  0.0006 -0.1165
  135CHL1  H27B16249   0.962   2.140   4.739  1.1735 -1.5293 -1.9991
  135CHL1  H27C16250   0.809   2.247   4.698 -1.5265 -1.1359  1.9436
  136CHL1    C316251   5.570   0.647   3.460 -0.9722  0.1912 -0.2181
  136CHL1    H316252   5.476   0.649   3.519 -1.6498 -0.0460 -1.2562
  136CHL1    O316253   5.528   0.603   3.332 -0.1338  0.0162 -0.0788
  136CHL1   H3'16254   5.512   0.509   3.334  1.2047 -0.2318 -0.4401
  136CHL1    C416255   5.629   0.787   3.471  0.4572 -0.0872  0.0099
  136CHL1   H4A16256   5.701   0.792   3.386  0.6275 -0.6014  0.1177
  136CHL1   H4B16257   5.540   0.847   3.441 -0.3833 -2.0571 -1.7019
  136CHL1    C516258   5.694   0.832   3.602  0.2453  0.0094  0.0680
  136CHL1    C616259   5.659   0.950   3.655  0.2508 -0.2014 -0.0293
  136CHL1    H616260   5.585   1.009   3.598 -2.5819 -0.8938  2.6663
  136CHL1    C716261   5.709   1.001   3.788  0.1540  0.1830 -0.6068
  136CHL1   H7A16262   5.744   1.104   3.763  1.1147 -0.3953 -1.7535
  136CHL1   H7B16263   5.631   0.991   3.866  1.6456 -0.7175  0.8547
  136CHL1    C816264   5.826   0.921   3.838 -0.0827 -0.5386 -0.5084
  136CHL1    H816265   5.918   0.948   3.782  0.3333  1.5673  1.0537
  136CHL1   C1416266   5.841   0.943   3.990  0.0714  0.1654  0.3140
  136CHL1   H1416267   5.757   0.886   4.035 -0.3503 -0.3316 -1.0681
  136CHL1   C1516268   5.850   1.087   4.043  0.9905  0.8713  0.2104
  136CHL1  H15A16269   5.918   1.145   3.978  0.7161  0.5351 -0.3844
  136CHL1  H15B16270   5.745   1.125   4.045  1.2057  1.4700  0.3712
  136CHL1   C1616271   5.901   1.064   4.188 -0.3170 -0.4015  0.6542
  136CHL1  H16A16272   5.973   1.145   4.210  0.2753 -0.4471 -1.0087
  136CHL1  H16B16273   5.812   1.068   4.255  0.4525 -2.4921  1.9166
  136CHL1   C1716274   5.942   0.917   4.199  0.2612  0.0362 -0.2298
  136CHL1   H1716275   5.859   0.854   4.237 -0.6441  0.7316 -0.9999
  136CHL1   C1316276   5.957   0.877   4.055  0.2413 -0.9486 -0.5454
  136CHL1   C1816277   6.091   0.930   4.003  0.2482  0.0768  0.4742
  136CHL1  H18A16278   6.105   0.883   3.903 -1.8961 -1.4527  0.8131
  136CHL1  H18B16279   6.098   1.040   3.997 -1.3685  0.2623  1.3810
  136CHL1  H18C16280   6.179   0.891   4.058  0.0012  0.7429  1.3639
  136CHL1   C1216281   5.943   0.726   4.033  0.4808 -0.1868  0.3715
  136CHL1  H12A16282   6.041   0.681   4.061  0.3474 -1.0030 -0.4179
  136CHL1  H12B16283   5.867   0.688   4.105 -0.6572  0.7544 -0.3022
  136CHL1   C1116284   5.916   0.689   3.886 -0.1809 -0.0242  0.5376
  136CHL1  H11A16285   6.013   0.708   3.834 -0.1110  0.3733  0.8093
  136CHL1  H11B16286   5.894   0.580   3.880  2.2063 -0.6196  1.3446
  136CHL1    C916287   5.803   0.768   3.819  0.2275 -0.7901  0.5447
  136CHL1    H916288   5.709   0.750   3.874 -0.2859  2.3487  0.8785
  136CHL1   C1016289   5.779   0.724   3.673  0.1840 -0.2063 -0.3780
  136CHL1   C1916290   5.915   0.728   3.601 -0.6499  0.5312  0.7917
  136CHL1  H19A16291   5.969   0.634   3.625 -2.5544 -0.1913  2.4484
  136CHL1  H19B16292   5.908   0.734   3.490 -0.2351  0.8684  0.7800
  136CHL1  H19C16293   5.976   0.815   3.636 -1.0448  0.5448  1.4452
  136CHL1    C116294   5.715   0.583   3.667 -0.4078 -0.8489  0.0905
  136CHL1   H1A16295   5.793   0.508   3.693 -0.4065 -0.5013  1.1672
  136CHL1   H1B16296   5.623   0.573   3.729 -0.3995  1.5248  0.5905
  136CHL1    C216297   5.676   0.543   3.525 -0.1549 -0.4929  0.5021
  136CHL1   H2A16298   5.625   0.444   3.535  1.2714 -1.3703 -0.5365
  136CHL1   H2B16299   5.768   0.521   3.466 -0.6237 -0.0752 -0.4070
  136CHL1   C2016300   6.061   0.890   4.296  0.3197  0.6851 -0.4495
  136CHL1   H2016301   6.135   0.816   4.255  0.7365  1.0275 -0.3217
  136CHL1   C2116302   6.004   0.838   4.427  0.2380  0.1434  0.1315
  136CHL1  H21A16303   5.941   0.749   4.410 -2.2652  1.7926  0.3192
  136CHL1  H21B16304   5.941   0.904   4.490  0.8130  1.9284 -1.0915
  136CHL1  H21C16305   6.089   0.793   4.483 -0.2631 -1.5400 -0.4147
  136CHL1   C2216306   6.150   1.010   4.322  0.3703  0.1280  0.2654
  136CHL1  H22A16307   6.186   1.053   4.227  0.7921  1.3827  0.9697
  136CHL1  H22B16308   6.094   1.089   4.377 -0.1352 -0.2619  0.3203
  136CHL1   C2316309   6.280   0.976   4.405 -0.2203 -0.5093 -0.4675
  136CHL1  H23A16310   6.271   0.905   4.489  3.4006 -1.1937 -0.4924
  136CHL1  H23B16311   6.350   0.934   4.330  0.2024 -0.4724 -0.0980
  136CHL1   C2416312   6.353   1.106   4.458 -0.1876 -0.1102  0.8800
  136CHL1  H24A16313   6.389   1.163   4.370 -1.1281 -0.9818 -0.1088
  136CHL1  H24B16314   6.278   1.163   4.517 -0.3170 -0.0192  0.6297
  136CHL1   C2516315   6.471   1.064   4.545  0.1464 -0.4452  0.8028
  136CHL1   H2516316   6.436   1.007   4.633  0.7567 -0.4151  1.0701
  136CHL1   C2616317   6.568   0.972   4.469  0.0660 -0.1469 -0.6627
  136CHL1  H26A16318   6.599   1.017   4.372 -0.5722  0.8252 -0.4308
  136CHL1  H26B16319   6.656   0.953   4.535 -0.3921 -0.7345 -0.2115
  136CHL1  H26C16320   6.526   0.871   4.454 -1.8102  0.3078  1.1406
  136CHL1   C2716321   6.551   1.180   4.607  0.2871 -0.1109 -0.0904
  136CHL1  H27A16322   6.597   1.233   4.520  0.3763 -0.1908 -0.0928
  136CHL1  H27B16323   6.490   1.250   4.668  0.6182  1.1300 -1.1249
  136CHL1  H27C16324   6.630   1.139   4.673  0.6193  0.1370 -0.3301
  137CHL1    C316325   1.749   1.492   3.306  0.4572  0.8374 -0.0771
  137CHL1    H316326   1.641   1.508   3.327  0.6234  0.1064  1.4920
  137CHL1    O316327   1.779   1.500   3.170  0.2535  0.2518 -0.1526
  137CHL1   H3'16328   1.875   1.493   3.177  0.1675 -1.3963 -0.2211
  137CHL1    C416329   1.834   1.599   3.382 -0.0786  0.8240 -0.2208
  137CHL1   H4A16330   1.937   1.572   3.349 -0.6111  0.3860 -1.5632
  137CHL1   H4B16331   1.794   1.691   3.335 -2.9999 -0.4725 -0.4658
  137CHL1    C516332   1.827   1.592   3.527  0.7804 -0.4586  0.1642
  137CHL1    C616333   1.800   1.703   3.596 -0.5823  0.1305 -0.6294
  137CHL1    H616334   1.797   1.795   3.536 -2.4083 -0.3442 -1.3483
  137CHL1    C716335   1.782   1.709   3.750 -0.2550  0.5919  0.6998
  137CHL1   H7A16336   1.855   1.778   3.799  1.1005 -0.6125  0.4591
  137CHL1   H7B16337   1.674   1.725   3.770 -0.4197  0.0747  0.2543
  137CHL1    C816338   1.828   1.568   3.812  0.0444  0.5111  0.4106
  137CHL1    H816339   1.939   1.566   3.809  0.0291  0.1270 -0.3179
  137CHL1   C1416340   1.779   1.546   3.954 -0.1431 -0.0589  0.0219
  137CHL1   H1416341   1.668   1.538   3.950 -0.0365 -2.3521  0.1777
  137CHL1   C1516342   1.806   1.661   4.050 -0.0055  0.3661 -0.6971
  137CHL1  H15A16343   1.909   1.702   4.044 -0.3702  1.1417 -2.4810
  137CHL1  H15B16344   1.734   1.744   4.033 -0.6618 -0.5090 -2.4244
  137CHL1   C1616345   1.786   1.604   4.188 -0.0518 -0.0927  0.7133
  137CHL1  H16A16346   1.881   1.622   4.242  0.5257 -1.0934  0.0674
  137CHL1  H16B16347   1.691   1.643   4.230  0.1666  0.6196  0.5605
  137CHL1   C1716348   1.776   1.450   4.172 -0.9979 -0.1997  0.1001
  137CHL1   H1716349   1.667   1.429   4.166 -1.2995  1.2713  0.1486
  137CHL1   C1316350   1.822   1.426   4.026  0.3767  0.5553 -0.0971
  137CHL1   C1816351   1.972   1.404   4.032 -0.2817 -0.4599 -0.0371
  137CHL1  H18A16352   2.020   1.485   4.092 -0.2195  0.0389 -0.7447
  137CHL1  H18B16353   2.002   1.303   4.067 -1.7158 -0.5782  0.9167
  137CHL1  H18C16354   2.007   1.412   3.927 -1.7512 -0.9098 -0.5940
  137CHL1   C1216355   1.754   1.306   3.957  0.7138  0.4440  0.9632
  137CHL1  H12A16356   1.782   1.207   3.998  0.7013  0.6287  1.4206
  137CHL1  H12B16357   1.643   1.305   3.957  0.7075  0.8109  1.8316
  137CHL1   C1116358   1.803   1.305   3.810 -0.0727 -0.4144  0.3055
  137CHL1  H11A16359   1.908   1.271   3.801  0.4256  1.4177 -1.4554
  137CHL1  H11B16360   1.740   1.229   3.758  2.3499 -2.2810 -0.0770
  137CHL1    C916361   1.787   1.439   3.730 -0.1347 -0.0639  0.0526
  137CHL1    H916362   1.677   1.454   3.719 -0.4497 -2.6283 -1.0858
  137CHL1   C1016363   1.842   1.442   3.581 -0.3639 -1.4229  0.1610
  137CHL1   C1916364   1.995   1.420   3.581 -0.2942  0.3267  0.0604
  137CHL1  H19A16365   2.044   1.490   3.652  0.1390 -0.0097  0.0938
  137CHL1  H19B16366   2.000   1.317   3.620 -2.0063 -0.4434 -1.6054
  137CHL1  H19C16367   2.029   1.421   3.475 -1.0442  0.3225 -0.1881
  137CHL1    C116368   1.769   1.335   3.503  0.1322  0.2857 -0.1984
  137CHL1   H1A16369   1.811   1.236   3.532  0.9751  0.3896 -0.9932
  137CHL1   H1B16370   1.662   1.341   3.529  0.2452 -2.5803  1.2593
  137CHL1    C216371   1.779   1.344   3.350  0.3061  0.1084  0.5575
  137CHL1   H2A16372   1.690   1.286   3.316  0.6656 -0.5641  0.7358
  137CHL1   H2B16373   1.870   1.294   3.310 -0.0037 -0.7743  0.9418
  137CHL1   C2016374   1.824   1.380   4.295 -0.0832 -0.7785 -0.1534
  137CHL1   H2016375   1.934   1.396   4.300 -0.1692 -0.4614  1.1568
  137CHL1   C2116376   1.801   1.232   4.279 -0.5319  0.5042  0.2237
  137CHL1  H21A16377   1.693   1.212   4.265 -0.1085 -0.9457 -1.4145
  137CHL1  H21B16378   1.845   1.168   4.358 -1.2063 -0.0697  0.1458
  137CHL1  H21C16379   1.845   1.194   4.184  1.5362  0.4351  1.1632
  137CHL1   C2216380   1.769   1.434   4.433 -0.5360  0.3347 -0.1420
  137CHL1  H22A16381   1.819   1.382   4.517 -0.2462 -1.5943 -1.4412
  137CHL1  H22B16382   1.796   1.540   4.447  1.2619  0.0864 -1.4441
  137CHL1   C2316383   1.617   1.425   4.437 -0.3395  0.3877 -0.6687
  137CHL1  H23A16384   1.581   1.496   4.360  0.3455 -1.6257 -3.0209
  137CHL1  H23B16385   1.576   1.325   4.409 -2.2761  1.0376 -0.2483
  137CHL1   C2416386   1.562   1.461   4.569 -0.2603  0.0215  0.1145
  137CHL1  H24A16387   1.600   1.387   4.643 -0.3969 -1.1493 -0.9582
  137CHL1  H24B16388   1.604   1.555   4.612  1.1765 -0.7218  0.3985
  137CHL1   C2516389   1.407   1.469   4.589 -0.8668  0.2712  0.2918
  137CHL1   H2516390   1.382   1.485   4.696 -0.6439 -0.3674  0.4392
  137CHL1   C2616391   1.364   1.586   4.502  0.0556  0.7149  0.0417
  137CHL1  H26A16392   1.405   1.681   4.544  2.8887  0.8088 -2.5911
  137CHL1  H26B16393   1.402   1.579   4.398 -2.0651  1.8843 -0.8815
  137CHL1  H26C16394   1.254   1.594   4.492 -0.0956  0.0862  1.0320
  137CHL1   C2716395   1.346   1.337   4.548 -0.2207  0.0474 -0.0882
  137CHL1  H27A16396   1.340   1.346   4.437  4.1281 -1.4215 -0.6366
  137CHL1  H27B16397   1.416   1.252   4.566  0.5551  0.7406  0.2331
  137CHL1  H27C16398   1.245   1.319   4.589 -1.1301  4.4073  0.0445
  138CHL1    C316399   1.332   0.333   3.298 -0.2320 -0.9540 -0.0819
  138CHL1    H316400   1.235   0.385   3.311  0.8842  1.1407  0.3256
  138CHL1    O316401   1.386   0.368   3.171 -0.2751  0.1336 -0.3768
  138CHL1   H3'16402   1.473   0.337   3.197 -0.9796 -0.2316  1.8470
  138CHL1    C416403   1.428   0.392   3.406 -0.2300  0.0407  0.7834
  138CHL1   H4A16404   1.523   0.336   3.394  0.0737  0.6933  0.0476
  138CHL1   H4B16405   1.443   0.502   3.393 -0.7484  0.3188  2.3431
  138CHL1    C516406   1.381   0.358   3.548  0.8245  0.0085 -0.2253
  138CHL1    C616407   1.350   0.452   3.641 -0.0694  0.1129  0.1370
  138CHL1    H616408   1.374   0.557   3.619  0.4971 -0.0086  0.1527
  138CHL1    C716409   1.294   0.419   3.776 -0.0186 -0.0330  0.0559
  138CHL1   H7A16410   1.351   0.478   3.851  0.7254 -0.0171 -0.5057
  138CHL1   H7B16411   1.191   0.458   3.784 -0.1843 -0.4855  0.1411
  138CHL1    C816412   1.298   0.269   3.819 -0.0842  0.3409 -0.1942
  138CHL1    H816413   1.403   0.258   3.854  0.5129  1.5394 -1.5011
  138CHL1   C1416414   1.197   0.244   3.935 -0.0240  0.4479  0.6197
  138CHL1   H1416415   1.107   0.283   3.881  1.8751  0.5271 -2.8129
  138CHL1   C1516416   1.193   0.335   4.056 -0.1435  0.3170 -0.8197
  138CHL1  H15A16417   1.299   0.354   4.084 -0.0948  1.0437 -1.4734
  138CHL1  H15B16418   1.141   0.428   4.024 -0.5256 -0.1476 -1.5904
  138CHL1   C1616419   1.111   0.253   4.160 -0.2677  0.7048  0.5100
  138CHL1  H16A16420   1.175   0.236   4.248 -0.4169  1.0360  0.6850
  138CHL1  H16B16421   1.026   0.320   4.187 -0.2956  1.1393 -0.5762
  138CHL1   C1716422   1.077   0.120   4.091  0.3600  0.3932  0.2834
  138CHL1   H1716423   0.992   0.139   4.022  0.9238  2.2001  0.0390
  138CHL1   C1316424   1.185   0.103   3.980  0.0615  0.9296  0.2726
  138CHL1   C1816425   1.319   0.055   4.042  0.4237  0.1699  0.8161
  138CHL1  H18A16426   1.405   0.050   3.973 -0.9173 -1.6743 -0.8231
  138CHL1  H18B16427   1.350   0.114   4.131 -0.1206 -0.9386  1.7686
  138CHL1  H18C16428   1.297  -0.050   4.072 -0.6629  0.6050  1.5943
  138CHL1   C1216429   1.147   0.013   3.857  0.3766 -0.1787 -0.6200
  138CHL1  H12A16430   1.154  -0.096   3.879  0.4191 -0.0581  0.0049
  138CHL1  H12B16431   1.049   0.053   3.824  0.0778  0.4420  0.9400
  138CHL1   C1116432   1.242   0.032   3.743 -0.3151 -0.4746  0.6180
  138CHL1  H11A16433   1.335  -0.017   3.779  0.1380  0.3933  0.6645
  138CHL1  H11B16434   1.208  -0.026   3.654  1.3609 -0.1839 -0.2465
  138CHL1    C916435   1.264   0.181   3.701  0.3537 -0.0475  0.7269
  138CHL1    H916436   1.161   0.219   3.680  0.0450 -1.1867  0.1129
  138CHL1   C1016437   1.349   0.209   3.578  0.2167 -0.2122  0.6421
  138CHL1   C1916438   1.488   0.145   3.595 -0.1605  0.0132  0.2679
  138CHL1  H19A16439   1.477   0.035   3.610 -0.3774 -0.3782 -2.3248
  138CHL1  H19B16440   1.538   0.153   3.496 -0.2371  1.5457  0.3429
  138CHL1  H19C16441   1.551   0.180   3.680  1.5063 -0.3311 -0.7613
  138CHL1    C116442   1.272   0.144   3.455  0.0250 -0.3849 -0.2855
  138CHL1   H1A16443   1.270   0.034   3.466 -0.0870 -0.3199  0.3253
  138CHL1   H1B16444   1.170   0.186   3.465  0.5355  0.9870 -0.5353
  138CHL1    C216445   1.316   0.179   3.316 -0.3111 -0.3048 -0.0442
  138CHL1   H2A16446   1.238   0.159   3.239 -1.7745  0.0007  1.3216
  138CHL1   H2B16447   1.410   0.128   3.285 -0.3609  0.3967 -1.4424
  138CHL1   C2016448   1.043   0.005   4.188 -0.6666  0.6484 -0.7882
  138CHL1   H2016449   1.137  -0.036   4.232 -1.7990 -0.3982  0.7556
  138CHL1   C2116450   0.972  -0.098   4.110 -0.3087 -0.2184 -0.3402
  138CHL1  H21A16451   0.876  -0.058   4.070 -0.9236 -0.2281  1.0388
  138CHL1  H21B16452   0.942  -0.183   4.174  1.3600 -1.1375 -0.7296
  138CHL1  H21C16453   1.038  -0.144   4.034 -0.0667 -0.2424 -0.1168
  138CHL1   C2216454   0.948   0.039   4.308 -0.2004  0.0179  0.1536
  138CHL1  H22A16455   0.867   0.109   4.278 -0.8228 -0.8700 -0.2856
  138CHL1  H22B16456   0.902  -0.058   4.337 -0.9449  0.1479 -0.5457
  138CHL1   C2316457   1.027   0.091   4.434 -0.0759  0.2595  0.0867
  138CHL1  H23A16458   1.072   0.001   4.481  0.9580 -0.7099 -2.5436
  138CHL1  H23B16459   1.113   0.156   4.405 -1.3706  2.2458  0.5316
  138CHL1   C2416460   0.944   0.173   4.527 -1.0010  0.1479 -0.6921
  138CHL1  H24A16461   0.939   0.266   4.466  0.3930 -0.7864 -2.3189
  138CHL1  H24B16462   0.845   0.128   4.548 -0.1431 -1.8328 -0.6456
  138CHL1   C2516463   1.006   0.209   4.669 -0.0547 -0.4090  0.4153
  138CHL1   H2516464   1.115   0.230   4.663 -0.3067  0.6860 -0.7709
  138CHL1   C2616465   0.952   0.332   4.737 -0.4303  0.1717  0.4202
  138CHL1  H26A16466   0.979   0.419   4.674 -1.5364  0.3032  0.1087
  138CHL1  H26B16467   0.843   0.316   4.745 -0.0637 -2.5456  1.0482
  138CHL1  H26C16468   0.999   0.345   4.837 -0.6078 -0.0475  0.5324
  138CHL1   C2716469   0.989   0.087   4.756  0.0468  0.3133 -0.6885
  138CHL1  H27A16470   1.015  -0.013   4.715  0.9224 -0.2983  1.2546
  138CHL1  H27B16471   1.034   0.099   4.857  1.1772 -1.6354 -0.8946
  138CHL1  H27C16472   0.884   0.089   4.792 -0.2588  0.3535 -1.5491
  139CHL1    C316473   2.700   5.794   3.285 -0.5720 -0.1767  0.2279
  139CHL1    H316474   2.778   5.784   3.363 -1.5697  2.7508  1.7489
  139CHL1    O316475   2.748   5.764   3.155  0.7547 -0.2735 -0.2722
  139CHL1   H3'16476   2.712   5.677   3.135  0.4416 -0.7525  2.1221
  139CHL1    C416477   2.587   5.706   3.337 -0.0778 -0.1858  0.0950
  139CHL1   H4A16478   2.499   5.691   3.271 -0.3901 -0.4189  0.5593
  139CHL1   H4B16479   2.629   5.604   3.348 -3.5032 -1.7440  0.0679
  139CHL1    C516480   2.520   5.750   3.463 -0.6893 -0.2298 -0.1848
  139CHL1    C616481   2.500   5.674   3.572 -0.0921  0.1719 -0.2413
  139CHL1    H616482   2.550   5.576   3.572  0.1453  0.2850 -1.0152
  139CHL1    C716483   2.424   5.716   3.693  0.1973 -0.3317 -0.4866
  139CHL1   H7A16484   2.340   5.649   3.720 -2.8918  3.6537  0.9042
  139CHL1   H7B16485   2.490   5.719   3.782  0.0704  1.8458 -0.4156
  139CHL1    C816486   2.353   5.852   3.684 -0.2274  0.0185 -0.8510
  139CHL1    H816487   2.252   5.837   3.640  0.2991 -0.5939 -1.8930
  139CHL1   C1416488   2.333   5.916   3.819 -0.0690 -0.1127 -0.1438
  139CHL1   H1416489   2.436   5.936   3.855  0.1417 -1.5951  0.1538
  139CHL1   C1516490   2.284   5.827   3.938 -0.0176 -0.0370 -0.3467
  139CHL1  H15A16491   2.203   5.770   3.888 -0.4502  1.5907 -1.5840
  139CHL1  H15B16492   2.369   5.766   3.974 -0.1282  0.4921  0.8696
  139CHL1   C1616493   2.241   5.929   4.044 -0.6333  0.1776 -0.0202
  139CHL1  H16A16494   2.132   5.909   4.049 -0.9968  0.9679 -2.7641
  139CHL1  H16B16495   2.299   5.905   4.135 -1.8976 -1.5913  0.3862
  139CHL1   C1716496   2.267   6.072   3.975 -0.2489  0.1993 -0.8168
  139CHL1   H1716497   2.372   6.106   3.991  0.0054  0.5259 -2.8885
  139CHL1   C1316498   2.262   6.046   3.825  0.4037  0.2951 -0.4951
  139CHL1   C1816499   2.114   6.024   3.783  0.2894  0.2943  0.4362
  139CHL1  H18A16500   2.064   5.939   3.835  0.0816 -1.4305 -2.3660
  139CHL1  H18B16501   2.042   6.108   3.797  2.6857  2.4188  0.5829
  139CHL1  H18C16502   2.110   5.988   3.678  2.3447 -0.5148  0.5841
  139CHL1   C1216503   2.331   6.148   3.730  0.1369  0.2458  0.8384
  139CHL1  H12A16504   2.277   6.244   3.716 -1.3847 -0.4024  1.8902
  139CHL1  H12B16505   2.431   6.172   3.771  0.0948  3.6001 -0.7009
  139CHL1   C1116506   2.360   6.091   3.594  1.0480 -0.6580  0.3337
  139CHL1  H11A16507   2.260   6.070   3.550  0.9516 -1.2207  0.8005
  139CHL1  H11B16508   2.417   6.167   3.537  0.7710  0.4575  1.5065
  139CHL1    C916509   2.431   5.952   3.598 -0.1625  0.6362  0.0948
  139CHL1    H916510   2.525   5.975   3.652 -0.4836 -1.7107  1.8321
  139CHL1   C1016511   2.466   5.899   3.458 -0.3871 -0.6664 -0.2552
  139CHL1   C1916512   2.344   5.909   3.365 -0.3106  0.7399 -0.7062
  139CHL1  H19A16513   2.261   5.851   3.412  0.4903  1.4054  1.6562
  139CHL1  H19B16514   2.316   6.016   3.357 -0.0253  0.9583  0.8507
  139CHL1  H19C16515   2.372   5.872   3.264  0.7341 -1.1532  0.2288
  139CHL1    C116516   2.593   5.984   3.423  0.3527  0.6309  0.2188
  139CHL1   H1A16517   2.577   6.093   3.425 -0.5217  0.5188 -0.3174
  139CHL1   H1B16518   2.670   5.956   3.498  1.9480  0.2651 -1.4639
  139CHL1    C216519   2.659   5.943   3.284 -0.6005  0.0091 -0.0302
  139CHL1   H2A16520   2.749   6.003   3.259  1.8129 -2.8501  1.0509
  139CHL1   H2B16521   2.574   5.962   3.216 -1.0866  0.5915  0.7339
  139CHL1   C2016522   2.171   6.174   4.040  0.0508 -0.0998  0.7382
  139CHL1   H2016523   2.069   6.136   4.019  1.2804 -4.1750  1.2386
  139CHL1   C2116524   2.182   6.315   3.977 -0.4625 -0.1825  0.5518
  139CHL1  H21A16525   2.281   6.361   4.002 -0.4197 -1.0352  2.0579
  139CHL1  H21B16526   2.105   6.383   4.019 -0.1431  0.4983  0.0576
  139CHL1  H21C16527   2.179   6.316   3.866 -1.0012 -0.1749  0.5656
  139CHL1   C2216528   2.187   6.191   4.194 -0.2899  0.3203 -0.0364
  139CHL1  H22A16529   2.153   6.097   4.242  1.6353 -0.6766 -0.4849
  139CHL1  H22B16530   2.294   6.216   4.211 -0.2115  0.2446 -0.4099
  139CHL1   C2316531   2.134   6.316   4.266  0.3435 -0.2518 -0.3809
  139CHL1  H23A16532   2.170   6.413   4.226  0.4942  0.3354  1.1095
  139CHL1  H23B16533   2.024   6.322   4.249  0.1990  1.9250  0.9671
  139CHL1   C2416534   2.174   6.318   4.413  0.7570 -0.5098  0.0113
  139CHL1  H24A16535   2.177   6.212   4.444  3.1871 -2.0190 -4.4100
  139CHL1  H24B16536   2.279   6.350   4.431  0.3425  0.6544  0.4119
  139CHL1   C2516537   2.086   6.396   4.508  0.5892  0.0910 -0.2755
  139CHL1   H2516538   1.980   6.366   4.496  0.9832 -2.1672  1.1396
  139CHL1   C2616539   2.117   6.379   4.658  0.0438  0.9894  0.0599
  139CHL1  H26A16540   2.114   6.273   4.692  0.2422  1.1782  0.6776
  139CHL1  H26B16541   2.222   6.413   4.673 -0.0314  1.5862 -0.7372
  139CHL1  H26C16542   2.060   6.447   4.725 -0.0401 -1.2084  2.3606
  139CHL1   C2716543   2.099   6.541   4.476 -0.4018  0.6468 -0.4284
  139CHL1  H27A16544   2.200   6.578   4.503  0.1202 -0.9750 -0.0435
  139CHL1  H27B16545   2.071   6.568   4.372 -1.1927 -0.5585 -0.5432
  139CHL1  H27C16546   2.030   6.601   4.539 -2.3179 -0.6790 -1.1755
  140CHL1    C316547   1.075   6.259   3.493 -0.4550  0.1833  0.4568
  140CHL1    H316548   0.967   6.283   3.500 -1.0689 -2.3003  0.4746
  140CHL1    O316549   1.088   6.173   3.379 -0.0238 -0.9688  0.2792
  140CHL1   H3'16550   1.175   6.133   3.389 -0.5268 -2.2860 -0.4622
  140CHL1    C416551   1.172   6.376   3.478  0.0240 -0.5502 -0.5629
  140CHL1   H4A16552   1.275   6.336   3.472 -0.1225 -1.4402  1.6905
  140CHL1   H4B16553   1.150   6.434   3.386 -0.3322 -1.2200 -0.9046
  140CHL1    C516554   1.164   6.462   3.602 -0.2202  0.3138  0.3203
  140CHL1    C616555   1.136   6.587   3.599  0.4789 -0.0668 -0.1019
  140CHL1    H616556   1.102   6.634   3.505 -1.5768 -2.7148 -0.8279
  140CHL1    C716557   1.130   6.675   3.720 -0.1652 -0.1509 -0.3008
  140CHL1   H7A16558   1.163   6.776   3.688 -2.3149  0.3150 -1.2445
  140CHL1   H7B16559   1.025   6.689   3.752 -0.1970 -1.2571  0.1248
  140CHL1    C816560   1.196   6.621   3.851 -0.1332  0.2450  0.8514
  140CHL1    H816561   1.304   6.640   3.836 -0.4302  1.1820 -0.2878
  140CHL1   C1416562   1.145   6.685   3.984 -0.6486  0.1103  0.3417
  140CHL1   H1416563   1.040   6.653   3.996 -0.8175  0.5126 -0.0799
  140CHL1   C1516564   1.137   6.837   3.991  0.7053  0.4586  0.1385
  140CHL1  H15A16565   1.228   6.877   3.941  0.2237 -0.5636 -1.6200
  140CHL1  H15B16566   1.041   6.878   3.955  0.9443  0.1330 -0.9140
  140CHL1   C1616567   1.136   6.868   4.145 -0.2417 -0.3774  0.5760
  140CHL1  H16A16568   1.203   6.956   4.158 -0.5343 -0.0367 -0.1326
  140CHL1  H16B16569   1.037   6.908   4.172 -0.5310 -0.9428  0.3775
  140CHL1   C1716570   1.171   6.737   4.210 -0.1579 -0.0608 -0.1524
  140CHL1   H1716571   1.076   6.687   4.239 -0.4918  0.6753  0.0462
  140CHL1   C1316572   1.226   6.638   4.103 -0.6327  0.2223  0.6453
  140CHL1   C1816573   1.379   6.667   4.082 -0.1796  0.1801 -0.5191
  140CHL1  H18A16574   1.435   6.638   4.172  0.8434 -0.9919 -1.4977
  140CHL1  H18B16575   1.414   6.596   4.004  0.1713  0.2190 -0.3954
  140CHL1  H18C16576   1.399   6.773   4.056 -0.2610  0.5361  0.8346
  140CHL1   C1216577   1.192   6.491   4.117 -0.9416  0.7467 -0.6698
  140CHL1  H12A16578   1.235   6.436   4.204 -0.5459  0.4735 -1.0276
  140CHL1  H12B16579   1.083   6.486   4.134 -0.9769  0.7087 -0.8971
  140CHL1   C1116580   1.226   6.406   3.998  0.0245 -0.2850 -0.3129
  140CHL1  H11A16581   1.337   6.398   4.000  0.0103 -0.3748  0.4836
  140CHL1  H11B16582   1.197   6.299   4.012  0.4326 -0.0247  3.8654
  140CHL1    C916583   1.169   6.467   3.861  0.0968 -0.1557 -0.2105
  140CHL1    H916584   1.061   6.457   3.884 -0.1048  3.5382  1.0174
  140CHL1   C1016585   1.189   6.389   3.737 -0.2992 -0.2487  0.2190
  140CHL1   C1916586   1.342   6.363   3.742  0.7186  0.1060  0.6936
  140CHL1  H19A16587   1.366   6.287   3.819 -0.2843 -1.8086 -0.7836
  140CHL1  H19B16588   1.384   6.312   3.652  0.5199 -0.5830  0.9856
  140CHL1  H19C16589   1.411   6.448   3.762  3.7539 -1.6953 -1.2077
  140CHL1    C116590   1.104   6.261   3.747  0.1422 -0.1227 -0.1334
  140CHL1   H1A16591   1.138   6.203   3.836 -2.7551  1.9844  2.5490
  140CHL1   H1B16592   1.001   6.294   3.768  0.4142 -0.8162  2.7195
  140CHL1    C216593   1.113   6.180   3.617  0.6562 -0.8753  0.3986
  140CHL1   H2A16594   1.034   6.102   3.621  0.5037 -0.7732 -0.4355
  140CHL1   H2B16595   1.212   6.128   3.621  1.1751  0.1845  2.6619
  140CHL1   C2016596   1.241   6.747   4.350  0.1509 -0.1832  0.8854
  140CHL1   H2016597   1.170   6.796   4.420  1.2164  1.7137  0.7328
  140CHL1   C2116598   1.369   6.835   4.350 -0.2314 -1.3129  0.5180
  140CHL1  H21A16599   1.385   6.866   4.456 -0.7702 -1.2136  0.5736
  140CHL1  H21B16600   1.355   6.925   4.286  0.2168 -2.6168 -1.4839
  140CHL1  H21C16601   1.457   6.777   4.317 -0.7233 -0.8395 -1.7994
  140CHL1   C2216602   1.250   6.614   4.419 -0.6736 -0.3229  0.3114
  140CHL1  H22A16603   1.160   6.551   4.400 -0.0783 -1.1918  0.3172
  140CHL1  H22B16604   1.323   6.555   4.359  1.1058  0.8191  1.2743
  140CHL1   C2316605   1.274   6.629   4.571 -0.1517  0.2627  0.4920
  140CHL1  H23A16606   1.367   6.688   4.586  1.6186 -2.2595  0.0704
  140CHL1  H23B16607   1.194   6.698   4.607  0.0506  0.3779  0.7181
  140CHL1   C2416608   1.287   6.499   4.644  0.3266  0.4601 -0.4109
  140CHL1  H24A16609   1.188   6.448   4.634  1.5046 -1.5423 -3.5100
  140CHL1  H24B16610   1.361   6.430   4.598  0.2109  1.4155 -2.1167
  140CHL1   C2516611   1.330   6.504   4.800 -0.3526  0.3465  0.8558
  140CHL1   H2516612   1.398   6.592   4.806 -0.1871  0.4949 -1.9090
  140CHL1   C2616613   1.405   6.381   4.846 -0.5361 -0.8080 -0.9205
  140CHL1  H26A16614   1.501   6.366   4.792  0.2585  0.7551 -0.0176
  140CHL1  H26B16615   1.424   6.398   4.954  0.2289  2.5738 -1.4579
  140CHL1  H26C16616   1.338   6.292   4.843  0.1401 -1.5487  2.1399
  140CHL1   C2716617   1.212   6.522   4.891 -0.3347 -0.3847 -0.0089
  140CHL1  H27A16618   1.243   6.529   4.997  1.7099 -0.8552 -0.5182
  140CHL1  H27B16619   1.171   6.624   4.871  1.6057  0.7146  1.3078
  140CHL1  H27C16620   1.142   6.437   4.887  0.2413 -0.8680  0.0358
  141DOPC     N16621   5.947   2.313   7.167 -0.6254  0.2470 -0.3782
  141DOPC   C1216622   5.909   2.408   7.055  0.1501 -0.0536  0.6045
  141DOPC  H12A16623   5.843   2.478   7.103 -1.8527 -0.5829 -1.2037
  141DOPC  H12B16624   5.857   2.358   6.975  0.6190  1.6106 -0.8024
  141DOPC   C1316625   6.028   2.206   7.110 -0.8361 -0.2058  0.2173
  141DOPC  H13A16626   6.085   2.158   7.189  0.5880  1.5133  0.2985
  141DOPC  H13B16627   5.963   2.145   7.050  1.6420 -0.2002 -2.7201
  141DOPC  H13C16628   6.099   2.251   7.042  0.9449 -3.3047 -0.1591
  141DOPC   C1416629   5.831   2.250   7.234 -0.6931  0.2211 -0.1167
  141DOPC  H14A16630   5.851   2.213   7.333 -1.5432 -2.1649 -0.7751
  141DOPC  H14B16631   5.753   2.325   7.245 -2.0742 -1.4668  2.8560
  141DOPC  H14C16632   5.788   2.172   7.174 -0.1504 -0.1236 -0.0625
  141DOPC   C1516633   6.038   2.390   7.257 -0.2727  0.5770 -0.7479
  141DOPC  H15A16634   6.074   2.332   7.341  0.5711  0.4047 -1.2206
  141DOPC  H15B16635   5.989   2.478   7.298 -1.3312  1.0557 -2.8667
  141DOPC  H15C16636   6.121   2.424   7.197  0.5899 -0.7114 -0.3302
  141DOPC   C1116637   6.021   2.498   6.999 -0.1806  0.2108  0.7253
  141DOPC  H11A16638   6.118   2.444   6.995  0.4004  1.2512 -0.0742
  141DOPC  H11B16639   5.997   2.532   6.896 -1.3342 -2.1032  0.1579
  141DOPC     P16640   5.956   2.733   7.092  0.3881 -0.0804 -0.2858
  141DOPC   O1316641   6.038   2.857   7.118 -0.0798 -0.1884 -0.5235
  141DOPC   O1416642   5.849   2.703   7.187  0.3657 -0.6971 -0.2785
  141DOPC   O1216643   6.049   2.608   7.081 -0.3620  0.4506  0.2118
  141DOPC   O1116644   5.894   2.737   6.947  0.5597 -0.2249  0.4463
  141DOPC    C116645   5.971   2.807   6.845 -0.4982  0.3569  0.0500
  141DOPC    HA16646   6.079   2.787   6.863 -0.6824  0.6660  1.6623
  141DOPC    HB16647   5.947   2.916   6.843  2.5398  1.1139 -0.5436
  141DOPC    C216648   5.926   2.770   6.695  0.1430  0.2689  0.2402
  141DOPC    HS16649   5.815   2.777   6.704  0.0619 -1.5013  1.0634
  141DOPC   O2116650   5.964   2.637   6.660 -0.3806  1.0249  0.2049
  141DOPC   C2116651   5.870   2.550   6.623  0.1213  1.0001  0.0042
  141DOPC   O2216652   5.750   2.558   6.632 -0.4580  0.2059  0.0665
  141DOPC   C2216653   5.948   2.420   6.594 -0.4005  0.4032  0.1654
  141DOPC   H2R16654   6.014   2.401   6.682  0.4536  1.6260 -0.1799
  141DOPC   H2S16655   6.008   2.426   6.501  1.5299 -1.5164  1.1688
  141DOPC    C316656   5.980   2.877   6.596  0.0163  0.0970  0.1989
  141DOPC    HX16657   6.091   2.872   6.601  0.0632 -1.7184 -1.3357
  141DOPC    HY16658   5.956   2.984   6.615 -0.2571  0.3670 -1.4490
  141DOPC   O3116659   5.947   2.841   6.464  1.2618 -0.2065  0.1330
  141DOPC   C3116660   5.816   2.842   6.429  0.3292 -0.4099 -0.1588
  141DOPC   O3216661   5.730   2.882   6.507 -0.2350 -0.2315 -0.6129
  141DOPC   C3216662   5.788   2.781   6.288 -0.1713  0.4251  0.0156
  141DOPC   H2X16663   5.728   2.859   6.236 -0.0168  0.2004 -0.5095
  141DOPC   H2Y16664   5.886   2.759   6.240  0.3299 -0.4365  1.3695
  141DOPC   C2316665   5.852   2.297   6.568 -0.5525 -0.5661 -0.3591
  141DOPC   H3R16666   5.768   2.283   6.639  0.0225  0.4606  0.5527
  141DOPC   H3S16667   5.911   2.203   6.578 -0.1171 -0.2184  0.4185
  141DOPC   C2416668   5.795   2.284   6.421  0.0134 -0.5691 -0.7138
  141DOPC   H4R16669   5.881   2.260   6.354 -0.0437  0.5837 -1.2348
  141DOPC   H4S16670   5.768   2.388   6.391  0.7521  0.9436  3.2643
  141DOPC   C2516671   5.680   2.181   6.411  1.2509  0.5694 -0.0894
  141DOPC   H5R16672   5.617   2.206   6.499  1.9936  1.0246  0.3303
  141DOPC   H5S16673   5.726   2.082   6.433 -0.0481  0.0686  0.4703
  141DOPC   C2616674   5.597   2.194   6.284 -1.0212  0.5339  0.5413
  141DOPC   H6R16675   5.581   2.304   6.273  0.4902  0.5959 -1.9221
  141DOPC   H6S16676   5.504   2.133   6.285 -1.2827  0.8533 -0.8635
  141DOPC   C2716677   5.673   2.149   6.157 -0.3169 -0.2899 -0.4768
  141DOPC   H7R16678   5.689   2.040   6.170  1.9089  0.0129 -0.4166
  141DOPC   H7S16679   5.771   2.200   6.151 -0.1198 -0.6631 -0.4289
  141DOPC   C2816680   5.594   2.183   6.028 -0.0302 -0.4557 -0.4400
  141DOPC   H8R16681   5.590   2.294   6.030  0.1908 -0.4610  0.5824
  141DOPC   H8S16682   5.487   2.155   6.037  0.0992 -0.1651  3.2709
  141DOPC   C2916683   5.657   2.140   5.893  0.3417  0.5227  0.1638
  141DOPC   H9R16684   5.751   2.193   5.871 -0.8295  1.8550 -2.0019
  141DOPC  C21016685   5.607   2.053   5.803  0.6812  0.6842  0.3120
  141DOPC  H10R16686   5.671   2.021   5.719  0.2172 -1.9032  0.8528
  141DOPC  C21116687   5.484   1.969   5.816  0.3447 -0.4905  0.3508
  141DOPC  H11R16688   5.429   1.989   5.911  0.7054  0.0453  0.4498
  141DOPC  H11S16689   5.511   1.861   5.818  4.1568  0.3453  0.8671
  141DOPC  C21216690   5.383   2.016   5.714  0.4147  0.6192 -0.1201
  141DOPC  H12R16691   5.354   2.123   5.715 -1.0992  0.2836 -1.9918
  141DOPC  H12S16692   5.283   1.971   5.736  0.5650  0.5206  0.3910
  141DOPC  C21316693   5.419   1.972   5.574  0.6148 -0.4348  0.8453
  141DOPC  H13R16694   5.442   1.865   5.557  0.0972 -0.3063 -0.8649
  141DOPC  H13S16695   5.515   2.015   5.539  0.5227 -1.1769 -0.3663
  141DOPC  C21416696   5.318   2.008   5.465 -0.0974 -0.2923  0.7988
  141DOPC  H14R16697   5.292   2.116   5.468 -0.3802 -0.3783  2.1545
  141DOPC  H14S16698   5.223   1.951   5.477  0.3910 -1.0394  1.2259
  141DOPC  C21516699   5.386   1.984   5.330 -0.2594  0.2171  0.3522
  141DOPC  H15R16700   5.437   1.885   5.332  1.0666  0.8829  1.2111
  141DOPC  H15S16701   5.462   2.065   5.326  0.0058 -0.0494 -0.2458
  141DOPC  C21616702   5.294   2.015   5.204  0.4397  0.1781  0.4794
  141DOPC  H16R16703   5.232   2.106   5.214 -1.5699 -1.0792  0.1244
  141DOPC  H16S16704   5.225   1.929   5.191  1.3018 -0.3791 -0.5901
  141DOPC  C21716705   5.375   2.044   5.075 -0.1902 -0.2604 -0.2079
  141DOPC  H17R16706   5.453   1.966   5.057  1.3888  1.6125 -1.9209
  141DOPC  H17S16707   5.427   2.142   5.076 -1.3692  0.3951 -0.9472
  141DOPC  C21816708   5.290   2.051   4.947  0.5782 -0.2493 -0.3384
  141DOPC  H18R16709   5.346   2.052   4.852 -0.9499  0.7144 -1.2762
  141DOPC  H18S16710   5.216   2.134   4.959  0.7086 -0.0944 -0.6090
  141DOPC  H18T16711   5.224   1.962   4.950 -1.4586  1.1212 -1.4878
  141DOPC   C3316712   5.714   2.651   6.291  0.1122  0.1811  0.2255
  141DOPC   H3X16713   5.622   2.663   6.352 -0.4587 -2.1828 -0.0561
  141DOPC   H3Y16714   5.766   2.579   6.358  0.3030  1.1125  1.1103
  141DOPC   C3416715   5.659   2.578   6.164  1.0325  0.4008  0.6483
  141DOPC   H4X16716   5.577   2.511   6.197  0.5804 -0.9469 -2.7500
  141DOPC   H4Y16717   5.743   2.523   6.115 -0.6006 -0.7627 -0.9786
  141DOPC   C3516718   5.594   2.664   6.056  0.1624 -0.6571 -0.1261
  141DOPC   H5X16719   5.673   2.701   5.988 -0.3792 -0.4445 -0.6539
  141DOPC   H5Y16720   5.557   2.757   6.104  2.3580  1.5231 -2.3487
  141DOPC   C3616721   5.483   2.602   5.970 -0.7600  0.0169 -0.2992
  141DOPC   H6X16722   5.512   2.500   5.938 -2.0735 -0.4847  0.0279
  141DOPC   H6Y16723   5.393   2.581   6.031 -2.8547 -0.1397 -3.2106
  141DOPC   C3716724   5.447   2.688   5.850 -0.6655  0.0347 -1.0329
  141DOPC   H7X16725   5.463   2.796   5.870 -0.5919  0.4623 -3.2106
  141DOPC   H7Y16726   5.526   2.677   5.773 -0.1432  1.9860 -0.8207
  141DOPC   C3816727   5.310   2.664   5.803 -0.1590 -1.2007 -0.3565
  141DOPC   H8X16728   5.238   2.704   5.877  1.0342 -0.5022  0.4491
  141DOPC   H8Y16729   5.293   2.554   5.812  0.9744 -1.2844  0.9648
  141DOPC   C3916730   5.297   2.707   5.657  0.5752  0.6444  0.5385
  141DOPC   H9X16731   5.374   2.776   5.621  1.0289 -0.9003 -1.6343
  141DOPC  C31016732   5.190   2.684   5.576 -0.4842 -0.0322  0.4464
  141DOPC  H10X16733   5.182   2.732   5.477 -1.3069 -0.2138  0.4129
  141DOPC  C31116734   5.070   2.612   5.623 -0.1941 -0.4588 -0.2321
  141DOPC  H11X16735   5.042   2.639   5.727 -2.0740 -1.6697 -0.3855
  141DOPC  H11Y16736   5.096   2.505   5.636  0.0189 -0.3530  0.2635
  141DOPC  C31216737   4.940   2.618   5.540 -0.6772 -0.3061 -0.5942
  141DOPC  H12X16738   4.871   2.541   5.582  0.3910  0.2468  2.3479
  141DOPC  H12Y16739   4.968   2.581   5.439 -1.0050 -1.3102 -0.3286
  141DOPC  C31316740   4.873   2.758   5.548  0.1309 -0.0857 -0.0420
  141DOPC  H13X16741   4.835   2.773   5.651 -0.3567  1.7512 -0.4444
  141DOPC  H13Y16742   4.958   2.829   5.539  0.5618 -0.4747  0.8604
  141DOPC  C31416743   4.763   2.767   5.440 -0.6619 -0.5652  0.6598
  141DOPC  H14X16744   4.705   2.857   5.470  0.3738  0.4432 -0.2765
  141DOPC  H14Y16745   4.798   2.784   5.336  0.1508  1.5399  1.2291
  141DOPC  C31516746   4.671   2.645   5.437  0.3690 -0.1462  0.3758
  141DOPC  H15X16747   4.615   2.635   5.532 -0.3247  0.5264  0.0453
  141DOPC  H15Y16748   4.731   2.553   5.418 -2.0031 -1.5312 -0.9641
  141DOPC  C31616749   4.567   2.652   5.326 -0.1910 -0.4414 -0.0617
  141DOPC  H16X16750   4.484   2.718   5.360  0.5667 -0.9935  3.1405
  141DOPC  H16Y16751   4.621   2.687   5.235  0.0021 -2.2859 -0.7021
  141DOPC  C31716752   4.489   2.519   5.304  0.0625  0.3073  0.3403
  141DOPC  H17X16753   4.547   2.444   5.247  2.1750  0.5169  2.0687
  141DOPC  H17Y16754   4.457   2.486   5.405 -1.7538  0.3926 -0.1608
  141DOPC  C31816755   4.357   2.546   5.222 -0.6997 -0.1017  0.9196
  141DOPC  H18X16756   4.390   2.581   5.122 -0.0328 -0.7486  0.9058
  141DOPC  H18Y16757   4.292   2.456   5.223 -1.8293  0.6442 -0.5739
  141DOPC  H18Z16758   4.298   2.622   5.278  1.1371  1.9543  0.2094
  142DOPC     N16759   7.118   2.663   7.416 -0.0514 -0.4307  0.2361
  142DOPC   C1216760   7.060   2.670   7.274 -0.0554  0.0679  0.2628
  142DOPC  H12A16761   6.966   2.723   7.280 -0.0577  0.1107 -0.0879
  142DOPC  H12B16762   7.028   2.570   7.250  3.2315 -0.7493 -1.3736
  142DOPC   C1316763   7.230   2.579   7.431  0.1733  0.0489 -0.4154
  142DOPC  H13A16764   7.253   2.577   7.537 -2.3665  1.4204  0.2272
  142DOPC  H13B16765   7.203   2.477   7.407  0.5203 -0.6183  1.8219
  142DOPC  H13C16766   7.314   2.611   7.371  0.7701 -1.8902 -0.6942
  142DOPC   C1416767   7.010   2.616   7.506 -0.5077  0.4597 -0.2846
  142DOPC  H14A16768   6.923   2.679   7.502  0.7022  2.1766 -0.3517
  142DOPC  H14B16769   6.976   2.515   7.487  1.0125 -0.5890  2.1424
  142DOPC  H14C16770   7.049   2.609   7.606  1.6342 -3.1728 -1.1732
  142DOPC   C1516771   7.160   2.803   7.460  0.8337 -0.4475  0.1977
  142DOPC  H15A16772   7.193   2.812   7.563 -0.4784 -0.7577  0.6616
  142DOPC  H15B16773   7.085   2.878   7.442  1.1753 -0.4425 -1.3630
  142DOPC  H15C16774   7.241   2.836   7.397 -0.7973  2.2750 -0.6273
  142DOPC   C1116775   7.151   2.724   7.168  0.0834  0.4465  0.3721
  142DOPC  H11A16776   7.092   2.752   7.078 -1.8190 -0.8557  1.1532
  142DOPC  H11B16777   7.193   2.820   7.203 -1.7705  2.8751 -3.3456
  142DOPC     P16778   7.241   2.509   7.052 -0.0238 -0.3777 -0.1860
  142DOPC   O1316779   7.115   2.433   7.080  0.1791 -0.4495 -0.2505
  142DOPC   O1416780   7.373   2.440   7.050  0.2696 -0.3231  0.0800
  142DOPC   O1216781   7.256   2.628   7.153 -0.2673 -0.2411 -0.5155
  142DOPC   O1116782   7.236   2.583   6.919 -0.7338  0.0861 -0.2505
  142DOPC    C116783   7.114   2.627   6.857 -0.0203 -0.6916 -0.0016
  142DOPC    HA16784   7.125   2.738   6.849  0.9014 -0.4275  3.2467
  142DOPC    HB16785   7.020   2.618   6.915 -0.6752  0.9506 -0.7260
  142DOPC    C216786   7.090   2.576   6.705  0.1310  0.2678  0.0121
  142DOPC    HS16787   7.036   2.654   6.647 -0.1199  0.2916  0.2758
  142DOPC   O2116788   7.026   2.445   6.707  0.0390  0.3381 -0.7437
  142DOPC   C2116789   6.896   2.448   6.729 -0.3796  0.2380  0.0385
  142DOPC   O2216790   6.831   2.547   6.744  0.2730  0.2083 -0.0043
  142DOPC   C2216791   6.849   2.297   6.738 -0.3693  0.4370 -0.0614
  142DOPC   H2R16792   6.738   2.297   6.747 -0.2886  2.0896  1.7340
  142DOPC   H2S16793   6.891   2.266   6.836  0.0047  0.7382 -0.1242
  142DOPC    C316794   7.229   2.550   6.637 -0.3582 -0.8358  0.1475
  142DOPC    HX16795   7.281   2.467   6.689  1.3076 -0.8109 -1.3861
  142DOPC    HY16796   7.294   2.640   6.652  0.3895 -1.1222 -1.2000
  142DOPC   O3116797   7.223   2.544   6.491  0.4537 -0.2753  0.5606
  142DOPC   C3116798   7.229   2.415   6.445  0.4376 -0.2829  0.4465
  142DOPC   O3216799   7.219   2.316   6.515  0.6812 -0.1411  0.1077
  142DOPC   C3216800   7.244   2.413   6.293  0.5955  0.3577 -0.2873
  142DOPC   H2X16801   7.167   2.477   6.244 -0.3490 -1.4747 -1.2779
  142DOPC   H2Y16802   7.339   2.468   6.274  0.6889  1.1096  1.9881
  142DOPC   C2316803   6.902   2.196   6.628 -0.4445 -0.1296 -0.0443
  142DOPC   H3R16804   6.879   2.091   6.654  1.3760  0.1540  3.2838
  142DOPC   H3S16805   7.011   2.214   6.613 -0.4525 -0.5822 -0.6816
  142DOPC   C2416806   6.834   2.223   6.490 -0.0904 -0.0684  0.1547
  142DOPC   H4R16807   6.855   2.328   6.460  1.8148 -0.2268  0.7705
  142DOPC   H4S16808   6.725   2.209   6.502 -0.2988  1.1901 -0.0998
  142DOPC   C2516809   6.896   2.130   6.386 -0.4270  0.5156 -0.1028
  142DOPC   H5R16810   6.866   2.026   6.408 -0.8020  0.9260  1.4294
  142DOPC   H5S16811   7.006   2.147   6.376 -0.0918 -0.0436  2.1185
  142DOPC   C2616812   6.838   2.157   6.247 -0.6304  0.0378  0.2150
  142DOPC   H6R16813   6.877   2.256   6.216  2.0163 -0.2832  2.1846
  142DOPC   H6S16814   6.727   2.163   6.252 -0.7866 -2.1393  0.3112
  142DOPC   C2716815   6.869   2.043   6.142  0.2165 -0.8005  0.1209
  142DOPC   H7R16816   6.831   1.947   6.182 -2.2438  0.8381  2.0087
  142DOPC   H7S16817   6.980   2.038   6.141  0.2386 -0.5428  0.9857
  142DOPC   C2816818   6.806   2.069   6.004  0.3344 -0.5330 -0.2133
  142DOPC   H8R16819   6.853   2.001   5.929 -0.5709 -2.1154  0.5933
  142DOPC   H8S16820   6.824   2.174   5.971 -2.5478 -0.0934 -0.6440
  142DOPC   C2916821   6.663   2.027   5.987 -0.2284  0.1993 -0.4586
  142DOPC   H9R16822   6.633   1.940   6.048 -1.1370  0.9030  0.1357
  142DOPC  C21016823   6.572   2.097   5.924 -0.2498  0.2932 -0.0538
  142DOPC  H10R16824   6.469   2.058   5.918  0.1494 -1.0786  1.3776
  142DOPC  C21116825   6.593   2.226   5.853 -0.6111  0.3114 -0.6671
  142DOPC  H11R16826   6.563   2.215   5.747  1.1812  0.5247 -1.2341
  142DOPC  H11S16827   6.697   2.263   5.838 -0.5851 -0.2492 -1.9339
  142DOPC  C21216828   6.509   2.345   5.904  0.6134  0.0164 -0.7662
  142DOPC  H12R16829   6.403   2.312   5.907  1.0182 -1.3319 -0.6479
  142DOPC  H12S16830   6.517   2.424   5.826  1.8994  0.5410 -0.1224
  142DOPC  C21316831   6.541   2.410   6.043  0.3421  0.1176 -0.3867
  142DOPC  H13R16832   6.521   2.338   6.125  0.9156 -0.1182 -0.4472
  142DOPC  H13S16833   6.488   2.506   6.061  0.8558  0.3030  0.1870
  142DOPC  C21416834   6.690   2.444   6.053 -0.3238  0.8028  0.0025
  142DOPC  H14R16835   6.701   2.523   5.975 -1.5012  0.5054 -0.4848
  142DOPC  H14S16836   6.770   2.370   6.033  1.1806  2.5861 -0.9123
  142DOPC  C21516837   6.714   2.521   6.189  0.3131 -0.1214  0.0620
  142DOPC  H15R16838   6.708   2.452   6.276 -2.1752  1.2063  1.0452
  142DOPC  H15S16839   6.629   2.591   6.203  0.1500 -0.2432 -0.3116
  142DOPC  C21616840   6.848   2.598   6.188  0.3807 -0.2726  0.6257
  142DOPC  H16R16841   6.839   2.671   6.105  1.0473 -0.2035  0.6062
  142DOPC  H16S16842   6.925   2.529   6.147  0.9790  0.7452 -0.0197
  142DOPC  C21716843   6.899   2.642   6.316  0.0644  0.2983 -0.8531
  142DOPC  H17R16844   6.998   2.689   6.297  0.2823  0.9480  1.5452
  142DOPC  H17S16845   6.929   2.557   6.381 -0.3537 -1.0434 -2.3374
  142DOPC  C21816846   6.811   2.729   6.410  0.4621 -0.3032 -0.1042
  142DOPC  H18R16847   6.875   2.791   6.477 -2.0888  0.1942  2.0368
  142DOPC  H18S16848   6.757   2.672   6.489  1.7546 -2.8805 -0.9687
  142DOPC  H18T16849   6.753   2.792   6.338 -0.4947 -0.8968  0.1349
  142DOPC   C3316850   7.252   2.271   6.225  0.2423 -0.0517 -0.2433
  142DOPC   H3X16851   7.148   2.236   6.210  0.1272  1.1841 -2.7281
  142DOPC   H3Y16852   7.318   2.205   6.285  1.3064 -0.0975 -1.4160
  142DOPC   C3416853   7.317   2.289   6.081  0.1299 -0.0658 -0.5925
  142DOPC   H4X16854   7.352   2.186   6.056 -2.3403 -1.2353  0.4666
  142DOPC   H4Y16855   7.405   2.356   6.086  1.3871 -1.4500 -2.5562
  142DOPC   C3516856   7.217   2.315   5.970 -0.5632 -1.2656  0.5163
  142DOPC   H5X16857   7.177   2.418   5.963  1.3904 -0.5227 -0.3514
  142DOPC   H5Y16858   7.127   2.250   5.982 -2.7643  1.6269  0.7167
  142DOPC   C3616859   7.272   2.271   5.830 -0.6577 -0.7943  0.5998
  142DOPC   H6X16860   7.269   2.360   5.764 -1.8720 -0.2333  1.3650
  142DOPC   H6Y16861   7.382   2.259   5.833 -0.0482  3.3118  1.3173
  142DOPC   C3716862   7.201   2.157   5.765 -0.0489  0.0569  0.3259
  142DOPC   H7X16863   7.178   2.077   5.839 -1.2766 -0.6571 -0.7568
  142DOPC   H7Y16864   7.094   2.177   5.742 -0.0126 -1.2072 -1.1693
  142DOPC   C3816865   7.269   2.105   5.642  0.0575  0.5236  0.3146
  142DOPC   H8X16866   7.209   2.020   5.602 -1.6850  0.8459  2.1369
  142DOPC   H8Y16867   7.361   2.054   5.679  0.3072  1.3872  0.8972
  142DOPC   C3916868   7.310   2.206   5.535 -0.0605  0.1724 -0.4526
  142DOPC   H9X16869   7.383   2.279   5.571  2.3727 -2.6952  0.8685
  142DOPC  C31016870   7.267   2.209   5.405 -0.7082  0.0734  0.0663
  142DOPC  H10X16871   7.311   2.284   5.338  0.6753 -0.3426  0.4763
  142DOPC  C31116872   7.161   2.123   5.344 -0.0230  0.3051 -0.3509
  142DOPC  H11X16873   7.098   2.196   5.289  1.1622  1.2079 -0.5472
  142DOPC  H11Y16874   7.097   2.070   5.417  0.7607  1.4843  1.2567
  142DOPC  C31216875   7.212   2.025   5.240 -0.6295  0.2026 -0.3343
  142DOPC  H12X16876   7.281   1.958   5.296  0.2483  0.8693 -0.6184
  142DOPC  H12Y16877   7.262   2.077   5.157  3.2150 -0.7802  1.1666
  142DOPC  C31316878   7.091   1.946   5.179 -0.1272 -0.1362 -0.4206
  142DOPC  H13X16879   7.024   1.904   5.257  0.6088  0.4457  0.5416
  142DOPC  H13Y16880   7.035   2.017   5.115 -1.2675 -0.3531  0.3091
  142DOPC  C31416881   7.138   1.846   5.074  0.5666 -0.3806 -0.2193
  142DOPC  H14X16882   7.049   1.819   5.013 -0.3447 -0.5035  1.0915
  142DOPC  H14Y16883   7.226   1.887   5.022  0.9924  2.6467  2.5395
  142DOPC  C31516884   7.191   1.706   5.131  0.2567  0.3378 -0.4078
  142DOPC  H15X16885   7.214   1.707   5.240 -0.9455 -0.9602 -0.1011
  142DOPC  H15Y16886   7.283   1.686   5.071 -0.0892 -0.6728 -0.6162
  142DOPC  C31616887   7.086   1.591   5.114  0.7901 -0.2387  0.3647
  142DOPC  H16X16888   7.051   1.589   5.009 -0.8411  0.2408  0.8811
  142DOPC  H16Y16889   7.144   1.503   5.150 -0.3678 -0.5752  1.4625
  142DOPC  C31716890   6.958   1.616   5.198 -0.1010  0.0641 -0.1910
  142DOPC  H17X16891   6.974   1.700   5.270 -2.5061  1.2620 -0.9285
  142DOPC  H17Y16892   6.881   1.659   5.131  2.1479  0.8470 -2.4203
  142DOPC  C31816893   6.891   1.499   5.270  0.2761  0.3046  0.2886
  142DOPC  H18X16894   6.898   1.404   5.214 -1.3549  0.4008 -0.1597
  142DOPC  H18Y16895   6.926   1.486   5.374  1.4762 -2.6011 -0.4000
  142DOPC  H18Z16896   6.783   1.525   5.281  0.3054 -0.2375  2.2577
  143DOPC     N16897   4.580   1.331   6.667  0.7753  0.1228  0.7336
  143DOPC   C1216898   4.727   1.286   6.660  0.0269  0.5150 -0.0023
  143DOPC  H12A16899   4.784   1.331   6.580 -0.3526 -1.1561 -1.2723
  143DOPC  H12B16900   4.731   1.186   6.619  1.8321  1.6143 -2.7809
  143DOPC   C1316901   4.506   1.290   6.545  0.0964  0.5082  0.7158
  143DOPC  H13A16902   4.533   1.346   6.457  1.0502 -2.3049 -0.9271
  143DOPC  H13B16903   4.512   1.183   6.532 -0.6542 -0.6332  6.6708
  143DOPC  H13C16904   4.403   1.319   6.559 -0.7073 -1.1805 -1.2328
  143DOPC   C1416905   4.572   1.481   6.689  0.0868 -0.5343  0.3529
  143DOPC  H14A16906   4.631   1.519   6.771  0.9963 -2.7769  0.7896
  143DOPC  H14B16907   4.605   1.526   6.596 -1.0607  1.7137  0.9431
  143DOPC  H14C16908   4.469   1.512   6.691 -0.2922 -1.5344 -1.4840
  143DOPC   C1516909   4.518   1.275   6.793 -0.5816 -0.1197 -1.0180
  143DOPC  H15A16910   4.575   1.302   6.880 -2.1182  2.0311 -0.5843
  143DOPC  H15B16911   4.519   1.167   6.799 -0.7927 -0.0799 -0.2124
  143DOPC  H15C16912   4.416   1.304   6.814  0.2600  2.3280  0.0629
  143DOPC   C1116913   4.810   1.288   6.789 -0.3191 -0.9997  0.7579
  143DOPC  H11A16914   4.758   1.215   6.856 -2.1096 -0.0801  0.4293
  143DOPC  H11B16915   4.915   1.258   6.773  0.3304  0.4983  1.9845
  143DOPC     P16916   4.915   1.524   6.804  0.1489  0.1538  0.3032
  143DOPC   O1316917   5.040   1.476   6.864  0.1584 -0.0412  0.6524
  143DOPC   O1416918   4.859   1.656   6.838 -0.0673 -0.8950  0.1551
  143DOPC   O1216919   4.799   1.420   6.848  0.0085  0.0989  0.2931
  143DOPC   O1116920   4.918   1.513   6.650  0.0111  0.2938  0.0196
  143DOPC    C116921   4.952   1.620   6.565  0.1278  0.1427  0.6288
  143DOPC    HA16922   5.054   1.603   6.524 -0.5512  1.8033 -2.0376
  143DOPC    HB16923   4.953   1.719   6.614 -2.1884  1.2148 -1.2255
  143DOPC    C216924   4.841   1.637   6.456 -0.1740  0.3910 -0.1391
  143DOPC    HS16925   4.755   1.587   6.504  0.3368 -1.7648 -1.3340
  143DOPC   O2116926   4.891   1.572   6.336 -0.0790 -0.1369 -0.1859
  143DOPC   C2116927   4.824   1.460   6.310 -0.5756  0.6982 -0.1271
  143DOPC   O2216928   4.726   1.418   6.367  0.5260 -0.2630  0.6576
  143DOPC   C2216929   4.885   1.389   6.182  0.4170 -0.3274 -0.2275
  143DOPC   H2R16930   4.972   1.327   6.212 -0.5384 -1.1164  0.9847
  143DOPC   H2S16931   4.909   1.471   6.110 -2.9834  0.4359 -0.6864
  143DOPC    C316932   4.801   1.780   6.420  0.0488  0.5336  0.3079
  143DOPC    HX16933   4.895   1.812   6.370 -0.4226  0.3968 -0.6972
  143DOPC    HY16934   4.785   1.838   6.514 -0.2647  0.2402  0.4374
  143DOPC   O3116935   4.688   1.781   6.330 -0.0206 -0.0822 -0.2102
  143DOPC   C3116936   4.574   1.768   6.385  0.6295  0.3046 -0.2048
  143DOPC   O3216937   4.547   1.738   6.499 -0.1168  0.3097  0.1652
  143DOPC   C3216938   4.457   1.796   6.290 -0.9773 -0.6334 -0.4267
  143DOPC   H2X16939   4.417   1.897   6.316  1.7804 -0.2772  3.2067
  143DOPC   H2Y16940   4.484   1.789   6.182  1.8632  0.6043  0.1226
  143DOPC   C2316941   4.785   1.289   6.119 -0.2725  0.1433 -0.1136
  143DOPC   H3R16942   4.689   1.339   6.094  0.8687  1.9424 -1.1356
  143DOPC   H3S16943   4.769   1.215   6.200  0.3460 -0.5282 -0.5986
  143DOPC   C2416944   4.836   1.223   6.002  0.3062 -0.5060  0.4413
  143DOPC   H4R16945   4.931   1.170   6.022  0.2531 -1.4159 -1.5348
  143DOPC   H4S16946   4.867   1.303   5.932 -0.7383 -0.7429 -0.3134
  143DOPC   C2516947   4.748   1.120   5.930 -1.0840  0.5745  0.2248
  143DOPC   H5R16948   4.797   1.090   5.834  0.2989 -0.2774  1.1623
  143DOPC   H5S16949   4.647   1.156   5.902 -1.6472 -0.1993  1.1894
  143DOPC   C2616950   4.720   0.994   6.016 -0.0301 -0.0710  0.2213
  143DOPC   H6R16951   4.681   1.028   6.114 -0.4137 -0.2325  0.1246
  143DOPC   H6S16952   4.813   0.936   6.033 -0.0885 -0.5500 -0.9577
  143DOPC   C2716953   4.611   0.908   5.955  0.0313 -0.4522 -0.2552
  143DOPC   H7R16954   4.643   0.854   5.863 -2.5164  0.3963 -1.7593
  143DOPC   H7S16955   4.527   0.970   5.914  1.3375  0.9839 -0.8751
  143DOPC   C2816956   4.547   0.817   6.066 -0.2422  0.0847  0.2864
  143DOPC   H8R16957   4.470   0.758   6.012  3.0358 -1.2458 -3.3912
  143DOPC   H8S16958   4.507   0.890   6.139 -0.4431  1.2514 -0.9633
  143DOPC   C2916959   4.652   0.730   6.132 -0.3729  0.4709 -0.5291
  143DOPC   H9R16960   4.725   0.797   6.181  1.3959 -1.8340  0.1596
  143DOPC  C21016961   4.668   0.596   6.127 -0.2502 -0.2958  0.1180
  143DOPC  H10R16962   4.746   0.541   6.183 -0.2442 -2.1076 -1.5504
  143DOPC  C21116963   4.577   0.504   6.068  0.0425  0.2463  0.7127
  143DOPC  H11R16964   4.474   0.542   6.050 -0.1016 -0.1623  0.6548
  143DOPC  H11S16965   4.560   0.418   6.137 -2.7980 -0.2838 -0.4947
  143DOPC  C21216966   4.626   0.459   5.932  0.8006  0.0775  0.3637
  143DOPC  H12R16967   4.565   0.371   5.904  0.8886  0.0646  0.2117
  143DOPC  H12S16968   4.734   0.432   5.937  0.6403 -0.4481  1.0559
  143DOPC  C21316969   4.584   0.553   5.821 -0.2216 -0.6238 -0.6433
  143DOPC  H13R16970   4.638   0.649   5.837  1.0748 -1.6469  1.6286
  143DOPC  H13S16971   4.476   0.574   5.837  0.4233  1.7506  1.1981
  143DOPC  C21416972   4.624   0.507   5.683  0.3670 -0.1582 -0.3715
  143DOPC  H14R16973   4.571   0.414   5.653 -1.0850  1.2143 -2.2968
  143DOPC  H14S16974   4.733   0.484   5.686  0.4808  0.3728  2.5000
  143DOPC  C21516975   4.613   0.616   5.571  0.0711  0.0911  0.1093
  143DOPC  H15R16976   4.686   0.696   5.597 -1.4923  1.8430 -0.6277
  143DOPC  H15S16977   4.513   0.666   5.570 -0.8227 -1.6176  0.3812
  143DOPC  C21616978   4.638   0.565   5.432 -0.0207  0.7670 -0.1447
  143DOPC  H16R16979   4.542   0.537   5.384  0.2096 -0.2154 -0.0637
  143DOPC  H16S16980   4.710   0.481   5.441  0.6952  1.1114 -2.2059
  143DOPC  C21716981   4.703   0.667   5.334 -0.0633 -0.3865  0.3528
  143DOPC  H17R16982   4.659   0.769   5.346  1.7675  0.4161  0.5773
  143DOPC  H17S16983   4.673   0.620   5.238 -0.3059 -0.0297  0.2507
  143DOPC  C21816984   4.852   0.667   5.338 -0.4349 -0.3118  0.1453
  143DOPC  H18R16985   4.879   0.566   5.301 -0.8047  0.2983 -1.9206
  143DOPC  H18S16986   4.887   0.680   5.442  2.8314 -1.5340 -0.6802
  143DOPC  H18T16987   4.896   0.749   5.276  0.0273 -0.1762  0.6450
  143DOPC   C3316988   4.337   1.694   6.305 -0.7791  0.2060 -0.1925
  143DOPC   H3X16989   4.323   1.670   6.413  1.2705 -1.8134 -0.2940
  143DOPC   H3Y16990   4.353   1.593   6.262 -2.7827  0.5238 -1.8559
  143DOPC   C3416991   4.209   1.753   6.242  0.5320 -0.4354 -0.9732
  143DOPC   H4X16992   4.177   1.845   6.295 -0.5394  1.3980 -4.4934
  143DOPC   H4Y16993   4.131   1.675   6.254 -0.2486  0.6590  2.0332
  143DOPC   C3516994   4.213   1.791   6.095 -0.3632 -0.1457 -0.4966
  143DOPC   H5X16995   4.252   1.704   6.039  0.8138  0.4449 -0.6223
  143DOPC   H5Y16996   4.272   1.882   6.069  2.2275 -2.2436 -2.5569
  143DOPC   C3616997   4.068   1.813   6.047  0.1408  0.4488  0.1815
  143DOPC   H6X16998   4.004   1.725   6.069 -1.8120  1.1441 -2.2650
  143DOPC   H6Y16999   4.031   1.895   6.112 -1.0003  0.9591 -1.0604
  143DOPC   C3717000   4.054   1.835   5.894 -0.4295  0.0677  0.3715
  143DOPC   H7X17001   4.135   1.904   5.863  0.0452 -0.5855  0.1436
  143DOPC   H7Y17002   4.080   1.736   5.851  1.0862  0.4020  0.4461
  143DOPC   C3817003   3.915   1.889   5.852 -0.5060 -0.3448  0.3546
  143DOPC   H8X17004   3.900   1.992   5.891 -2.0615 -0.4252  0.0281
  143DOPC   H8Y17005   3.835   1.828   5.900 -0.6481 -1.9863 -1.8030
  143DOPC   C3917006   3.891   1.880   5.707  0.1930 -0.3483 -0.1168
  143DOPC   H9X17007   3.987   1.881   5.653  2.0861  0.6185  2.9833
  143DOPC  C31017008   3.771   1.838   5.658 -0.3970 -0.5275  0.2291
  143DOPC  H10X17009   3.760   1.830   5.549 -0.3022 -1.0328  0.2585
  143DOPC  C31117010   3.641   1.820   5.734 -0.4513 -0.8373 -0.5238
  143DOPC  H11X17011   3.658   1.871   5.831  2.1725  1.6816 -2.1416
  143DOPC  H11Y17012   3.622   1.711   5.735  1.2617 -1.1632 -1.1783
  143DOPC  C31217013   3.512   1.874   5.665 -1.0013  0.4880  0.8452
  143DOPC  H12X17014   3.534   1.982   5.656  2.2651 -0.0581  1.0930
  143DOPC  H12Y17015   3.433   1.870   5.743 -0.7807  2.0169  1.1771
  143DOPC  C31317016   3.463   1.809   5.537 -0.4774  1.0233  0.1522
  143DOPC  H13X17017   3.532   1.816   5.451  1.1860  0.1856  1.3755
  143DOPC  H13Y17018   3.447   1.701   5.557 -1.6315  1.1869  0.2073
  143DOPC  C31417019   3.327   1.862   5.487  0.5881  0.4909  0.1838
  143DOPC  H14X17020   3.259   1.822   5.565 -0.2267  1.1861 -0.1491
  143DOPC  H14Y17021   3.327   1.972   5.502  1.2208  0.2896  1.9199
  143DOPC  C31517022   3.273   1.816   5.352 -0.1929 -0.4486 -0.5759
  143DOPC  H15X17023   3.286   1.706   5.345  0.6144 -0.3332 -1.0203
  143DOPC  H15Y17024   3.333   1.864   5.271 -0.6097 -3.2238 -2.6746
  143DOPC  C31617025   3.132   1.864   5.319 -0.3512 -0.1218  0.0975
  143DOPC  H16X17026   3.105   1.825   5.218  0.8278  2.7143 -1.4232
  143DOPC  H16Y17027   3.049   1.819   5.378 -1.8399 -0.0442 -1.8160
  143DOPC  C31717028   3.131   2.022   5.327 -0.4528  0.0240  0.0920
  143DOPC  H17X17029   3.152   2.045   5.434 -1.2730 -0.8909  0.4577
  143DOPC  H17Y17030   3.220   2.057   5.270 -0.1229  0.7052  0.9905
  143DOPC  C31817031   3.003   2.091   5.284 -0.4271 -0.0683 -0.6577
  143DOPC  H18X17032   3.017   2.200   5.294  3.3584 -0.4764 -0.2064
  143DOPC  H18Y17033   2.968   2.058   5.184 -0.8772  1.2690 -0.9537
  143DOPC  H18Z17034   2.926   2.056   5.357 -1.1326 -0.2462 -1.4694
  144DOPC     N17035   4.398   0.554   6.517  0.0343 -0.0249  0.2732
  144DOPC   C1217036   4.497   0.441   6.543  0.2394  0.0561  0.6717
  144DOPC  H12A17037   4.528   0.399   6.449 -0.4178  1.2155 -0.0995
  144DOPC  H12B17038   4.451   0.362   6.599  0.6027 -0.6849 -0.0482
  144DOPC   C1317039   4.445   0.635   6.398  0.5050 -0.3509 -0.2308
  144DOPC  H13A17040   4.547   0.666   6.413  1.1149 -1.8690 -1.0075
  144DOPC  H13B17041   4.449   0.570   6.312  1.6743  2.4747 -2.4550
  144DOPC  H13C17042   4.382   0.717   6.368  1.8607  1.1325  0.8059
  144DOPC   C1417043   4.374   0.632   6.638 -0.0103  0.0595 -0.1526
  144DOPC  H14A17044   4.327   0.572   6.715 -0.6527 -2.0954 -2.1089
  144DOPC  H14B17045   4.470   0.672   6.667 -0.1599  0.7391 -0.5641
  144DOPC  H14C17046   4.306   0.715   6.624  1.2820  1.1599 -0.1196
  144DOPC   C1517047   4.269   0.503   6.467  0.0007  0.3547 -0.1706
  144DOPC  H15A17048   4.294   0.449   6.377  0.1841  1.1753 -0.6212
  144DOPC  H15B17049   4.203   0.586   6.443 -0.9582 -0.0548  0.9778
  144DOPC  H15C17050   4.218   0.432   6.529 -0.3698 -0.4331 -1.3378
  144DOPC   C1117051   4.637   0.479   6.602  1.2855  0.4171  0.2028
  144DOPC  H11A17052   4.628   0.502   6.711  2.9075 -0.5723  0.5714
  144DOPC  H11B17053   4.700   0.388   6.598  0.6464 -0.0027 -2.5442
  144DOPC     P17054   4.753   0.718   6.595  0.2909  0.0139  0.7099
  144DOPC   O1317055   4.763   0.708   6.746 -0.2274  1.0155  0.2634
  144DOPC   O1417056   4.664   0.820   6.535  0.1805 -0.9144 -0.0002
  144DOPC   O1217057   4.715   0.577   6.535 -0.0513 -0.3388 -0.1349
  144DOPC   O1117058   4.895   0.738   6.536  0.0214  0.0188 -0.3290
  144DOPC    C117059   4.945   0.667   6.428  0.1660  0.1413  0.4345
  144DOPC    HA17060   4.890   0.692   6.335 -0.3443 -1.9374  0.1274
  144DOPC    HB17061   4.931   0.557   6.439  1.7345  0.0217  1.6319
  144DOPC    C217062   5.098   0.688   6.416 -0.6588  0.7623 -0.2657
  144DOPC    HS17063   5.128   0.683   6.523 -1.0114 -0.1450 -0.2004
  144DOPC   O2117064   5.123   0.825   6.373  0.0567  0.2228 -0.3438
  144DOPC   C2117065   5.241   0.878   6.380 -0.4592  0.1899 -0.9157
  144DOPC   O2217066   5.346   0.830   6.436 -0.1167  0.0448 -0.1205
  144DOPC   C2217067   5.249   0.999   6.282 -0.1267  0.2957  0.5386
  144DOPC   H2R17068   5.204   1.086   6.335 -0.0001 -1.1389  3.1971
  144DOPC   H2S17069   5.180   0.968   6.201 -0.2323 -0.7535  1.0122
  144DOPC    C317070   5.177   0.574   6.343  0.6037  0.0306  0.1579
  144DOPC    HX17071   5.188   0.490   6.415  0.8699  0.4105  0.5600
  144DOPC    HY17072   5.276   0.607   6.307  1.0953 -2.7475 -1.3454
  144DOPC   O3117073   5.109   0.526   6.224  0.3411  0.6903 -0.1058
  144DOPC   C3117074   5.112   0.607   6.118 -0.1800  0.5232  0.3231
  144DOPC   O3217075   5.159   0.721   6.117 -0.1906  0.1885  0.0940
  144DOPC   C3217076   5.068   0.532   5.990 -0.2666 -0.8182 -0.0761
  144DOPC   H2X17077   5.129   0.440   5.986 -1.8504 -1.9321  0.5453
  144DOPC   H2Y17078   4.964   0.496   6.005 -0.5719 -0.6461 -1.6144
  144DOPC   C2317079   5.389   1.048   6.241  0.3366  0.1358  1.2654
  144DOPC   H3R17080   5.446   0.969   6.187  0.5029  0.5124  0.8903
  144DOPC   H3S17081   5.445   1.077   6.333  1.0650 -0.0292  0.8831
  144DOPC   C2417082   5.369   1.179   6.156 -0.5394 -0.0239  0.0940
  144DOPC   H4R17083   5.314   1.255   6.214  1.4673  1.7576 -0.2283
  144DOPC   H4S17084   5.302   1.155   6.071 -0.9271 -0.2300  0.4553
  144DOPC   C2517085   5.505   1.236   6.100 -0.6837  0.0501  0.5214
  144DOPC   H5R17086   5.555   1.271   6.192 -1.3335  0.2857  0.7903
  144DOPC   H5S17087   5.487   1.328   6.041  2.8773  0.5543 -0.0096
  144DOPC   C2617088   5.588   1.141   6.008 -0.5474  0.4152 -0.6098
  144DOPC   H6R17089   5.510   1.103   5.938  0.7710 -3.0269 -0.3767
  144DOPC   H6S17090   5.642   1.070   6.074 -2.0693  0.4840  0.7736
  144DOPC   C2717091   5.694   1.229   5.933  0.0488  0.7238 -0.6365
  144DOPC   H7R17092   5.787   1.170   5.923 -1.4608 -2.4266  2.0292
  144DOPC   H7S17093   5.727   1.320   5.988 -1.1540 -1.0904  3.5008
  144DOPC   C2817094   5.641   1.278   5.789 -0.5289  0.3742  0.5374
  144DOPC   H8R17095   5.560   1.352   5.807 -0.0734  0.8257  0.7200
  144DOPC   H8S17096   5.590   1.194   5.737  0.1269 -0.6553  1.5158
  144DOPC   C2917097   5.757   1.320   5.702  0.2539 -0.1434 -0.6742
  144DOPC   H9R17098   5.849   1.261   5.713  1.9628  2.0472 -2.1069
  144DOPC  C21017099   5.759   1.426   5.622 -0.6143 -1.2843 -0.0246
  144DOPC  H10R17100   5.851   1.459   5.571 -0.0468 -0.1293  1.6419
  144DOPC  C21117101   5.644   1.513   5.574 -0.6393 -0.0913  0.6869
  144DOPC  H11R17102   5.552   1.478   5.624  0.4630 -1.1898  2.0434
  144DOPC  H11S17103   5.629   1.501   5.465 -1.1705  1.3023  0.5830
  144DOPC  C21217104   5.657   1.668   5.597 -0.1235 -0.6232 -0.1576
  144DOPC  H12R17105   5.696   1.675   5.701 -0.9263 -0.3843  0.1318
  144DOPC  H12S17106   5.553   1.706   5.597 -0.6769 -2.0154 -1.3256
  144DOPC  C21317107   5.738   1.745   5.487 -0.3421 -0.0678 -0.3046
  144DOPC  H13R17108   5.685   1.835   5.451 -0.4172  0.0302  0.0503
  144DOPC  H13S17109   5.743   1.675   5.400  0.3056 -2.1078  1.2865
  144DOPC  C21417110   5.878   1.770   5.539 -0.1733  0.7964 -0.3948
  144DOPC  H14R17111   5.922   1.669   5.553 -1.4852  0.2691  0.1491
  144DOPC  H14S17112   5.880   1.840   5.625  1.4196  0.8573 -0.4559
  144DOPC  C21517113   5.960   1.840   5.436  0.3327 -0.1582  0.4135
  144DOPC  H15R17114   5.955   1.950   5.421  1.8617 -0.1334 -0.1655
  144DOPC  H15S17115   5.935   1.796   5.337 -1.5134 -0.3733  0.9381
  144DOPC  C21617116   6.109   1.804   5.446  0.2568  0.2124 -0.2163
  144DOPC  H16R17117   6.111   1.695   5.463  2.6044  0.3493  0.6748
  144DOPC  H16S17118   6.144   1.856   5.537  2.6304  0.1241 -1.0167
  144DOPC  C21717119   6.186   1.833   5.312  0.3577  0.2266 -0.3254
  144DOPC  H17R17120   6.133   1.778   5.231 -3.3296 -1.4208  2.8669
  144DOPC  H17S17121   6.289   1.791   5.320  1.0090  1.3887 -2.0431
  144DOPC  C21817122   6.207   1.978   5.265  0.6305 -0.1884 -0.4347
  144DOPC  H18R17123   6.281   1.986   5.182  1.0323  1.2240  0.0440
  144DOPC  H18S17124   6.228   2.031   5.359 -1.6172  0.6102 -0.3104
  144DOPC  H18T17125   6.112   2.026   5.233 -0.8130 -0.8039  2.5820
  144DOPC   C3317126   5.088   0.620   5.867  0.2371 -0.0016 -0.8655
  144DOPC   H3X17127   5.073   0.561   5.775 -0.8155  1.3515 -1.5898
  144DOPC   H3Y17128   5.191   0.663   5.867  0.0239  0.5161 -0.8089
  144DOPC   C3417129   4.995   0.739   5.859  0.0066  0.2056  0.3271
  144DOPC   H4X17130   5.018   0.821   5.931 -0.7712  1.2629 -0.6002
  144DOPC   H4Y17131   4.890   0.706   5.871 -0.3990  0.0641 -2.8678
  144DOPC   C3517132   5.000   0.801   5.721  0.1955 -0.0069 -0.2346
  144DOPC   H5X17133   4.916   0.874   5.722 -0.7581 -1.0649  0.9915
  144DOPC   H5Y17134   4.986   0.723   5.643 -0.7232  0.6411 -0.7337
  144DOPC   C3617135   5.129   0.874   5.684 -0.0932 -0.4022 -0.0326
  144DOPC   H6X17136   5.111   0.984   5.678 -0.3835 -0.4638 -0.3061
  144DOPC   H6Y17137   5.219   0.859   5.748 -0.3945  0.6187  0.6520
  144DOPC   C3717138   5.179   0.849   5.540 -0.4282 -0.0701 -0.1062
  144DOPC   H7X17139   5.212   0.743   5.530  0.1814  0.2102 -1.1805
  144DOPC   H7Y17140   5.089   0.863   5.477  0.6574 -2.8908 -2.5285
  144DOPC   C3817141   5.296   0.941   5.506 -0.1762 -1.0389  0.1688
  144DOPC   H8X17142   5.383   0.900   5.562  0.7946  1.0581  0.2916
  144DOPC   H8Y17143   5.295   1.048   5.536  3.9551 -0.4506 -1.1607
  144DOPC   C3917144   5.314   0.933   5.358 -0.0259 -0.2436  0.9909
  144DOPC   H9X17145   5.273   0.848   5.301  2.9154 -0.3225 -1.2288
  144DOPC  C31017146   5.386   1.029   5.292 -0.3219 -0.0573  0.4028
  144DOPC  H10X17147   5.377   1.027   5.183  0.4817  0.1294  0.3246
  144DOPC  C31117148   5.460   1.149   5.336  0.4003  0.4904  0.5001
  144DOPC  H11X17149   5.479   1.144   5.445 -0.4431  1.0543  0.6851
  144DOPC  H11Y17150   5.382   1.227   5.328 -2.1473 -1.8420  1.2377
  144DOPC  C31217151   5.595   1.192   5.264 -0.4288  0.5495 -0.4974
  144DOPC  H12X17152   5.644   1.270   5.326 -1.2536  1.1396 -0.5611
  144DOPC  H12Y17153   5.567   1.238   5.167 -2.1707  1.5684  0.4419
  144DOPC  C31317154   5.696   1.087   5.264 -0.1064  0.2461  0.9104
  144DOPC  H13X17155   5.723   1.055   5.367  3.0785  0.7104  0.3240
  144DOPC  H13Y17156   5.658   1.004   5.200  0.8270  1.6060 -1.5452
  144DOPC  C31417157   5.830   1.130   5.205 -0.1075  0.3817  0.1446
  144DOPC  H14X17158   5.865   1.218   5.264  0.0371  1.0475 -0.9085
  144DOPC  H14Y17159   5.894   1.040   5.215 -0.1259  0.5779  2.8174
  144DOPC  C31517160   5.827   1.153   5.049  0.0650  1.0832  0.0030
  144DOPC  H15X17161   5.794   1.257   5.025  0.8872  1.2113 -0.6151
  144DOPC  H15Y17162   5.756   1.077   5.010  2.8467 -0.6957 -2.0086
  144DOPC  C31617163   5.965   1.127   4.988  0.6841  0.6581  0.1494
  144DOPC  H16X17164   6.032   1.199   5.040 -1.6858  2.2516  1.1615
  144DOPC  H16Y17165   5.995   1.023   5.013 -0.3794  1.0129  3.4363
  144DOPC  C31717166   5.962   1.159   4.836 -0.7641  0.3718 -0.2598
  144DOPC  H17X17167   5.902   1.084   4.780  1.8441 -0.8553 -1.5958
  144DOPC  H17Y17168   5.925   1.264   4.831 -0.2850  0.6760  1.8110
  144DOPC  C31817169   6.091   1.141   4.754  0.4735  0.0532 -0.0996
  144DOPC  H18X17170   6.140   1.043   4.772  2.7097  0.9635 -0.9430
  144DOPC  H18Y17171   6.077   1.149   4.644 -0.2426  0.1500 -0.0075
  144DOPC  H18Z17172   6.165   1.217   4.786 -0.4434  1.8691 -1.9943
  145DOPC     N17173   5.358   4.264   7.066 -0.5633  0.3543 -0.2065
  145DOPC   C1217174   5.509   4.292   7.080 -0.2345  0.0799 -0.5470
  145DOPC  H12A17175   5.555   4.222   7.011  0.2743 -0.4510  0.3219
  145DOPC  H12B17176   5.536   4.251   7.176  2.7815  2.7006 -0.1234
  145DOPC   C1317177   5.307   4.323   6.933  0.3043  0.3016 -0.5699
  145DOPC  H13A17178   5.299   4.430   6.945  0.0385  0.0818  1.7647
  145DOPC  H13B17179   5.375   4.305   6.851 -0.1755  1.5468 -1.2588
  145DOPC  H13C17180   5.208   4.291   6.906 -0.0395  1.8547 -1.2669
  145DOPC   C1417181   5.262   4.325   7.163  0.1336  0.3479  0.0157
  145DOPC  H14A17182   5.269   4.280   7.261 -2.6448  1.1557  0.6764
  145DOPC  H14B17183   5.278   4.431   7.172  0.3429  0.2518  0.8874
  145DOPC  H14C17184   5.161   4.313   7.127  0.1704 -1.2516  0.3707
  145DOPC   C1517185   5.339   4.115   7.060 -0.2629 -0.7104  0.9571
  145DOPC  H15A17186   5.410   4.071   6.992  0.6940  0.2895  1.2787
  145DOPC  H15B17187   5.243   4.090   7.019 -0.4558  2.0199 -0.4438
  145DOPC  H15C17188   5.349   4.061   7.154 -0.4799 -0.6428  1.0186
  145DOPC   C1117189   5.556   4.441   7.080 -0.4684 -0.1515  0.4038
  145DOPC  H11A17190   5.656   4.428   7.126  0.1418  1.3718 -0.4137
  145DOPC  H11B17191   5.573   4.465   6.973 -2.7991 -0.5797 -0.1182
  145DOPC     P17192   5.541   4.665   7.188 -0.3940  0.3978 -0.7455
  145DOPC   O1317193   5.679   4.641   7.236  0.2524  0.3620  0.1822
  145DOPC   O1417194   5.449   4.738   7.274  0.1215 -0.1994 -0.0665
  145DOPC   O1217195   5.472   4.528   7.155  0.1678  0.5531  0.2664
  145DOPC   O1117196   5.552   4.737   7.045 -0.1220  0.3693  0.0068
  145DOPC    C117197   5.435   4.750   6.956 -0.1849 -0.1909 -0.2075
  145DOPC    HA17198   5.424   4.856   6.926 -0.1893 -0.2740 -0.5086
  145DOPC    HB17199   5.343   4.711   7.003  0.4371 -0.1856  1.0385
  145DOPC    C217200   5.446   4.669   6.826  0.5462  0.1905 -0.1745
  145DOPC    HS17201   5.408   4.565   6.831 -2.2999  1.0013 -2.2045
  145DOPC   O2117202   5.579   4.669   6.775  0.0049  0.5662  0.5089
  145DOPC   C2117203   5.618   4.561   6.706  0.9494  0.2526 -0.5861
  145DOPC   O2217204   5.553   4.459   6.691  0.5371 -0.4524 -0.3887
  145DOPC   C2217205   5.761   4.580   6.653 -0.1528 -0.1748  1.0212
  145DOPC   H2R17206   5.826   4.516   6.716 -0.3486 -0.4525  0.9389
  145DOPC   H2S17207   5.804   4.682   6.664  1.0587 -0.3771 -1.1847
  145DOPC    C317208   5.336   4.726   6.725 -0.3880  0.2196 -0.1827
  145DOPC    HX17209   5.374   4.830   6.716 -0.0895  0.0949 -0.3872
  145DOPC    HY17210   5.233   4.732   6.765 -1.0844  1.6905 -2.0091
  145DOPC   O3117211   5.348   4.664   6.593  0.1576 -0.5433  0.3616
  145DOPC   C3117212   5.278   4.546   6.592 -0.4373  0.9045 -0.2600
  145DOPC   O3217213   5.216   4.498   6.683 -0.7810  0.1522  0.0968
  145DOPC   C3217214   5.293   4.488   6.446 -0.3906 -0.1242 -0.3908
  145DOPC   H2X17215   5.301   4.576   6.378 -2.7963  0.6642  0.2318
  145DOPC   H2Y17216   5.390   4.435   6.443 -0.3200  0.0114 -0.5201
  145DOPC   C2317217   5.777   4.542   6.504  0.3827 -0.1874 -0.1082
  145DOPC   H3R17218   5.735   4.444   6.473  0.9768 -0.4041 -0.2329
  145DOPC   H3S17219   5.886   4.530   6.489  0.7244  0.2051  1.8437
  145DOPC   C2417220   5.725   4.653   6.410 -0.0930 -0.2926 -0.0655
  145DOPC   H4R17221   5.782   4.748   6.421  1.7988 -0.9806 -3.0591
  145DOPC   H4S17222   5.618   4.675   6.433 -0.5840 -2.0509 -0.5194
  145DOPC   C2517223   5.740   4.627   6.258  0.0813  0.5923  0.0022
  145DOPC   H5R17224   5.847   4.609   6.233  0.6765 -0.5655  2.9112
  145DOPC   H5S17225   5.717   4.719   6.200  0.2813  0.6593  0.0275
  145DOPC   C2617226   5.656   4.517   6.189 -0.3488 -0.5837  0.0680
  145DOPC   H6R17227   5.645   4.426   6.252 -1.2660  0.2014  1.1005
  145DOPC   H6S17228   5.716   4.493   6.099  0.8278  0.8097  0.4444
  145DOPC   C2717229   5.516   4.556   6.141  0.1317 -0.4754  0.0404
  145DOPC   H7R17230   5.481   4.649   6.189  1.9699  2.0511 -3.1059
  145DOPC   H7S17231   5.447   4.474   6.172 -0.1232 -0.9267 -1.6028
  145DOPC   C2817232   5.518   4.565   5.987  1.1924 -0.2542 -0.2564
  145DOPC   H8R17233   5.537   4.463   5.947 -0.6864 -0.3654 -0.9669
  145DOPC   H8S17234   5.598   4.636   5.955 -0.7131  0.6458 -3.6107
  145DOPC   C2917235   5.388   4.621   5.935  0.3698  0.2143  0.5003
  145DOPC   H9R17236   5.377   4.730   5.928 -2.3400 -0.0320 -0.6242
  145DOPC  C21017237   5.292   4.547   5.870  0.1689 -0.7713 -0.0314
  145DOPC  H10R17238   5.204   4.597   5.826 -0.3607 -0.4368  1.3527
  145DOPC  C21117239   5.296   4.398   5.857 -0.2503  0.1780 -0.4458
  145DOPC  H11R17240   5.195   4.354   5.868 -0.1043  0.2173  1.3177
  145DOPC  H11S17241   5.350   4.362   5.947 -0.5233 -0.2902 -0.4642
  145DOPC  C21217242   5.349   4.334   5.725 -0.0993  0.4491 -0.0693
  145DOPC  H12R17243   5.457   4.360   5.717 -0.6949  2.6074 -2.4834
  145DOPC  H12S17244   5.287   4.368   5.640 -2.3557  1.1937  1.7602
  145DOPC  C21317245   5.335   4.183   5.739 -0.4433 -0.0566  0.0581
  145DOPC  H13R17246   5.229   4.147   5.742 -0.2537 -0.6410 -0.2132
  145DOPC  H13S17247   5.391   4.159   5.832  0.8915  2.1796 -0.0995
  145DOPC  C21417248   5.399   4.118   5.615  0.7782 -0.2186 -0.3059
  145DOPC  H14R17249   5.508   4.140   5.606  0.8033 -0.4207 -0.4921
  145DOPC  H14S17250   5.359   4.162   5.521  0.9279  0.7712  0.0752
  145DOPC  C21517251   5.364   3.965   5.603 -0.9758 -0.1122  0.5594
  145DOPC  H15R17252   5.258   3.952   5.632 -2.8338  4.4079 -2.8210
  145DOPC  H15S17253   5.423   3.921   5.686 -1.2929 -0.4852  0.5853
  145DOPC  C21617254   5.405   3.898   5.471  0.0178 -0.2558 -0.4503
  145DOPC  H16R17255   5.514   3.907   5.453  0.0681  0.0456 -0.0210
  145DOPC  H16S17256   5.359   3.944   5.381  0.5998 -0.3769 -0.8128
  145DOPC  C21717257   5.368   3.754   5.475 -0.5969  0.2979  0.6349
  145DOPC  H17R17258   5.258   3.758   5.494 -1.2348 -1.8288 -2.0508
  145DOPC  H17S17259   5.414   3.687   5.551  1.1959 -0.1131 -0.7617
  145DOPC  C21817260   5.380   3.686   5.336 -0.7005 -0.4699  0.3176
  145DOPC  H18R17261   5.364   3.576   5.336 -2.8719 -0.2409 -1.4715
  145DOPC  H18S17262   5.488   3.691   5.313 -1.0117  2.6907 -0.9357
  145DOPC  H18T17263   5.323   3.745   5.261  0.3440  1.5870  1.0677
  145DOPC   C3317264   5.172   4.399   6.398  0.1683  0.2385 -0.2974
  145DOPC   H3X17265   5.081   4.462   6.388 -0.2634 -0.1103  1.2528
  145DOPC   H3Y17266   5.147   4.311   6.460 -1.6767 -0.0986 -1.4514
  145DOPC   C3417267   5.202   4.336   6.253  0.2077 -0.6420  0.2984
  145DOPC   H4X17268   5.292   4.271   6.260  0.1452 -0.5831  2.3980
  145DOPC   H4Y17269   5.227   4.436   6.210 -0.6894  0.2545  1.7374
  145DOPC   C3517270   5.083   4.281   6.187  0.0314  0.0749  0.1342
  145DOPC   H5X17271   5.091   4.301   6.078 -0.4263 -0.2632  0.0348
  145DOPC   H5Y17272   4.991   4.332   6.223 -0.2489  0.2306 -0.7849
  145DOPC   C3617273   5.075   4.130   6.215  0.0650 -0.1920 -0.3771
  145DOPC   H6X17274   5.176   4.085   6.201  0.1366 -0.0924 -0.1766
  145DOPC   H6Y17275   5.050   4.122   6.322  0.7538  1.9132 -0.0038
  145DOPC   C3717276   4.971   4.058   6.128 -0.0028 -0.1926  0.0288
  145DOPC   H7X17277   4.958   3.953   6.162  0.2396 -0.1901  0.1339
  145DOPC   H7Y17278   4.879   4.120   6.130 -0.0482 -0.1618 -1.6338
  145DOPC   C3817279   5.013   4.061   5.975 -0.0544  1.1379 -0.2236
  145DOPC   H8X17280   5.122   4.043   5.963  0.3079  2.3563  0.9321
  145DOPC   H8Y17281   4.993   4.164   5.939  0.6094  1.1305 -0.6352
  145DOPC   C3917282   4.939   3.956   5.896  0.9630  0.0633 -0.3037
  145DOPC   H9X17283   4.833   3.976   5.874  0.8684  0.1384  0.2244
  145DOPC  C31017284   4.990   3.842   5.846  0.2109 -0.1202  0.6985
  145DOPC  H10X17285   4.918   3.795   5.776 -0.2601  0.9128  0.4717
  145DOPC  C31117286   5.134   3.791   5.866 -0.1471 -0.3938  0.2851
  145DOPC  H11X17287   5.197   3.880   5.848  0.0069 -0.4859  0.3681
  145DOPC  H11Y17288   5.160   3.717   5.787  1.1386  1.0343 -0.6949
  145DOPC  C31217289   5.173   3.745   6.009  0.0476 -0.2001  0.4020
  145DOPC  H12X17290   5.114   3.651   6.018  0.5823 -0.3965  2.0504
  145DOPC  H12Y17291   5.141   3.816   6.088 -0.7324 -0.7491  0.5972
  145DOPC  C31317292   5.322   3.730   6.033 -0.3643 -0.0400 -0.0425
  145DOPC  H13X17293   5.354   3.653   5.959 -1.5395 -1.3626  0.7745
  145DOPC  H13Y17294   5.377   3.824   6.011 -1.0272  0.0530 -1.4097
  145DOPC  C31417295   5.353   3.681   6.171 -0.8044 -0.0871 -0.4098
  145DOPC  H14X17296   5.341   3.765   6.242 -0.3705  0.7195 -1.2616
  145DOPC  H14Y17297   5.281   3.605   6.207 -0.4524  0.2853  1.1647
  145DOPC  C31517298   5.491   3.602   6.178  0.0550 -0.4323 -0.1424
  145DOPC  H15X17299   5.474   3.523   6.101 -1.0085  0.2976 -0.6879
  145DOPC  H15Y17300   5.509   3.547   6.273  0.5353 -0.1430 -0.0676
  145DOPC  C31617301   5.610   3.687   6.136 -0.2454  0.3277  0.2614
  145DOPC  H16X17302   5.607   3.688   6.025 -1.6067  1.3673  0.2813
  145DOPC  H16Y17303   5.597   3.792   6.170  3.7797  0.5371  1.7132
  145DOPC  C31717304   5.745   3.644   6.201 -0.2298 -0.1454 -0.1516
  145DOPC  H17X17305   5.748   3.702   6.296  3.0259 -2.0112  1.0194
  145DOPC  H17Y17306   5.746   3.534   6.212 -0.8572 -0.0712  0.7980
  145DOPC  C31817307   5.866   3.692   6.119  0.2801  0.0301 -0.3657
  145DOPC  H18X17308   5.957   3.674   6.180  0.4136  2.0354  0.0902
  145DOPC  H18Y17309   5.857   3.644   6.019  1.1548 -1.3815  0.2124
  145DOPC  H18Z17310   5.862   3.802   6.103 -0.8060 -0.1935 -1.8688
  146DOPC     N17311   6.730   0.842   7.007  0.0569 -0.1679 -0.2737
  146DOPC   C1217312   6.681   0.952   6.912 -0.1400  0.0226 -0.0881
  146DOPC  H12A17313   6.573   0.955   6.899  0.0578  3.5201 -2.3499
  146DOPC  H12B17314   6.728   0.926   6.819  0.3347 -0.5694  0.3078
  146DOPC   C1317315   6.689   0.878   7.145  0.2232 -0.4156  0.7154
  146DOPC  H13A17316   6.582   0.891   7.153  0.4174  1.0041  1.4362
  146DOPC  H13B17317   6.735   0.816   7.221  1.5590  0.5681  0.7389
  146DOPC  H13C17318   6.723   0.976   7.175 -3.0320  0.3946  2.3267
  146DOPC   C1417319   6.876   0.809   6.999  0.1702  0.2321  0.1552
  146DOPC  H14A17320   6.919   0.784   6.903  1.2985 -0.4761  0.8235
  146DOPC  H14B17321   6.934   0.895   7.030  1.3351 -0.7241  0.7167
  146DOPC  H14C17322   6.894   0.722   7.060  0.0032  1.1826  1.5925
  146DOPC   C1517323   6.660   0.715   6.963  0.2750 -0.0853  0.2416
  146DOPC  H15A17324   6.683   0.630   7.026 -2.3026 -0.3563  0.9533
  146DOPC  H15B17325   6.681   0.684   6.862 -2.0362  0.4220 -0.4469
  146DOPC  H15C17326   6.552   0.717   6.961  0.2343 -1.0906  0.7980
  146DOPC   C1117327   6.709   1.102   6.950  0.3471  0.0372  0.0674
  146DOPC  H11A17328   6.819   1.104   6.969  0.3901 -1.0067  0.0093
  146DOPC  H11B17329   6.696   1.170   6.864  0.2969  1.0645  0.8616
  146DOPC     P17330   6.476   1.169   7.031 -0.1686 -0.2357  0.0483
  146DOPC   O1317331   6.443   1.309   7.025  0.3072 -0.0144  0.7675
  146DOPC   O1417332   6.400   1.092   7.133  0.0156 -0.1617  0.0118
  146DOPC   O1217333   6.632   1.148   7.060 -0.3469 -0.2598 -0.6377
  146DOPC   O1117334   6.451   1.108   6.890  0.0488  0.3101  0.2106
  146DOPC    C117335   6.333   1.136   6.817 -0.0520 -0.8852  0.5558
  146DOPC    HA17336   6.276   1.224   6.855  0.3761  0.1454 -1.0586
  146DOPC    HB17337   6.258   1.054   6.820  0.7993 -1.6829  0.3263
  146DOPC    C217338   6.377   1.167   6.667 -0.5245  0.3513 -0.3254
  146DOPC    HS17339   6.474   1.113   6.665 -0.4078  0.3989  1.9872
  146DOPC   O2117340   6.389   1.308   6.640  0.0703  0.1466  0.2948
  146DOPC   C2117341   6.516   1.366   6.645  0.1671  0.3484  0.2205
  146DOPC   O2217342   6.617   1.311   6.688 -0.1671  0.3547 -0.6456
  146DOPC   C2217343   6.525   1.515   6.605  0.2203 -0.0402 -0.5756
  146DOPC   H2R17344   6.634   1.527   6.588  0.7877 -2.3904  0.9501
  146DOPC   H2S17345   6.485   1.582   6.684 -0.2330  1.0420 -1.6925
  146DOPC    C317346   6.280   1.105   6.559 -0.3184 -0.0279 -0.9044
  146DOPC    HX17347   6.190   1.169   6.554 -0.9729 -0.7550  0.6582
  146DOPC    HY17348   6.246   1.004   6.593  0.4170 -0.8827 -2.6082
  146DOPC   O3117349   6.344   1.102   6.433  0.5867  0.1708 -0.2493
  146DOPC   C3117350   6.416   0.989   6.416 -0.2642 -0.5344  0.7348
  146DOPC   O3217351   6.423   0.897   6.494  0.2811  0.1191 -0.5736
  146DOPC   C3217352   6.470   0.997   6.269  0.0570  0.8794 -0.1731
  146DOPC   H2X17353   6.386   1.014   6.198 -1.1348  0.6149  1.1427
  146DOPC   H2Y17354   6.532   1.090   6.273 -0.3299  1.2311 -1.6075
  146DOPC   C2317355   6.459   1.546   6.469  0.3358 -0.0936  0.1244
  146DOPC   H3R17356   6.349   1.528   6.469 -0.3544  2.1804 -5.1795
  146DOPC   H3S17357   6.501   1.483   6.388  0.5071  0.3822 -0.1634
  146DOPC   C2417358   6.479   1.687   6.419 -0.2565  0.0220  0.4224
  146DOPC   H4R17359   6.583   1.697   6.380 -0.0636 -1.4381  0.5291
  146DOPC   H4S17360   6.467   1.757   6.505 -2.2259  0.1456  0.0738
  146DOPC   C2517361   6.382   1.731   6.305  0.3390 -0.0601  0.3277
  146DOPC   H5R17362   6.393   1.842   6.304 -0.7941  0.0623  0.1128
  146DOPC   H5S17363   6.274   1.709   6.320  0.6046 -2.3496 -0.7302
  146DOPC   C2617364   6.422   1.678   6.168  0.3747  0.2533 -0.5795
  146DOPC   H6R17365   6.407   1.568   6.166  1.6824  0.0547 -0.4679
  146DOPC   H6S17366   6.530   1.701   6.154  0.0558  2.6325  0.3354
  146DOPC   C2717367   6.357   1.757   6.055 -0.8661 -0.1044  0.4933
  146DOPC   H7R17368   6.376   1.866   6.061 -2.4087  0.1070  2.6233
  146DOPC   H7S17369   6.247   1.740   6.052 -0.9619  0.6074 -0.0840
  146DOPC   C2817370   6.427   1.711   5.916  0.7281  0.6963 -0.2473
  146DOPC   H8R17371   6.428   1.600   5.906  0.3502  0.5549  1.1269
  146DOPC   H8S17372   6.533   1.741   5.925  0.6346  0.5715  1.7036
  146DOPC   C2917373   6.354   1.770   5.797 -0.1751 -0.5096 -0.9766
  146DOPC   H9R17374   6.271   1.841   5.807 -0.3611 -0.9744  1.1531
  146DOPC  C21017375   6.392   1.753   5.671 -0.0748  0.9638  0.2087
  146DOPC  H10R17376   6.347   1.813   5.590  0.5030  1.1985  0.0609
  146DOPC  C21117377   6.499   1.658   5.612 -0.2099 -0.0395  0.2086
  146DOPC  H11R17378   6.575   1.637   5.691 -1.3177  0.4351  1.4352
  146DOPC  H11S17379   6.525   1.716   5.521 -0.0137 -2.4509 -1.3625
  146DOPC  C21217380   6.437   1.531   5.566  0.2499 -0.7011  0.1913
  146DOPC  H12R17381   6.354   1.555   5.496 -0.4824 -1.4214  0.7947
  146DOPC  H12S17382   6.389   1.476   5.650 -2.0968  0.9033  0.0155
  146DOPC  C21317383   6.538   1.441   5.487  0.3663 -0.2618 -0.0621
  146DOPC  H13R17384   6.632   1.437   5.545  0.6124 -2.2853 -0.5588
  146DOPC  H13S17385   6.563   1.488   5.390 -1.6698 -0.5393 -0.7641
  146DOPC  C21417386   6.481   1.306   5.453 -0.4299 -0.1245  0.3911
  146DOPC  H14R17387   6.395   1.333   5.389  0.0488  0.7542  0.0967
  146DOPC  H14S17388   6.434   1.253   5.539  0.6213 -2.9913 -0.6812
  146DOPC  C21517389   6.584   1.210   5.397  1.2606 -0.4395 -0.4734
  146DOPC  H15R17390   6.653   1.259   5.325  0.4159 -0.7212 -1.4968
  146DOPC  H15S17391   6.528   1.136   5.335 -1.1203 -0.4028  1.4992
  146DOPC  C21617392   6.674   1.147   5.508 -0.1131 -0.1411 -0.1208
  146DOPC  H16R17393   6.715   1.234   5.564  1.6641  0.6698 -2.5165
  146DOPC  H16S17394   6.761   1.097   5.461 -0.3460  0.3719 -1.1444
  146DOPC  C21717395   6.599   1.050   5.597  0.6089  0.1595  0.7024
  146DOPC  H17R17396   6.502   1.087   5.638  1.2740 -0.4127  2.9141
  146DOPC  H17S17397   6.655   1.035   5.691 -1.2571 -2.7071  1.4784
  146DOPC  C21817398   6.581   0.914   5.526  0.4109  0.4651 -0.9067
  146DOPC  H18R17399   6.520   0.921   5.434 -1.6258 -1.6342  0.2003
  146DOPC  H18S17400   6.528   0.846   5.596 -1.9933  3.0140 -0.0573
  146DOPC  H18T17401   6.681   0.872   5.502  0.1897 -1.2333  0.9186
  146DOPC   C3317402   6.550   0.873   6.232  0.8806  0.7567 -0.4100
  146DOPC   H3X17403   6.480   0.789   6.249  3.7685 -1.7624 -0.1776
  146DOPC   H3Y17404   6.634   0.861   6.304  1.5928 -0.0550 -1.3497
  146DOPC   C3417405   6.595   0.892   6.088 -0.5817  0.1860 -0.0929
  146DOPC   H4X17406   6.644   0.991   6.079 -1.4587  0.4942 -2.1988
  146DOPC   H4Y17407   6.500   0.909   6.031 -1.0263 -1.6946  0.0332
  146DOPC   C3517408   6.674   0.779   6.034 -0.9402  0.2907  0.2825
  146DOPC   H5X17409   6.609   0.691   6.015  0.7575 -1.6741  2.7346
  146DOPC   H5Y17410   6.749   0.738   6.105  0.3680 -0.7526 -1.6083
  146DOPC   C3617411   6.739   0.813   5.898 -0.6675  0.0162 -0.4523
  146DOPC   H6X17412   6.656   0.828   5.825  0.4521  1.8499 -1.4319
  146DOPC   H6Y17413   6.799   0.906   5.904 -0.2899 -0.2437 -0.2156
  146DOPC   C3717414   6.833   0.703   5.854 -0.0089 -0.0274  0.0380
  146DOPC   H7X17415   6.919   0.713   5.924  0.7887 -0.9291 -0.7717
  146DOPC   H7Y17416   6.792   0.600   5.859  2.1486 -0.9007  3.3943
  146DOPC   C3817417   6.893   0.739   5.715  0.6082 -0.3389 -0.5946
  146DOPC   H8X17418   6.944   0.837   5.720  0.4401 -0.2673 -0.2330
  146DOPC   H8Y17419   6.808   0.743   5.644  0.4563  3.0865 -0.3504
  146DOPC   C3917420   6.995   0.636   5.677  0.4478  0.3071 -0.5272
  146DOPC   H9X17421   7.059   0.599   5.759  1.8852 -0.6197 -1.9821
  146DOPC  C31017422   7.011   0.565   5.567 -0.0380  0.1859  0.1395
  146DOPC  H10X17423   7.087   0.485   5.567  1.5772  1.6019  2.3827
  146DOPC  C31117424   6.921   0.581   5.449  0.5401 -0.0910  0.1843
  146DOPC  H11X17425   6.814   0.574   5.480 -0.2950  1.1064 -2.1558
  146DOPC  H11Y17426   6.951   0.504   5.375 -1.0737  0.0046 -0.6278
  146DOPC  C31217427   6.933   0.715   5.364  0.0883  0.0396 -0.7253
  146DOPC  H12X17428   7.040   0.726   5.335 -0.2422  0.6015 -1.7927
  146DOPC  H12Y17429   6.907   0.798   5.432 -4.1255 -1.4249 -0.2816
  146DOPC  C31317430   6.838   0.707   5.247  0.3105 -0.0295 -0.3531
  146DOPC  H13X17431   6.836   0.610   5.194  0.0394  0.4359 -1.2084
  146DOPC  H13Y17432   6.731   0.718   5.275 -0.9347 -0.1312 -4.4800
  146DOPC  C31417433   6.853   0.821   5.147  0.3333 -0.6084  0.6018
  146DOPC  H14X17434   6.961   0.832   5.127  0.7066 -0.4455  2.5352
  146DOPC  H14Y17435   6.809   0.791   5.049  3.6713 -1.6509 -0.7071
  146DOPC  C31517436   6.790   0.951   5.196 -0.5973  0.4337  0.3112
  146DOPC  H15X17437   6.855   0.995   5.275 -1.0542 -1.1304  1.5957
  146DOPC  H15Y17438   6.691   0.939   5.245 -1.1313 -0.2135 -0.8728
  146DOPC  C31617439   6.789   1.059   5.088 -0.3146  0.2708  0.4437
  146DOPC  H16X17440   6.727   1.025   5.002  1.5666 -0.2479 -0.7722
  146DOPC  H16Y17441   6.724   1.139   5.129  0.2159  2.5755 -2.8444
  146DOPC  C31717442   6.922   1.100   5.034  0.1341 -0.0716 -0.7526
  146DOPC  H17X17443   6.992   1.130   5.115 -0.7831  3.2385 -1.0211
  146DOPC  H17Y17444   6.964   1.016   4.975 -2.2328 -0.5556 -1.8593
  146DOPC  C31817445   6.906   1.228   4.943 -0.2313  0.2624 -0.0874
  146DOPC  H18X17446   7.004   1.280   4.940 -0.7941  1.3067 -1.6171
  146DOPC  H18Y17447   6.877   1.198   4.841 -0.7982 -0.8389  0.3851
  146DOPC  H18Z17448   6.838   1.305   4.987  0.4598  0.0210  1.4694
  147DOPC     N17449   3.688   0.992   6.461 -0.4426  0.3433 -0.1442
  147DOPC   C1217450   3.640   1.102   6.371  0.6139  0.2792 -0.4880
  147DOPC  H12A17451   3.709   1.132   6.293  1.6169  1.9953  0.9875
  147DOPC  H12B17452   3.630   1.187   6.437  0.9349 -0.1661  0.1462
  147DOPC   C1317453   3.581   0.941   6.549  0.2368 -0.3573  0.3777
  147DOPC  H13A17454   3.608   0.857   6.612 -0.5258 -0.4263  0.6235
  147DOPC  H13B17455   3.558   1.015   6.625  0.9638 -1.5291  1.7932
  147DOPC  H13C17456   3.494   0.922   6.489  0.9270 -2.8700  0.0420
  147DOPC   C1417457   3.801   1.042   6.548 -0.2475  0.4313 -0.0428
  147DOPC  H14A17458   3.894   1.073   6.502  0.4487  1.2625  1.8194
  147DOPC  H14B17459   3.767   1.126   6.607  0.3037  0.3271  0.4239
  147DOPC  H14C17460   3.821   0.971   6.627  0.8534  0.3896 -0.3368
  147DOPC   C1517461   3.730   0.874   6.375  0.1547  0.3819  0.3160
  147DOPC  H15A17462   3.816   0.904   6.317  0.3095  1.1188  0.9168
  147DOPC  H15B17463   3.659   0.839   6.301  0.7936 -0.1463 -0.0647
  147DOPC  H15C17464   3.757   0.791   6.439 -0.8962  0.6791  1.1768
  147DOPC   C1117465   3.504   1.070   6.306 -0.2758  0.3542  0.5888
  147DOPC  H11A17466   3.500   1.150   6.229  1.5392  1.5634  1.6594
  147DOPC  H11B17467   3.514   0.971   6.257  1.3821  0.5015  0.5710
  147DOPC     P17468   3.330   1.208   6.427 -0.0940 -0.0685  0.0056
  147DOPC   O1317469   3.433   1.289   6.496 -0.1453  0.1454 -0.9401
  147DOPC   O1417470   3.207   1.186   6.506  0.0966  0.3783  0.1619
  147DOPC   O1217471   3.395   1.072   6.395 -0.1070  0.6483  0.0910
  147DOPC   O1117472   3.299   1.288   6.289  0.8334  0.0624  0.1441
  147DOPC    C117473   3.202   1.384   6.275  0.8053 -0.6870 -0.3671
  147DOPC    HA17474   3.225   1.465   6.204 -0.0416  0.0327  0.1551
  147DOPC    HB17475   3.186   1.429   6.375 -3.2537 -0.0452 -1.1235
  147DOPC    C217476   3.061   1.327   6.249  0.1796  0.0884  0.6717
  147DOPC    HS17477   3.023   1.256   6.326 -3.0382 -0.9834 -1.6549
  147DOPC   O2117478   3.060   1.262   6.123 -0.2002 -0.5090 -0.3642
  147DOPC   C2117479   3.071   1.131   6.128  0.2032  0.2921  0.0410
  147DOPC   O2217480   3.063   1.057   6.223  0.1912  0.1709  0.5621
  147DOPC   C2217481   3.106   1.087   5.988  0.5485 -0.4595  0.2821
  147DOPC   H2R17482   3.176   1.165   5.950 -2.4656  1.4758 -1.6868
  147DOPC   H2S17483   3.012   1.098   5.930  0.1983 -0.3457  0.8613
  147DOPC    C317484   2.956   1.443   6.254  0.0244  0.2534 -0.2240
  147DOPC    HX17485   2.929   1.450   6.361  2.7334  0.8621  0.4970
  147DOPC    HY17486   2.866   1.406   6.200 -0.4452 -1.5163  1.6700
  147DOPC   O3117487   3.010   1.571   6.214 -0.0423 -0.2977  0.3208
  147DOPC   C3117488   2.921   1.674   6.240 -0.5127  0.1114 -0.3730
  147DOPC   O3217489   2.799   1.656   6.245  0.0341 -0.1605  0.5029
  147DOPC   C3217490   3.000   1.798   6.241  0.5541  0.1054 -0.2067
  147DOPC   H2X17491   3.022   1.828   6.345  0.5215  0.5234 -0.3196
  147DOPC   H2Y17492   3.104   1.782   6.206  1.4095  0.2640  2.1048
  147DOPC   C2317493   3.168   0.947   5.982 -0.0462 -0.1584  0.3046
  147DOPC   H3R17494   3.107   0.883   6.050 -1.4646  2.4208  1.5957
  147DOPC   H3S17495   3.270   0.954   6.023 -0.2491  2.4374  0.5558
  147DOPC   C2417496   3.185   0.882   5.842  0.9892 -0.0574 -0.0193
  147DOPC   H4R17497   3.084   0.861   5.800  0.5424  0.5027  0.7391
  147DOPC   H4S17498   3.232   0.782   5.847 -1.3370 -1.1671  1.6959
  147DOPC   C2517499   3.271   0.973   5.758  0.6348 -0.7356  0.0228
  147DOPC   H5R17500   3.368   1.004   5.803  1.7107 -0.9069 -2.0383
  147DOPC   H5S17501   3.218   1.070   5.753  0.8078 -0.3773  3.1524
  147DOPC   C2617502   3.295   0.918   5.607 -0.7190  0.0727  0.2330
  147DOPC   H6R17503   3.196   0.899   5.560 -0.6879  0.7694 -0.1229
  147DOPC   H6S17504   3.349   0.821   5.607 -0.8692 -0.0130 -0.3568
  147DOPC   C2717505   3.383   1.008   5.514  0.3489  0.5706  0.3368
  147DOPC   H7R17506   3.479   1.023   5.568 -0.1392  2.3536  0.7667
  147DOPC   H7S17507   3.337   1.109   5.515  0.5783  0.7619 -2.0497
  147DOPC   C2817508   3.406   0.969   5.370 -0.0533  0.9754  0.2675
  147DOPC   H8R17509   3.472   0.881   5.355 -1.1468  0.2566 -0.4189
  147DOPC   H8S17510   3.466   1.049   5.320 -0.9898  0.9288 -0.9762
  147DOPC   C2917511   3.277   0.945   5.302  0.1980 -0.1770 -0.1392
  147DOPC   H9R17512   3.226   1.038   5.272  2.0519  1.7109  2.1028
  147DOPC  C21017513   3.220   0.822   5.278  0.6307 -0.6109 -0.0835
  147DOPC  H10R17514   3.125   0.818   5.221  1.3568  0.5752 -1.4510
  147DOPC  C21117515   3.280   0.687   5.310 -0.6066 -0.2271 -0.3000
  147DOPC  H11R17516   3.262   0.657   5.416 -1.8540  1.5094  0.0318
  147DOPC  H11S17517   3.391   0.685   5.305 -0.5682  1.9409 -1.6050
  147DOPC  C21217518   3.222   0.574   5.228 -0.2564 -0.0802 -0.5216
  147DOPC  H12R17519   3.114   0.548   5.239 -0.4362  0.8993  0.1330
  147DOPC  H12S17520   3.280   0.484   5.257  1.6411  1.0797 -0.6046
  147DOPC  C21317521   3.234   0.586   5.075  0.4632 -1.0974  0.1465
  147DOPC  H13R17522   3.339   0.624   5.073  0.3832 -0.6655  1.9602
  147DOPC  H13S17523   3.160   0.663   5.043  0.1338 -1.1020  0.8650
  147DOPC  C21417524   3.217   0.453   5.003 -0.3738  0.3028  0.5521
  147DOPC  H14R17525   3.118   0.416   5.038  1.4270 -4.8867  1.1135
  147DOPC  H14S17526   3.289   0.380   5.046 -0.3003  0.0532  0.0147
  147DOPC  C21517527   3.229   0.465   4.852  0.5277 -0.3164 -0.7456
  147DOPC  H15R17528   3.323   0.515   4.820  1.1529 -1.0754 -0.1115
  147DOPC  H15S17529   3.143   0.530   4.822  1.0908  1.6247  1.5259
  147DOPC  C21617530   3.228   0.335   4.783 -0.0314  1.2435  0.6808
  147DOPC  H16R17531   3.141   0.280   4.824  0.5410 -0.2620 -0.0120
  147DOPC  H16S17532   3.324   0.283   4.803 -1.1084 -0.9229  0.5642
  147DOPC  C21717533   3.196   0.344   4.634  0.8649 -0.5001  0.1672
  147DOPC  H17R17534   3.192   0.248   4.578 -0.1403 -0.1828 -0.3105
  147DOPC  H17S17535   3.280   0.395   4.582  0.6908  0.4562  0.7989
  147DOPC  C21817536   3.059   0.414   4.592  0.4756  0.1668 -1.0450
  147DOPC  H18R17537   3.045   0.416   4.481 -1.8722  1.2434 -0.7936
  147DOPC  H18S17538   3.069   0.520   4.624  2.8460 -0.1666 -0.4873
  147DOPC  H18T17539   2.968   0.365   4.634  0.4419 -0.3631 -1.7070
  147DOPC   C3317540   2.942   1.917   6.161 -0.1831 -0.9948  0.2384
  147DOPC   H3X17541   2.870   1.899   6.078 -0.0088 -0.7689  0.0381
  147DOPC   H3Y17542   3.027   1.968   6.111 -0.0391  1.5620  2.8433
  147DOPC   C3417543   2.888   2.030   6.250 -0.5559  0.7897  0.3552
  147DOPC   H4X17544   2.967   2.048   6.326  1.0339  1.2309 -1.3325
  147DOPC   H4Y17545   2.793   1.989   6.291 -0.1666 -1.7876 -1.0968
  147DOPC   C3517546   2.858   2.166   6.180  0.5731 -0.5087 -0.4889
  147DOPC   H5X17547   2.806   2.243   6.242  0.8900  0.9656 -2.0037
  147DOPC   H5Y17548   2.804   2.148   6.085 -0.8861 -1.6808  0.5012
  147DOPC   C3617549   2.986   2.251   6.137  0.2664 -0.4508 -0.2450
  147DOPC   H6X17550   3.064   2.255   6.216  1.0180  0.9978 -1.0335
  147DOPC   H6Y17551   3.035   2.193   6.055 -0.8653 -2.1256  0.2165
  147DOPC   C3717552   2.946   2.393   6.102  0.1333  0.0359  0.2171
  147DOPC   H7X17553   2.900   2.403   6.002 -0.2109  1.1486  0.4727
  147DOPC   H7Y17554   2.864   2.420   6.173 -1.6963  1.1256 -2.1589
  147DOPC   C3817555   3.055   2.498   6.123  0.0857 -0.1923  0.3527
  147DOPC   H8X17556   3.090   2.497   6.228  0.9230 -0.2825  0.0828
  147DOPC   H8Y17557   3.013   2.596   6.093 -0.0497 -0.1543  0.6620
  147DOPC   C3917558   3.169   2.471   6.034  0.6506  0.1622  0.3434
  147DOPC   H9X17559   3.237   2.397   6.079 -1.1035 -0.8024  1.5351
  147DOPC  C31017560   3.224   2.543   5.932  0.1254 -0.6531  0.4599
  147DOPC  H10X17561   3.320   2.504   5.893  0.5450 -0.5249  1.3305
  147DOPC  C31117562   3.170   2.673   5.874 -0.2942 -0.1380  0.8382
  147DOPC  H11X17563   3.237   2.752   5.913 -1.0325  1.8511 -1.6479
  147DOPC  H11Y17564   3.066   2.698   5.906  0.3682  2.1091  1.4118
  147DOPC  C31217565   3.172   2.686   5.720 -0.2971 -0.2365  0.9359
  147DOPC  H12X17566   3.114   2.604   5.672 -1.8125  0.2796  1.8100
  147DOPC  H12Y17567   3.278   2.680   5.687  0.0408 -0.5871  2.0315
  147DOPC  C31317568   3.101   2.816   5.674  0.1859 -0.2010 -0.4925
  147DOPC  H13X17569   3.012   2.826   5.739  0.5377  2.3977 -0.3072
  147DOPC  H13Y17570   3.169   2.901   5.695  0.9610 -0.7392 -0.8007
  147DOPC  C31417571   3.070   2.819   5.524  0.7997 -0.5385  0.3220
  147DOPC  H14X17572   3.163   2.820   5.464  0.3098  1.9838 -0.4964
  147DOPC  H14Y17573   3.013   2.726   5.503 -2.5551  1.4432  0.0765
  147DOPC  C31517574   2.993   2.943   5.501 -0.2466  0.6361 -0.4549
  147DOPC  H15X17575   3.060   3.024   5.537  0.6726 -0.3132  0.0366
  147DOPC  H15Y17576   2.896   2.936   5.555  0.1298  1.1529  0.3070
  147DOPC  C31617577   2.958   2.984   5.365  0.1720  0.8755  0.0349
  147DOPC  H16X17578   2.941   3.093   5.351 -1.4020  0.8854  1.6948
  147DOPC  H16Y17579   3.042   2.959   5.296  1.5550 -1.0292  2.2793
  147DOPC  C31717580   2.837   2.896   5.320 -0.3342 -0.3597  1.0392
  147DOPC  H17X17581   2.852   2.787   5.335  0.6567 -0.2672  0.8276
  147DOPC  H17Y17582   2.754   2.933   5.383 -0.2145  1.1889  0.3268
  147DOPC  C31817583   2.797   2.917   5.169  0.2886  1.0526 -0.8649
  147DOPC  H18X17584   2.885   2.885   5.110  1.0545 -2.1931  1.7347
  147DOPC  H18Y17585   2.716   2.846   5.142  0.1239  0.6035  0.6916
  147DOPC  H18Z17586   2.772   3.024   5.152  0.1556  1.1423 -0.1316
  148DOPC     N17587   4.721   2.960   7.390  0.0902  0.3710 -0.1788
  148DOPC   C1217588   4.819   2.944   7.269  0.4145  0.3637  0.1274
  148DOPC  H12A17589   4.791   2.848   7.228 -2.1917  2.0493 -2.4688
  148DOPC  H12B17590   4.921   2.941   7.305 -0.2706 -2.4739  2.1296
  148DOPC   C1317591   4.583   2.950   7.337  1.0316  0.6289  0.7618
  148DOPC  H13A17592   4.509   2.951   7.416 -0.1973  1.8543 -0.3602
  148DOPC  H13B17593   4.557   3.031   7.271 -0.8128  2.1468  3.1419
  148DOPC  H13C17594   4.570   2.859   7.280  1.0582 -0.0733  1.8376
  148DOPC   C1417595   4.734   3.094   7.456  0.5699  0.0601  0.5064
  148DOPC  H14A17596   4.721   3.175   7.387 -1.6331  0.4814  1.3555
  148DOPC  H14B17597   4.659   3.098   7.534  0.5744 -0.4900  0.5494
  148DOPC  H14C17598   4.830   3.109   7.505 -0.2811  1.7430  1.7497
  148DOPC   C1517599   4.743   2.850   7.490 -0.0767 -0.2353 -0.4614
  148DOPC  H15A17600   4.676   2.858   7.575 -1.0187 -0.4548 -1.1646
  148DOPC  H15B17601   4.843   2.852   7.530 -0.8185 -0.8560  1.6023
  148DOPC  H15C17602   4.735   2.756   7.438  0.5602 -0.0960 -0.8148
  148DOPC   C1117603   4.822   3.045   7.154  0.5064  0.4095 -0.6088
  148DOPC  H11A17604   4.890   3.008   7.075  1.6507  1.4729 -0.1653
  148DOPC  H11B17605   4.717   3.037   7.118 -0.5254  0.3402  2.1388
  148DOPC     P17606   4.997   3.236   7.182 -0.3729  0.0235 -0.2404
  148DOPC   O1317607   5.091   3.162   7.266 -0.1968 -0.1371 -0.0904
  148DOPC   O1417608   5.000   3.382   7.194 -0.4238  0.2314  0.2281
  148DOPC   O1217609   4.853   3.183   7.200  0.3301  0.3265  0.5295
  148DOPC   O1117610   5.023   3.205   7.033  0.3330 -0.2285  0.8578
  148DOPC    C117611   4.967   3.291   6.940 -0.4842 -0.0562 -0.1176
  148DOPC    HA17612   5.060   3.330   6.892  1.0279 -1.0216  1.8622
  148DOPC    HB17613   4.919   3.384   6.977  0.9678  1.9394 -2.8837
  148DOPC    C217614   4.884   3.221   6.837 -0.7305  0.4783  0.6374
  148DOPC    HS17615   4.794   3.197   6.897  0.7847  0.3941  2.9969
  148DOPC   O2117616   4.950   3.104   6.779 -0.6263 -0.1133 -0.3048
  148DOPC   C2117617   4.885   2.992   6.789  0.0675  0.6612 -1.0309
  148DOPC   O2217618   4.780   2.978   6.857 -0.0957 -0.4974  0.3413
  148DOPC   C2217619   4.935   2.891   6.689 -0.8900 -0.7864  0.3304
  148DOPC   H2R17620   5.026   2.838   6.726 -1.5053 -1.2024  1.2934
  148DOPC   H2S17621   4.967   2.954   6.603  0.7710 -0.0083  1.4534
  148DOPC    C317622   4.858   3.325   6.723 -0.4128  0.1481  0.2876
  148DOPC    HX17623   4.944   3.306   6.656 -0.2362 -0.0807  0.5765
  148DOPC    HY17624   4.862   3.427   6.766  1.4693 -0.2414  1.1464
  148DOPC   O3117625   4.733   3.297   6.653  0.2054  0.1403 -0.1845
  148DOPC   C3117626   4.623   3.319   6.713  0.6242  0.2917  0.4026
  148DOPC   O3217627   4.606   3.361   6.826  0.2654 -0.2697  0.1780
  148DOPC   C3217628   4.517   3.293   6.609  0.0502  1.1968  1.1718
  148DOPC   H2X17629   4.544   3.355   6.520  1.1594 -1.1375 -0.2145
  148DOPC   H2Y17630   4.539   3.193   6.566 -0.5287  1.3086  0.5976
  148DOPC   C2317631   4.842   2.781   6.654  0.1391 -0.0650 -0.1258
  148DOPC   H3R17632   4.793   2.728   6.739 -1.9245 -0.4815 -1.4909
  148DOPC   H3S17633   4.913   2.708   6.609 -0.6769 -2.6190  2.4343
  148DOPC   C2417634   4.730   2.816   6.561  0.7439 -0.6803 -0.3421
  148DOPC   H4R17635   4.774   2.882   6.484  0.7798  0.9901  1.0383
  148DOPC   H4S17636   4.653   2.878   6.610  0.8852 -0.3307 -0.5620
  148DOPC   C2517637   4.651   2.701   6.494 -0.6541 -1.0491 -0.5109
  148DOPC   H5R17638   4.603   2.638   6.572  2.3882 -0.1767  2.2998
  148DOPC   H5S17639   4.728   2.649   6.433  1.3839  2.4092 -1.2197
  148DOPC   C2617640   4.551   2.756   6.392  0.3958  0.2092  0.3178
  148DOPC   H6R17641   4.608   2.819   6.321  0.8220 -0.9521 -0.4131
  148DOPC   H6S17642   4.477   2.820   6.443 -0.5648 -0.5601 -0.0673
  148DOPC   C2717643   4.479   2.648   6.315  0.8166  0.7955 -0.4082
  148DOPC   H7R17644   4.407   2.594   6.381  0.0131 -1.4608 -2.9248
  148DOPC   H7S17645   4.564   2.582   6.286 -1.1297 -2.3086  0.4182
  148DOPC   C2817646   4.408   2.709   6.191  0.2223 -0.1751  0.2010
  148DOPC   H8R17647   4.372   2.620   6.134 -1.3026  0.9353 -0.6529
  148DOPC   H8S17648   4.474   2.763   6.120 -0.2609 -0.3230 -0.3773
  148DOPC   C2917649   4.290   2.802   6.228  0.3292 -0.1995 -0.5498
  148DOPC   H9R17650   4.314   2.906   6.254 -0.3049 -0.5872  1.9072
  148DOPC  C21017651   4.158   2.776   6.218  0.0318 -0.2805 -0.1274
  148DOPC  H10R17652   4.083   2.855   6.233  0.2136 -0.4818  2.1621
  148DOPC  C21117653   4.096   2.649   6.184 -0.0829  0.0849  0.2532
  148DOPC  H11R17654   4.014   2.617   6.251 -1.5202 -0.2858 -1.6079
  148DOPC  H11S17655   4.172   2.569   6.169 -0.3964  0.1168 -1.9758
  148DOPC  C21217656   4.016   2.648   6.051 -0.9113 -0.4117  0.1018
  148DOPC  H12R17657   3.925   2.712   6.055 -0.3348  0.4133  0.1653
  148DOPC  H12S17658   3.984   2.541   6.044 -0.5331 -0.4543 -1.2639
  148DOPC  C21317659   4.100   2.680   5.927  0.3541  0.2414 -0.0047
  148DOPC  H13R17660   4.166   2.769   5.941  0.3543  0.0680  1.2420
  148DOPC  H13S17661   4.022   2.706   5.853  0.7571  2.2685  0.2112
  148DOPC  C21417662   4.185   2.565   5.860 -0.2257 -0.0975 -0.6006
  148DOPC  H14R17663   4.126   2.471   5.862  1.4675 -1.2809 -2.5900
  148DOPC  H14S17664   4.279   2.565   5.918 -0.5590  0.4364 -0.0517
  148DOPC  C21517665   4.215   2.591   5.714 -0.0724  0.0273  0.8825
  148DOPC  H15R17666   4.293   2.668   5.696  0.1019 -0.7306 -2.1626
  148DOPC  H15S17667   4.122   2.625   5.663  1.3361 -0.2209 -2.0408
  148DOPC  C21617668   4.271   2.468   5.633  0.3509 -0.1088  0.4384
  148DOPC  H16R17669   4.267   2.505   5.528 -1.4533 -0.8762  0.2062
  148DOPC  H16S17670   4.210   2.377   5.650  0.1576 -0.0366  0.1367
  148DOPC  C21717671   4.413   2.438   5.675 -0.6197  0.7361 -1.2675
  148DOPC  H17R17672   4.418   2.445   5.786 -0.3583  0.1196 -1.2293
  148DOPC  H17S17673   4.482   2.519   5.644  0.4597 -0.2914 -1.6633
  148DOPC  C21817674   4.464   2.297   5.633 -0.6111 -0.1614 -0.1521
  148DOPC  H18R17675   4.379   2.225   5.623  0.0788 -1.0310  0.1141
  148DOPC  H18S17676   4.527   2.251   5.712 -0.4454  0.7154  0.2398
  148DOPC  H18T17677   4.506   2.304   5.530  0.1083  0.7354  0.1878
  148DOPC   C3317678   4.371   3.318   6.657 -0.8758 -0.2233 -0.0725
  148DOPC   H3X17679   4.365   3.276   6.760 -0.9408 -1.7439 -0.6578
  148DOPC   H3Y17680   4.308   3.268   6.581  0.6069 -0.2791 -1.3122
  148DOPC   C3417681   4.337   3.467   6.654 -0.1404  0.2076 -0.5674
  148DOPC   H4X17682   4.409   3.521   6.719 -2.0715  1.0718  0.9734
  148DOPC   H4Y17683   4.242   3.481   6.710 -0.2365  2.1465 -1.1660
  148DOPC   C3517684   4.324   3.538   6.516 -0.3105  0.4967 -0.1561
  148DOPC   H5X17685   4.237   3.489   6.469 -0.7507 -1.5383  2.5149
  148DOPC   H5Y17686   4.409   3.516   6.448  0.2862 -1.3645  1.1218
  148DOPC   C3617687   4.318   3.689   6.531  0.3573 -1.0291  0.1679
  148DOPC   H6X17688   4.226   3.724   6.583  2.2447  1.5555  2.0497
  148DOPC   H6Y17689   4.412   3.715   6.584  0.6050 -0.4108 -0.5588
  148DOPC   C3717690   4.313   3.764   6.395 -0.7516  0.4828  0.1352
  148DOPC   H7X17691   4.331   3.870   6.422 -0.0095  0.4547 -0.2149
  148DOPC   H7Y17692   4.389   3.730   6.321  1.1903  0.7625  1.9273
  148DOPC   C3817693   4.175   3.754   6.325 -0.0478  0.2064 -0.0538
  148DOPC   H8X17694   4.110   3.811   6.394 -1.2131  1.4507 -2.0536
  148DOPC   H8Y17695   4.145   3.648   6.319  1.3774 -0.2468  0.4506
  148DOPC   C3917696   4.181   3.810   6.183 -0.1681  0.4306  0.7196
  148DOPC   H9X17697   4.203   3.918   6.176  1.2325  0.2095  1.4606
  148DOPC  C31017698   4.139   3.749   6.072  0.2929 -0.3112 -0.3634
  148DOPC  H10X17699   4.155   3.797   5.974  1.7358  0.8877  0.4276
  148DOPC  C31117700   4.076   3.612   6.043  0.0921  0.9710 -0.4084
  148DOPC  H11X17701   3.997   3.607   5.964 -0.7028  1.5361  0.3305
  148DOPC  H11Y17702   4.024   3.564   6.129 -0.4558 -2.0252 -2.2593
  148DOPC  C31217703   4.184   3.512   6.003 -0.0916 -0.1973 -0.3055
  148DOPC  H12X17704   4.248   3.558   5.924  0.7459 -0.2499  0.3279
  148DOPC  H12Y17705   4.145   3.419   5.957  1.0707 -0.5532 -0.6021
  148DOPC  C31317706   4.282   3.471   6.115 -0.6059 -0.3193 -0.2250
  148DOPC  H13X17707   4.352   3.557   6.125  1.2190 -1.9137  1.2527
  148DOPC  H13Y17708   4.236   3.451   6.214 -1.5014  0.8237 -0.3815
  148DOPC  C31417709   4.349   3.337   6.088 -0.5292  0.1777 -0.1209
  148DOPC  H14X17710   4.290   3.259   6.035 -0.2041 -0.6109  0.6469
  148DOPC  H14Y17711   4.431   3.352   6.016  0.2603 -0.2887  0.6658
  148DOPC  C31517712   4.400   3.268   6.218 -0.1917  0.0942 -0.4323
  148DOPC  H15X17713   4.322   3.237   6.290  0.2633 -0.0262  0.0096
  148DOPC  H15Y17714   4.461   3.349   6.264 -0.7978  0.3090  0.0027
  148DOPC  C31617715   4.493   3.144   6.207  0.1181  0.1097  0.5597
  148DOPC  H16X17716   4.477   3.092   6.305 -0.8786 -0.8748 -0.0994
  148DOPC  H16Y17717   4.453   3.092   6.117 -2.2606  2.5166  0.1242
  148DOPC  C31717718   4.637   3.186   6.182  0.1226 -0.1330 -0.3637
  148DOPC  H17X17719   4.642   3.259   6.098  0.7502  0.1174 -0.1174
  148DOPC  H17Y17720   4.668   3.227   6.280 -0.3484 -2.2536  0.7436
  148DOPC  C31817721   4.727   3.069   6.157 -0.2383 -0.1318 -0.4432
  148DOPC  H18X17722   4.689   3.003   6.076  0.9754 -1.6105  0.1329
  148DOPC  H18Y17723   4.826   3.107   6.122 -0.8191  2.7116  0.7721
  148DOPC  H18Z17724   4.741   3.004   6.246 -3.1699 -0.9318 -0.4798
  149DOPC     N17725   3.008   0.752   7.137  0.0512  0.4933  0.1073
  149DOPC   C1217726   3.088   0.709   7.262  0.2688  0.0406  0.1311
  149DOPC  H12A17727   3.061   0.606   7.275 -0.8578  0.3145  0.0596
  149DOPC  H12B17728   3.052   0.770   7.344 -2.3340 -1.8345  0.5062
  149DOPC   C1317729   3.060   0.886   7.089  1.2621 -0.9961  0.1948
  149DOPC  H13A17730   3.013   0.921   6.999  0.9265  1.8126  1.3634
  149DOPC  H13B17731   3.044   0.971   7.154  0.6156  0.7486 -2.1216
  149DOPC  H13C17732   3.165   0.883   7.067  0.9276  0.3127 -1.7793
  149DOPC   C1417733   2.863   0.756   7.187  0.0296  0.0435  0.7771
  149DOPC  H14A17734   2.849   0.832   7.262  1.3292  1.1293 -0.0296
  149DOPC  H14B17735   2.796   0.773   7.104  1.8475 -2.0787 -1.2822
  149DOPC  H14C17736   2.825   0.662   7.223  0.7923 -0.6555 -0.1763
  149DOPC   C1517737   3.016   0.652   7.030 -0.4632 -0.1872  0.3935
  149DOPC  H15A17738   2.992   0.549   7.054 -3.4581 -0.0080 -1.4411
  149DOPC  H15B17739   3.114   0.650   6.985 -1.2938 -0.3898 -1.4811
  149DOPC  H15C17740   2.957   0.680   6.944 -2.0638  1.9706  2.0751
  149DOPC   C1117741   3.243   0.725   7.261  0.6491 -0.8712  0.2362
  149DOPC  H11A17742   3.253   0.832   7.236 -2.9718 -0.7169 -1.1972
  149DOPC  H11B17743   3.269   0.705   7.367  0.5731 -2.0794  0.0458
  149DOPC     P17744   3.391   0.686   7.056 -0.1177 -0.3691 -0.0145
  149DOPC   O1317745   3.508   0.757   7.116  0.0435  0.0688  0.1119
  149DOPC   O1417746   3.310   0.767   6.964  0.4188 -0.4404 -0.3447
  149DOPC   O1217747   3.300   0.630   7.169  0.3901  0.4232 -0.4473
  149DOPC   O1117748   3.451   0.562   6.977  0.5203 -0.1608  0.3529
  149DOPC    C117749   3.376   0.439   6.959 -0.2204  0.3337 -0.7573
  149DOPC    HA17750   3.267   0.456   6.956 -0.3437  0.2373  1.4488
  149DOPC    HB17751   3.393   0.369   7.044 -4.0552  1.5814  1.2623
  149DOPC    C217752   3.408   0.376   6.822  0.1892 -0.4212  0.2155
  149DOPC    HS17753   3.510   0.334   6.828 -0.2853 -1.4104  4.2997
  149DOPC   O2117754   3.404   0.477   6.714  0.0113  0.1564  0.3451
  149DOPC   C2117755   3.467   0.433   6.605  0.4290 -0.1267 -0.3960
  149DOPC   O2217756   3.527   0.324   6.598 -0.3061 -0.1461  0.0508
  149DOPC   C2217757   3.461   0.548   6.498 -0.3092  0.1322 -0.3534
  149DOPC   H2R17758   3.530   0.628   6.533 -1.0542  0.1677  1.1054
  149DOPC   H2S17759   3.357   0.586   6.489  0.3364  1.9287 -0.8445
  149DOPC    C317760   3.316   0.250   6.796  0.0100  0.2838 -0.2288
  149DOPC    HX17761   3.317   0.179   6.881 -0.3906  2.1132  1.3556
  149DOPC    HY17762   3.364   0.196   6.711 -1.0784  1.0605 -1.3742
  149DOPC   O3117763   3.182   0.292   6.772 -0.7528 -0.2217 -0.1781
  149DOPC   C3117764   3.131   0.284   6.646 -1.0290 -0.2490 -0.2242
  149DOPC   O3217765   3.188   0.230   6.548  0.3818  0.7560 -0.1861
  149DOPC   C3217766   3.019   0.385   6.641 -0.6955 -0.1378  0.4345
  149DOPC   H2X17767   2.934   0.354   6.705  0.4353 -1.8497  1.1544
  149DOPC   H2Y17768   3.049   0.484   6.683 -1.5835  0.9429 -1.3839
  149DOPC   C2317769   3.523   0.509   6.358 -0.7137 -0.1190  0.1198
  149DOPC   H3R17770   3.472   0.419   6.317  0.0625 -0.7311  0.4761
  149DOPC   H3S17771   3.631   0.491   6.373 -0.6713  0.6334  0.7970
  149DOPC   C2417772   3.505   0.624   6.257  1.0924  0.2683  0.3458
  149DOPC   H4R17773   3.521   0.718   6.313  0.5568  0.6526 -0.1297
  149DOPC   H4S17774   3.399   0.628   6.222  1.2113  1.3463  0.0765
  149DOPC   C2517775   3.584   0.617   6.136 -0.0401 -0.3403  0.4736
  149DOPC   H5R17776   3.549   0.535   6.069 -0.5757  0.7016 -0.5530
  149DOPC   H5S17777   3.685   0.577   6.159 -0.1335 -0.5590  0.5119
  149DOPC   C2617778   3.576   0.754   6.060 -0.1906  0.2737 -0.1233
  149DOPC   H6R17779   3.634   0.832   6.114 -1.7591  0.8207  0.8398
  149DOPC   H6S17780   3.472   0.791   6.065 -0.9504 -1.9179  2.1899
  149DOPC   C2717781   3.634   0.741   5.920  0.4749 -0.2280 -0.1896
  149DOPC   H7R17782   3.587   0.815   5.852  0.1364  1.6375  1.9333
  149DOPC   H7S17783   3.608   0.645   5.872  0.5871 -1.0046  1.2475
  149DOPC   C2817784   3.785   0.773   5.917 -0.2470 -0.5932 -0.1190
  149DOPC   H8R17785   3.827   0.740   5.820  1.5695  0.4251  0.2722
  149DOPC   H8S17786   3.828   0.721   6.005 -2.6587 -1.3633  0.6899
  149DOPC   C2917787   3.817   0.921   5.934  0.2874  0.8449  0.1417
  149DOPC   H9R17788   3.763   0.971   6.016 -1.7950 -0.4505 -0.3817
  149DOPC  C21017789   3.892   1.002   5.853 -0.3644  0.0024  0.1585
  149DOPC  H10R17790   3.925   1.099   5.891  0.5887 -0.1220 -0.3160
  149DOPC  C21117791   3.958   0.955   5.729  0.6410  0.3957  0.0825
  149DOPC  H11R17792   4.005   0.857   5.751 -2.2864 -1.0772  0.2777
  149DOPC  H11S17793   4.048   1.020   5.725  1.2284 -0.4577 -0.8708
  149DOPC  C21217794   3.875   0.927   5.605 -0.2992 -0.3038  1.4423
  149DOPC  H12R17795   3.782   0.870   5.623 -0.1018 -0.8146  0.8540
  149DOPC  H12S17796   3.936   0.866   5.535 -1.3417 -1.6117  1.6555
  149DOPC  C21317797   3.832   1.061   5.539 -0.1112  0.0043  0.2504
  149DOPC  H13R17798   3.923   1.123   5.545  0.0448 -0.1224 -0.5943
  149DOPC  H13S17799   3.755   1.102   5.608  1.2362  0.3924  1.5510
  149DOPC  C21417800   3.769   1.049   5.402 -0.7872  0.5571 -0.0985
  149DOPC  H14R17801   3.667   1.008   5.413  0.1204 -1.1435  3.6960
  149DOPC  H14S17802   3.829   0.973   5.347  1.0987  0.5701  1.8002
  149DOPC  C21517803   3.764   1.188   5.341 -0.4169  0.7131  0.9166
  149DOPC  H15R17804   3.848   1.247   5.382  0.3878  1.9109 -2.1509
  149DOPC  H15S17805   3.664   1.233   5.362 -0.3458  0.6729  1.3445
  149DOPC  C21617806   3.772   1.186   5.191 -0.2044  0.3644  0.8143
  149DOPC  H16R17807   3.752   1.284   5.142 -0.6118 -0.3838 -0.5514
  149DOPC  H16S17808   3.691   1.125   5.145  2.0714 -1.1292 -1.4537
  149DOPC  C21717809   3.899   1.118   5.134 -1.0236 -0.8144  1.3195
  149DOPC  H17R17810   3.886   1.115   5.024 -3.1727 -3.3932  1.5461
  149DOPC  H17S17811   3.907   1.010   5.159 -0.2013 -1.0483  0.1532
  149DOPC  C21817812   4.024   1.195   5.180  0.4457  0.2559  0.5526
  149DOPC  H18R17813   3.988   1.292   5.138 -1.7002 -0.8776 -0.3479
  149DOPC  H18S17814   4.118   1.165   5.128  1.1953  1.8109  0.9427
  149DOPC  H18T17815   4.030   1.203   5.290  1.0392 -1.4589  0.6733
  149DOPC   C3317816   2.971   0.417   6.504 -0.1396 -0.5406  0.9909
  149DOPC   H3X17817   2.886   0.489   6.508 -1.5756 -2.0715 -0.5006
  149DOPC   H3Y17818   2.918   0.329   6.461 -0.1707  0.8274 -2.0231
  149DOPC   C3417819   3.070   0.473   6.400  0.0558  0.2377  0.0362
  149DOPC   H4X17820   3.163   0.412   6.405  0.0789  0.2189 -0.5631
  149DOPC   H4Y17821   3.113   0.573   6.424  0.1741  0.7717 -2.1544
  149DOPC   C3517822   3.019   0.467   6.251 -0.2619 -0.0458 -0.5234
  149DOPC   H5X17823   2.927   0.529   6.248  1.0621  1.9680 -2.3115
  149DOPC   H5Y17824   2.995   0.358   6.251 -0.8029  0.0547  0.6079
  149DOPC   C3617825   3.121   0.510   6.142  0.0760 -0.3161 -0.0936
  149DOPC   H6X17826   3.124   0.620   6.125  1.9949 -0.3989 -0.5520
  149DOPC   H6Y17827   3.219   0.486   6.188  0.3032 -1.8328 -1.2918
  149DOPC   C3717828   3.119   0.438   6.011 -0.1797 -0.0095 -0.2325
  149DOPC   H7X17829   3.101   0.332   6.039 -1.3488 -0.4255 -2.4017
  149DOPC   H7Y17830   3.035   0.466   5.945  0.1392 -1.4281 -1.3029
  149DOPC   C3817831   3.246   0.448   5.926  0.1281  0.4517  0.3111
  149DOPC   H8X17832   3.335   0.420   5.985 -0.0960 -2.0830 -0.4236
  149DOPC   H8Y17833   3.254   0.554   5.894  0.6436 -0.2729 -2.1230
  149DOPC   C3917834   3.231   0.361   5.796 -0.1664 -0.0347 -0.8544
  149DOPC   H9X17835   3.143   0.296   5.796 -1.2182  1.3531 -1.1491
  149DOPC  C31017836   3.322   0.344   5.698  0.6142 -0.1486 -0.5868
  149DOPC  H10X17837   3.294   0.282   5.612  0.8639 -1.8700  0.5330
  149DOPC  C31117838   3.463   0.391   5.706  1.0645  0.0880  0.2339
  149DOPC  H11X17839   3.534   0.306   5.702  1.0490  0.0492  0.6849
  149DOPC  H11Y17840   3.492   0.431   5.806  0.0014  3.1300 -0.5673
  149DOPC  C31217841   3.499   0.497   5.597 -0.5107  0.0702 -0.3792
  149DOPC  H12X17842   3.585   0.557   5.635  0.3872  2.5416 -5.4645
  149DOPC  H12Y17843   3.415   0.569   5.590 -0.8551 -0.3015 -0.1538
  149DOPC  C31317844   3.525   0.446   5.449 -0.0214 -0.4183 -1.2012
  149DOPC  H13X17845   3.448   0.370   5.425 -0.8620 -0.1867  0.5788
  149DOPC  H13Y17846   3.513   0.528   5.376  0.1399  0.5923 -0.1147
  149DOPC  C31417847   3.666   0.394   5.432 -0.7703 -0.0779  0.2127
  149DOPC  H14X17848   3.688   0.304   5.493 -0.7486 -0.2797 -0.0962
  149DOPC  H14Y17849   3.670   0.359   5.327 -0.3895  1.5710 -0.3566
  149DOPC  C31517850   3.786   0.492   5.442  0.3040 -0.2583  0.2282
  149DOPC  H15X17851   3.877   0.444   5.400  0.9051 -1.0696  2.3262
  149DOPC  H15Y17852   3.805   0.522   5.547  3.3923 -0.2754 -0.2377
  149DOPC  C31617853   3.762   0.630   5.363 -0.0633  0.6185  0.4116
  149DOPC  H16X17854   3.672   0.685   5.399 -0.9701 -0.5375 -0.0177
  149DOPC  H16Y17855   3.846   0.695   5.394  0.4371  0.1754  0.0041
  149DOPC  C31717856   3.774   0.614   5.212 -0.3047 -0.3578  0.0592
  149DOPC  H17X17857   3.833   0.701   5.174 -0.3725 -1.5381 -3.0766
  149DOPC  H17Y17858   3.827   0.517   5.201  3.4451  1.4647  0.1366
  149DOPC  C31817859   3.641   0.616   5.141  0.5207  0.3328  0.3987
  149DOPC  H18X17860   3.571   0.680   5.200  1.2187  0.1905  1.3990
  149DOPC  H18Y17861   3.645   0.655   5.037 -1.7599  0.9664  0.4798
  149DOPC  H18Z17862   3.599   0.513   5.151 -1.5076  1.3268  4.2800
  150DOPC     N17863   7.190   3.645   7.345 -0.3881 -0.0055  0.2290
  150DOPC   C1217864   7.064   3.667   7.435 -0.5007 -1.0041  0.4064
  150DOPC  H12A17865   6.978   3.710   7.386  1.2574  3.3334  0.6692
  150DOPC  H12B17866   7.086   3.749   7.503 -2.5983  2.3971 -2.6705
  150DOPC   C1317867   7.279   3.546   7.421 -0.2077 -0.2087  0.1982
  150DOPC  H13A17868   7.324   3.582   7.512 -2.0843  0.2300  1.0077
  150DOPC  H13B17869   7.219   3.458   7.438 -1.5798  0.5914 -0.3179
  150DOPC  H13C17870   7.357   3.510   7.356  1.7595 -0.5466  2.6069
  150DOPC   C1417871   7.253   3.773   7.315 -0.3696 -0.1127  0.3584
  150DOPC  H14A17872   7.192   3.820   7.239 -0.1562 -0.1696  0.1480
  150DOPC  H14B17873   7.270   3.835   7.401 -0.3692  2.4362 -1.3619
  150DOPC  H14C17874   7.352   3.756   7.272  1.0909  3.2841  2.0359
  150DOPC   C1517875   7.140   3.581   7.213  0.4475  0.1886  0.3509
  150DOPC  H15A17876   7.047   3.529   7.229  0.3333 -0.1568 -1.3005
  150DOPC  H15B17877   7.225   3.524   7.180  1.3931 -0.7477  3.9378
  150DOPC  H15C17878   7.129   3.660   7.140  1.6572  1.5686  1.5737
  150DOPC   C1117879   7.021   3.546   7.514 -0.6983  0.2210 -0.0407
  150DOPC  H11A17880   7.104   3.522   7.584  0.8622 -0.1798 -1.9422
  150DOPC  H11B17881   6.940   3.568   7.586 -1.2672  1.6661 -1.0766
  150DOPC     P17882   6.859   3.410   7.372 -0.2173  0.1358  0.0444
  150DOPC   O1317883   6.754   3.385   7.470  0.3311 -0.4119  0.3999
  150DOPC   O1417884   6.880   3.306   7.265  0.3780 -0.0684 -0.7610
  150DOPC   O1217885   6.991   3.425   7.447 -0.3660  0.3317 -0.6531
  150DOPC   O1117886   6.830   3.549   7.299 -0.4686  0.0175  0.6784
  150DOPC    C117887   6.726   3.563   7.202 -0.0359  0.0792 -0.3859
  150DOPC    HA17888   6.635   3.607   7.249 -0.4387 -1.5973  0.4728
  150DOPC    HB17889   6.707   3.464   7.157 -1.0002 -1.5125  3.1703
  150DOPC    C217890   6.771   3.659   7.085  0.5457  0.0440  0.2332
  150DOPC    HS17891   6.684   3.681   7.019  0.5084  3.7299  1.2814
  150DOPC   O2117892   6.881   3.590   7.028 -0.2647 -0.6174 -0.0996
  150DOPC   C2117893   6.857   3.493   6.941 -0.1803 -0.5018 -0.1799
  150DOPC   O2217894   6.748   3.450   6.913 -0.8972 -0.1558 -0.0489
  150DOPC   C2217895   6.986   3.440   6.888 -0.3333  0.1664 -0.6576
  150DOPC   H2R17896   6.978   3.334   6.855 -0.6114 -0.1248  0.2926
  150DOPC   H2S17897   7.053   3.440   6.977 -2.3023  0.9922  0.9197
  150DOPC    C317898   6.816   3.800   7.132 -0.0879  0.0156  0.1020
  150DOPC    HX17899   6.902   3.803   7.202  0.6692 -0.9534 -0.7609
  150DOPC    HY17900   6.731   3.859   7.171 -0.0443  0.0629  0.1252
  150DOPC   O3117901   6.858   3.884   7.021 -0.1361 -0.0538 -0.0232
  150DOPC   C3117902   6.984   3.901   6.993  0.2858 -1.0072 -0.5160
  150DOPC   O3217903   7.078   3.856   7.060  0.4505  0.0445  0.1407
  150DOPC   C3217904   7.006   3.989   6.867  0.3405 -0.3245 -0.1259
  150DOPC   H2X17905   6.967   3.936   6.778 -0.3597  0.1326 -0.1027
  150DOPC   H2Y17906   6.933   4.073   6.877  1.0000  0.1160  1.4404
  150DOPC   C2317907   7.038   3.534   6.774  0.0518  0.1429  0.2349
  150DOPC   H3R17908   7.148   3.520   6.767  0.3520  1.7146  1.3056
  150DOPC   H3S17909   7.031   3.643   6.793 -0.5192  0.2623 -0.6131
  150DOPC   C2417910   6.968   3.503   6.640 -0.0071  0.3819  0.7895
  150DOPC   H4R17911   6.857   3.510   6.637 -0.4109 -3.6766 -2.1539
  150DOPC   H4S17912   6.994   3.398   6.615 -2.4477 -0.2356  0.5545
  150DOPC   C2517913   7.015   3.585   6.516 -0.9950  0.9991  0.1030
  150DOPC   H5R17914   7.124   3.587   6.537 -0.1581  1.7044 -3.6403
  150DOPC   H5S17915   6.983   3.691   6.514  0.5693  1.5079  0.3279
  150DOPC   C2617916   6.986   3.516   6.387  0.1395  0.0871  0.0730
  150DOPC   H6R17917   6.881   3.531   6.355  0.6011  0.1470 -1.5017
  150DOPC   H6S17918   6.992   3.406   6.402  0.9086  0.2312  0.9023
  150DOPC   C2717919   7.082   3.551   6.266  0.6793 -0.4549 -0.5064
  150DOPC   H7R17920   7.185   3.528   6.301 -0.0409 -1.8853  0.8011
  150DOPC   H7S17921   7.070   3.660   6.254  0.0767 -0.3429  0.9086
  150DOPC   C2817922   7.042   3.477   6.140 -0.2815 -0.2065  0.0694
  150DOPC   H8R17923   6.932   3.466   6.129 -0.0913  0.0560 -2.9136
  150DOPC   H8S17924   7.089   3.377   6.154  1.2020  0.3128 -0.9149
  150DOPC   C2917925   7.093   3.551   6.023  0.0689  0.2672 -0.1347
  150DOPC   H9R17926   7.037   3.639   5.991 -0.0278  0.2424 -0.0305
  150DOPC  C21017927   7.191   3.503   5.938 -0.5727 -0.8883 -0.4301
  150DOPC  H10R17928   7.216   3.577   5.861  1.1018  1.8437  2.4604
  150DOPC  C21117929   7.279   3.378   5.951  0.1689 -0.9578 -0.0050
  150DOPC  H11R17930   7.222   3.301   6.008 -1.3202 -0.8845 -1.3449
  150DOPC  H11S17931   7.376   3.404   5.999  0.3903 -1.1308 -0.3559
  150DOPC  C21217932   7.315   3.332   5.811 -0.2980  0.3589 -0.7490
  150DOPC  H12R17933   7.370   3.237   5.830  0.1289  0.5466 -1.0221
  150DOPC  H12S17934   7.387   3.404   5.764  0.4705 -0.5582 -1.0029
  150DOPC  C21317935   7.193   3.296   5.727  0.9103 -0.1311  0.0445
  150DOPC  H13R17936   7.122   3.380   5.712 -1.1735 -2.1895 -2.6620
  150DOPC  H13S17937   7.138   3.220   5.786  0.2649  0.3708  0.1010
  150DOPC  C21417938   7.229   3.229   5.593  0.5059  0.0047 -0.3661
  150DOPC  H14R17939   7.309   3.156   5.618  0.1172  0.2847  1.9868
  150DOPC  H14S17940   7.295   3.302   5.540  1.3787 -2.0590 -2.2792
  150DOPC  C21517941   7.117   3.173   5.506  0.1859 -0.6903 -1.2192
  150DOPC  H15R17942   7.170   3.137   5.416 -0.0624  1.8345 -2.4852
  150DOPC  H15S17943   7.053   3.262   5.485  2.7310  1.4001 -0.6408
  150DOPC  C21617944   7.037   3.062   5.574  0.2579 -0.5108 -0.3302
  150DOPC  H16R17945   6.981   3.114   5.655 -1.2626 -0.9721 -1.0450
  150DOPC  H16S17946   7.101   2.983   5.619  0.4169 -1.5824 -2.2760
  150DOPC  C21717947   6.921   3.004   5.489  0.0539 -0.0101  0.0871
  150DOPC  H17R17948   6.830   3.068   5.477  0.8521  0.7151 -3.4146
  150DOPC  H17S17949   6.885   2.918   5.548  1.1030 -2.4633 -2.6204
  150DOPC  C21817950   6.948   2.960   5.340  0.2677  0.2390 -0.4640
  150DOPC  H18R17951   7.012   2.869   5.346 -2.5989 -1.8633  1.2974
  150DOPC  H18S17952   6.988   3.046   5.283 -1.4789  1.4780  0.0945
  150DOPC  H18T17953   6.857   2.920   5.290 -0.7664  1.7616  0.1182
  150DOPC   C3317954   7.149   4.034   6.854  0.0723 -0.2631  0.7106
  150DOPC   H3X17955   7.214   3.947   6.829  0.9379  0.9778 -1.5642
  150DOPC   H3Y17956   7.188   4.076   6.949  0.3862  0.3880  0.2923
  150DOPC   C3417957   7.165   4.137   6.737  0.5713  0.3480  0.5048
  150DOPC   H4X17958   7.261   4.193   6.749  0.5864  0.4522 -0.0917
  150DOPC   H4Y17959   7.083   4.209   6.756  0.8415  0.3476  1.7806
  150DOPC   C3517960   7.161   4.084   6.593  0.0502  0.3171  0.9503
  150DOPC   H5X17961   7.055   4.061   6.568  0.2576 -0.8158  1.0405
  150DOPC   H5Y17962   7.216   3.988   6.587 -3.2622 -1.6648 -2.7190
  150DOPC   C3617963   7.220   4.188   6.490  0.4007 -0.1693  0.3233
  150DOPC   H6X17964   7.325   4.207   6.523  0.9707 -0.1614 -1.4068
  150DOPC   H6Y17965   7.220   4.146   6.387  0.3843 -2.9690  1.3594
  150DOPC   C3717966   7.139   4.319   6.480 -0.4660 -0.4648 -0.5534
  150DOPC   H7X17967   7.034   4.301   6.447 -1.0882  0.1889  0.9460
  150DOPC   H7Y17968   7.132   4.356   6.585  0.8505 -0.5722 -0.4155
  150DOPC   C3817969   7.199   4.428   6.391 -0.1710 -0.3961  0.1396
  150DOPC   H8X17970   7.198   4.381   6.291  1.3914 -1.0543  0.4032
  150DOPC   H8Y17971   7.307   4.448   6.410  0.1556 -1.3800 -0.5806
  150DOPC   C3917972   7.121   4.560   6.395 -0.1922 -0.2329 -0.0209
  150DOPC   H9X17973   7.156   4.636   6.465  0.1450 -1.1440  0.8111
  150DOPC  C31017974   7.022   4.586   6.306 -1.0867  0.1291 -0.2763
  150DOPC  H10X17975   6.978   4.687   6.312 -2.4116 -0.4790  0.8056
  150DOPC  C31117976   6.958   4.493   6.204 -0.5699  0.2284 -0.0365
  150DOPC  H11X17977   6.927   4.400   6.256 -0.7691 -0.7351 -1.7808
  150DOPC  H11Y17978   7.032   4.470   6.124 -0.1853  1.7252 -0.1306
  150DOPC  C31217979   6.827   4.549   6.137 -0.4794  0.2757 -0.4131
  150DOPC  H12X17980   6.842   4.640   6.075 -1.6183  0.2792 -0.6925
  150DOPC  H12Y17981   6.742   4.576   6.203 -1.7467 -0.3352 -1.7528
  150DOPC  C31317982   6.769   4.437   6.046  0.5736  0.0200 -0.7529
  150DOPC  H13X17983   6.842   4.403   5.969  2.1592  1.2812  0.1299
  150DOPC  H13Y17984   6.735   4.356   6.114  1.1126  0.7104  0.3783
  150DOPC  C31417985   6.644   4.488   5.969 -0.4433 -0.2084 -0.4538
  150DOPC  H14X17986   6.573   4.556   6.021 -0.3652 -0.7772  0.4118
  150DOPC  H14Y17987   6.676   4.551   5.883  3.0695 -0.6200  0.4033
  150DOPC  C31517988   6.549   4.381   5.920  0.3715 -0.7605 -0.0821
  150DOPC  H15X17989   6.516   4.321   6.007  0.1171  0.2861  0.5673
  150DOPC  H15Y17990   6.605   4.313   5.853 -1.4949 -2.2633 -0.1839
  150DOPC  C31617991   6.429   4.446   5.855  0.0098  0.0025 -0.6063
  150DOPC  H16X17992   6.381   4.506   5.936 -0.0778 -2.7844  1.5798
  150DOPC  H16Y17993   6.452   4.517   5.773 -1.9496 -1.0585 -2.1628
  150DOPC  C31717994   6.336   4.335   5.795 -0.6227  0.7303  0.4588
  150DOPC  H17X17995   6.337   4.247   5.864  0.0543 -1.2631 -1.9634
  150DOPC  H17Y17996   6.233   4.375   5.780 -1.6540 -1.2618  1.7791
  150DOPC  C31817997   6.383   4.291   5.657  0.3269  0.3098 -0.2683
  150DOPC  H18X17998   6.482   4.241   5.671  0.5847  1.3470  2.0551
  150DOPC  H18Y17999   6.305   4.221   5.620 -0.2375  0.0313  1.3954
  150DOPC  H18Z18000   6.383   4.378   5.588  0.4518  0.1701 -0.4457
  151DOPC     N18001   2.683   1.931   7.024  0.7787 -0.2661  0.6094
  151DOPC   C1218002   2.828   1.962   6.982 -0.2334 -0.0871  0.2615
  151DOPC  H12A18003   2.867   1.861   6.979  0.0007 -0.0057  0.5574
  151DOPC  H12B18004   2.880   2.013   7.061  0.3848  0.7065 -0.6379
  151DOPC   C1318005   2.608   2.063   7.029  0.8135 -0.0584  0.4995
  151DOPC  H13A18006   2.509   2.038   7.063  0.1759  0.6678 -0.7753
  151DOPC  H13B18007   2.658   2.126   7.101  0.2047  0.7177  0.2481
  151DOPC  H13C18008   2.612   2.115   6.935  0.8301  1.3183  1.2450
  151DOPC   C1418009   2.682   1.860   7.157 -0.1319  0.1603 -0.3911
  151DOPC  H14A18010   2.585   1.823   7.184 -0.4308  1.2959  0.1587
  151DOPC  H14B18011   2.752   1.778   7.164 -1.3937 -0.9208 -0.0003
  151DOPC  H14C18012   2.724   1.934   7.225  0.9402  0.3739 -1.2491
  151DOPC   C1518013   2.626   1.839   6.920  0.2048 -0.3820  0.4415
  151DOPC  H15A18014   2.616   1.898   6.829 -1.0845 -0.1803  0.6914
  151DOPC  H15B18015   2.522   1.819   6.940 -0.3262  2.4603  0.9328
  151DOPC  H15C18016   2.690   1.756   6.897  1.1312  0.5249 -0.3518
  151DOPC   C1118017   2.849   2.037   6.850 -0.1210 -0.0284  0.6746
  151DOPC  H11A18018   2.777   1.996   6.777  0.4909  0.5937 -0.3019
  151DOPC  H11B18019   2.829   2.146   6.859 -1.7634 -0.3287  0.9966
  151DOPC     P18020   3.098   2.116   6.815  0.7348  0.4296  0.2877
  151DOPC   O1318021   3.216   2.044   6.765 -0.0624 -0.2794  0.0690
  151DOPC   O1418022   3.096   2.148   6.961  0.2047  0.2050 -0.0491
  151DOPC   O1218023   2.980   2.014   6.788  0.4049  0.0704  0.0084
  151DOPC   O1118024   3.049   2.237   6.730 -0.1561 -0.2457 -0.2561
  151DOPC    C118025   3.006   2.232   6.598  0.9088 -0.3850 -0.0410
  151DOPC    HA18026   2.896   2.220   6.583  1.2212  0.2737 -3.7654
  151DOPC    HB18027   3.048   2.147   6.541 -1.4938  0.8948 -4.1238
  151DOPC    C218028   3.044   2.359   6.523  0.3446 -0.9842 -0.6481
  151DOPC    HS18029   3.023   2.347   6.414 -1.4582  1.3799 -0.6230
  151DOPC   O2118030   3.176   2.412   6.551 -0.1540  0.2727 -0.2367
  151DOPC   C2118031   3.283   2.333   6.526  0.0727  0.3160 -0.3299
  151DOPC   O2218032   3.277   2.233   6.452 -0.3558  0.0338  0.0659
  151DOPC   C2218033   3.410   2.395   6.587  0.4308  0.0780  0.1444
  151DOPC   H2R18034   3.414   2.372   6.695  0.6202 -3.0044 -0.4436
  151DOPC   H2S18035   3.402   2.506   6.585  0.5585  0.1581  2.0636
  151DOPC    C318036   2.938   2.474   6.545  0.0841 -0.2247  0.1559
  151DOPC    HX18037   2.992   2.560   6.500  0.9541 -1.8520 -2.1342
  151DOPC    HY18038   2.917   2.492   6.652 -0.4723 -1.5840  0.2957
  151DOPC   O3118039   2.814   2.461   6.474  0.1524  0.7348 -0.0950
  151DOPC   C3118040   2.703   2.421   6.531 -0.3826  0.0058  0.3615
  151DOPC   O3218041   2.687   2.359   6.632  0.1575  0.5040  0.1148
  151DOPC   C3218042   2.587   2.467   6.440  0.8449 -0.1998 -0.1985
  151DOPC   H2X18043   2.518   2.523   6.507  1.2516  1.3359 -1.0102
  151DOPC   H2Y18044   2.619   2.539   6.361  1.3452 -1.6780 -1.3916
  151DOPC   C2318045   3.535   2.369   6.497  0.3898  0.2301  0.4718
  151DOPC   H3R18046   3.550   2.260   6.498 -3.1615 -0.4057  1.5376
  151DOPC   H3S18047   3.625   2.415   6.545  0.1314  1.8729 -0.5323
  151DOPC   C2418048   3.529   2.417   6.347 -0.5102 -0.5129  0.2719
  151DOPC   H4R18049   3.517   2.527   6.335  1.4586 -0.3377 -0.5082
  151DOPC   H4S18050   3.438   2.364   6.311  0.4363 -0.8249 -1.7905
  151DOPC   C2518051   3.660   2.385   6.266 -0.0186  0.1331 -0.1744
  151DOPC   H5R18052   3.665   2.274   6.261 -0.3902  0.1501 -4.1632
  151DOPC   H5S18053   3.754   2.420   6.313 -0.1159  0.1718 -0.0080
  151DOPC   C2618054   3.648   2.410   6.119 -0.7851 -0.2980  0.6841
  151DOPC   H6R18055   3.652   2.520   6.101 -1.1951 -0.1420  1.5081
  151DOPC   H6S18056   3.554   2.362   6.083  0.8194 -3.2770  0.1743
  151DOPC   C2718057   3.756   2.344   6.035  0.0990 -0.1852  0.4390
  151DOPC   H7R18058   3.736   2.237   6.017  1.9446 -0.5828  0.5443
  151DOPC   H7S18059   3.857   2.359   6.078 -0.3472  2.1330  0.8278
  151DOPC   C2818060   3.774   2.404   5.889  0.5237  0.5417 -0.5095
  151DOPC   H8R18061   3.813   2.507   5.907 -1.2916  0.9331  1.6832
  151DOPC   H8S18062   3.672   2.425   5.851 -0.2609 -0.2779  1.0378
  151DOPC   C2918063   3.872   2.320   5.810  0.3600 -0.2894  0.6346
  151DOPC   H9R18064   3.971   2.312   5.858  0.1403 -0.0028  1.1388
  151DOPC  C21018065   3.845   2.264   5.692 -0.4287  0.0460  0.5695
  151DOPC  H10R18066   3.913   2.196   5.639 -0.8890  0.1232 -0.1285
  151DOPC  C21118067   3.736   2.313   5.600  1.2000  0.3343  0.0066
  151DOPC  H11R18068   3.632   2.302   5.638  0.8512  2.8807 -0.0237
  151DOPC  H11S18069   3.723   2.246   5.512 -0.2749 -1.1092  1.2584
  151DOPC  C21218070   3.746   2.459   5.542  0.0193 -0.7989 -0.6834
  151DOPC  H12R18071   3.727   2.524   5.630  0.4908 -1.4147 -0.1098
  151DOPC  H12S18072   3.656   2.474   5.480  0.6128 -1.7025 -1.8071
  151DOPC  C21318073   3.878   2.484   5.463 -0.2830  0.4981 -0.3945
  151DOPC  H13R18074   3.913   2.392   5.411  0.8561 -1.5554  3.6194
  151DOPC  H13S18075   3.956   2.520   5.532 -2.6064 -0.8320  3.2507
  151DOPC  C21418076   3.859   2.575   5.344  0.1508  0.1798 -0.5500
  151DOPC  H14R18077   3.844   2.677   5.386 -0.6220  0.4827 -1.5190
  151DOPC  H14S18078   3.769   2.531   5.296  0.0811  0.5027 -0.7253
  151DOPC  C21518079   3.980   2.573   5.248  1.1190  0.2105 -0.2785
  151DOPC  H15R18080   4.021   2.471   5.232 -0.8347 -0.6268 -0.2668
  151DOPC  H15S18081   4.046   2.642   5.305 -1.2038  1.0138  1.6042
  151DOPC  C21618082   3.959   2.646   5.117  0.4336  0.4646  0.0466
  151DOPC  H16R18083   4.061   2.665   5.076  0.4107  0.4842 -0.0011
  151DOPC  H16S18084   3.907   2.744   5.129 -3.1610 -1.1673 -0.8081
  151DOPC  C21718085   3.880   2.559   5.015 -0.1623 -0.0699 -0.0912
  151DOPC  H17R18086   3.787   2.524   5.064 -0.1068 -0.9395 -0.5981
  151DOPC  H17S18087   3.946   2.473   4.991  0.3739  0.8317 -2.0843
  151DOPC  C21818088   3.843   2.629   4.889  0.5848  0.0121  0.0194
  151DOPC  H18R18089   3.769   2.564   4.837  0.7859 -0.5314  0.4110
  151DOPC  H18S18090   3.933   2.646   4.827  0.0992  1.7944 -0.2515
  151DOPC  H18T18091   3.783   2.723   4.898 -0.0548 -0.2412 -1.3211
  151DOPC   C3318092   2.513   2.342   6.392  0.0542  0.7576 -0.0346
  151DOPC   H3X18093   2.492   2.269   6.474 -0.8049  0.7106 -0.2867
  151DOPC   H3Y18094   2.580   2.293   6.318 -0.8175 -0.3618 -0.1030
  151DOPC   C3418095   2.378   2.388   6.314  0.1757  0.2888 -0.3549
  151DOPC   H4X18096   2.307   2.431   6.388 -1.3383 -1.6931 -0.5770
  151DOPC   H4Y18097   2.326   2.297   6.279 -1.8732  2.1439 -2.4769
  151DOPC   C3518098   2.402   2.484   6.207 -0.1040  0.3376  0.1782
  151DOPC   H5X18099   2.471   2.443   6.130 -1.0788 -0.4562 -0.3001
  151DOPC   H5Y18100   2.453   2.577   6.240  2.0412 -0.6886 -0.0800
  151DOPC   C3618101   2.270   2.530   6.139  0.7961 -0.4984  0.2300
  151DOPC   H6X18102   2.295   2.588   6.047 -0.2594 -1.7677 -0.9000
  151DOPC   H6Y18103   2.234   2.434   6.096 -1.4832 -0.1105  1.1302
  151DOPC   C3718104   2.174   2.596   6.221  0.6488 -0.3511  0.0703
  151DOPC   H7X18105   2.130   2.526   6.295 -0.1737  0.4194  0.3220
  151DOPC   H7Y18106   2.226   2.667   6.289  1.8497  0.1710 -1.3421
  151DOPC   C3818107   2.062   2.672   6.147 -0.1857  0.3794  0.3304
  151DOPC   H8X18108   2.101   2.751   6.079 -1.3445  1.0388  0.3883
  151DOPC   H8Y18109   1.987   2.710   6.220 -1.0555  3.9603 -2.1462
  151DOPC   C3918110   1.980   2.567   6.073  0.3390  0.1960  0.5483
  151DOPC   H9X18111   1.929   2.490   6.132 -0.5343 -0.4805 -1.0447
  151DOPC  C31018112   1.954   2.567   5.939  0.5625  0.2057  0.0167
  151DOPC  H10X18113   1.872   2.499   5.909 -1.8161  2.6746  0.5635
  151DOPC  C31118114   1.996   2.671   5.843 -0.7106  0.1809  0.6438
  151DOPC  H11X18115   1.998   2.773   5.889 -0.0190 -0.8765  3.1510
  151DOPC  H11Y18116   1.937   2.671   5.749  0.5103 -1.7172 -0.1755
  151DOPC  C31218117   2.139   2.624   5.794 -0.4559  0.2855  0.0922
  151DOPC  H12X18118   2.138   2.521   5.754  0.6895 -0.0588  0.8952
  151DOPC  H12Y18119   2.203   2.626   5.885 -0.2529  0.2168 -0.0490
  151DOPC  C31318120   2.196   2.713   5.680  0.2804 -0.2637 -0.1633
  151DOPC  H13X18121   2.282   2.651   5.646 -0.1420 -2.3320  2.2191
  151DOPC  H13Y18122   2.121   2.743   5.604 -2.6460  0.2690  2.6984
  151DOPC  C31418123   2.259   2.843   5.740  0.5163  0.5046  0.5950
  151DOPC  H14X18124   2.211   2.882   5.832  0.1730 -0.6206  0.8969
  151DOPC  H14Y18125   2.361   2.819   5.776 -1.2941 -4.4283  3.4390
  151DOPC  C31518126   2.247   2.952   5.631  0.0649  0.1291 -1.1071
  151DOPC  H15X18127   2.279   3.046   5.680 -0.4565  0.2236 -0.9418
  151DOPC  H15Y18128   2.137   2.962   5.612 -0.1767  0.2812  0.3040
  151DOPC  C31618129   2.317   2.926   5.504  0.6613  0.4612  0.1597
  151DOPC  H16X18130   2.271   2.838   5.454  0.2368  0.7559  0.0312
  151DOPC  H16Y18131   2.314   3.020   5.445  0.7298 -0.6488 -1.6837
  151DOPC  C31718132   2.463   2.879   5.507  0.6351 -0.1742 -0.4308
  151DOPC  H17X18133   2.471   2.788   5.571 -1.2196  0.8604  1.3874
  151DOPC  H17Y18134   2.496   2.859   5.403 -1.5384  2.1687 -1.6701
  151DOPC  C31818135   2.555   2.983   5.572 -0.7837 -0.3439  0.2389
  151DOPC  H18X18136   2.651   2.929   5.586  0.6184  1.9371 -0.0002
  151DOPC  H18Y18137   2.584   3.063   5.501 -0.9005  0.2729  0.8750
  151DOPC  H18Z18138   2.528   3.039   5.664 -1.0253  2.8501 -1.6090
  152DOPC     N18139   4.608   6.995   7.119 -0.6215  0.4018  0.1443
  152DOPC   C1218140   4.476   6.971   7.045 -0.3148  0.3610 -0.5835
  152DOPC  H12A18141   4.414   7.058   7.064  0.7465  1.1621 -0.7140
  152DOPC  H12B18142   4.429   6.889   7.098 -1.0918  0.8030 -0.5630
  152DOPC   C1318143   4.588   6.982   7.268  0.2494  0.0240 -0.7962
  152DOPC  H13A18144   4.677   7.002   7.326 -0.0378 -0.3211 -0.2408
  152DOPC  H13B18145   4.513   7.052   7.302  0.3651 -0.1534 -0.1662
  152DOPC  H13C18146   4.554   6.882   7.287  0.7343  0.3242  2.0926
  152DOPC   C1418147   4.655   7.133   7.096  0.5476 -0.0340 -0.3943
  152DOPC  H14A18148   4.746   7.132   7.155 -0.9186 -0.8666  2.0259
  152DOPC  H14B18149   4.672   7.168   6.996  0.4722 -0.7748 -0.6747
  152DOPC  H14C18150   4.592   7.204   7.146  2.7307 -0.1673  2.8632
  152DOPC   C1518151   4.713   6.899   7.074  0.9603 -0.8234 -0.0193
  152DOPC  H15A18152   4.698   6.799   7.112  1.9969 -1.6316 -1.5794
  152DOPC  H15B18153   4.814   6.927   7.100  1.1067 -0.9108 -0.4717
  152DOPC  H15C18154   4.706   6.901   6.966 -0.0096 -0.2938  0.0483
  152DOPC   C1118155   4.485   6.954   6.893  0.0481 -0.2249 -0.0010
  152DOPC  H11A18156   4.543   6.864   6.861  0.6814  0.2980 -0.3574
  152DOPC  H11B18157   4.378   6.927   6.880 -0.0182  0.0547 -0.0369
  152DOPC     P18158   4.436   7.205   6.817 -0.0011 -0.4361  0.2251
  152DOPC   O1318159   4.533   7.319   6.801 -0.4846 -0.3173  0.1571
  152DOPC   O1418160   4.350   7.213   6.937 -0.3296  0.2866  0.3305
  152DOPC   O1218161   4.528   7.076   6.831 -0.2635 -0.4465 -0.6998
  152DOPC   O1118162   4.347   7.182   6.686 -0.2558  0.3355  0.0858
  152DOPC    C118163   4.227   7.106   6.707 -0.4361 -0.4971  0.2676
  152DOPC    HA18164   4.155   7.154   6.776 -0.4795  0.8295 -0.6640
  152DOPC    HB18165   4.249   7.004   6.746  3.2119 -1.4472 -3.5149
  152DOPC    C218166   4.160   7.082   6.569 -0.7192  0.4332  0.3679
  152DOPC    HS18167   4.121   7.176   6.523  1.0041  0.2637 -1.5477
  152DOPC   O2118168   4.063   6.978   6.579  0.2785  0.2359  0.5884
  152DOPC   C2118169   3.941   7.016   6.613  0.4268  0.0253 -0.2831
  152DOPC   O2218170   3.905   7.133   6.628 -0.4537  0.0499  0.1042
  152DOPC   C2218171   3.848   6.894   6.641 -0.4872  0.2342 -0.6618
  152DOPC   H2R18172   3.829   6.903   6.750  2.2264  2.0766 -0.2568
  152DOPC   H2S18173   3.920   6.810   6.630  2.2725  2.4183 -0.4538
  152DOPC    C318174   4.270   7.030   6.477 -0.3792  0.0230  0.2859
  152DOPC    HX18175   4.317   6.945   6.531 -2.0787 -0.6761  0.7313
  152DOPC    HY18176   4.353   7.102   6.464  1.1830 -1.8259 -0.3267
  152DOPC   O3118177   4.220   6.985   6.352 -0.7982  0.0807  0.1279
  152DOPC   C3118178   4.205   7.076   6.258  0.2562 -0.3130  0.4387
  152DOPC   O3218179   4.236   7.192   6.270 -0.9142  0.2942  0.3783
  152DOPC   C3218180   4.139   7.014   6.130  0.2996 -0.3311  0.5188
  152DOPC   H2X18181   4.192   6.923   6.094 -3.2137 -2.0145 -0.8461
  152DOPC   H2Y18182   4.039   6.982   6.166 -0.6637  1.0039 -0.8337
  152DOPC   C2318183   3.722   6.888   6.551 -0.4861 -0.7667 -0.3196
  152DOPC   H3R18184   3.666   6.982   6.534  0.1818 -0.6189 -1.9158
  152DOPC   H3S18185   3.644   6.822   6.595  0.5861 -0.8558  1.5262
  152DOPC   C2418186   3.759   6.841   6.414  0.1945 -0.2578  1.2566
  152DOPC   H4R18187   3.812   6.743   6.417  0.6803 -0.0301  0.3880
  152DOPC   H4S18188   3.830   6.915   6.371 -0.7587  0.9206  1.6594
  152DOPC   C2518189   3.644   6.824   6.320  0.2254 -0.2118 -0.6956
  152DOPC   H5R18190   3.596   6.922   6.299 -0.3467 -0.0370  1.2301
  152DOPC   H5S18191   3.567   6.769   6.379 -0.3350  0.7164 -0.5495
  152DOPC   C2618192   3.687   6.752   6.193 -0.3879  0.7191  0.4139
  152DOPC   H6R18193   3.710   6.650   6.230 -0.0816  0.2421 -1.0265
  152DOPC   H6S18194   3.781   6.785   6.144  0.4640 -2.7918 -0.5444
  152DOPC   C2718195   3.574   6.742   6.083  0.9641 -0.0836 -0.3215
  152DOPC   H7R18196   3.479   6.718   6.135 -0.2729  2.2265 -1.3694
  152DOPC   H7S18197   3.604   6.656   6.018  1.9343 -0.6514  0.8389
  152DOPC   C2818198   3.561   6.865   6.000  0.5414 -0.5742  0.4757
  152DOPC   H8R18199   3.574   6.950   6.071  1.3767  1.4077 -1.9004
  152DOPC   H8S18200   3.464   6.891   5.952 -0.7061  0.2427  3.2283
  152DOPC   C2918201   3.671   6.878   5.900 -0.0573  0.3772  0.3602
  152DOPC   H9R18202   3.767   6.908   5.944 -1.7926  3.4885  2.4255
  152DOPC  C21018203   3.650   6.877   5.763  0.6283  0.2672 -0.0447
  152DOPC  H10R18204   3.731   6.860   5.690 -0.8405 -0.3585 -1.5755
  152DOPC  C21118205   3.512   6.865   5.710 -0.5595  0.2913  0.1314
  152DOPC  H11R18206   3.449   6.953   5.731 -2.2619 -1.1542  1.4019
  152DOPC  H11S18207   3.457   6.778   5.752  1.0996 -1.0476 -0.3543
  152DOPC  C21218208   3.502   6.851   5.555 -1.0703  0.8054 -0.1147
  152DOPC  H12R18209   3.577   6.775   5.521 -0.0179  0.8527  1.9240
  152DOPC  H12S18210   3.521   6.947   5.503  0.9772  1.4654  1.6594
  152DOPC  C21318211   3.368   6.803   5.492  1.1913 -0.2955 -0.3166
  152DOPC  H13R18212   3.298   6.885   5.519  2.0162  0.5291 -0.6104
  152DOPC  H13S18213   3.338   6.709   5.544  1.4652  0.2798  0.9016
  152DOPC  C21418214   3.379   6.767   5.346 -0.1931  0.0540 -0.0776
  152DOPC  H14R18215   3.427   6.667   5.346 -2.4592 -1.1143  1.1778
  152DOPC  H14S18216   3.444   6.838   5.291 -0.5620  1.2630  1.0002
  152DOPC  C21518217   3.240   6.757   5.273 -0.1668 -0.2510 -0.0302
  152DOPC  H15R18218   3.196   6.859   5.267 -0.0262 -0.2467 -1.1780
  152DOPC  H15S18219   3.172   6.685   5.323  0.0061 -2.4897 -2.7705
  152DOPC  C21618220   3.263   6.711   5.128 -1.2097  0.0043 -0.6436
  152DOPC  H16R18221   3.347   6.638   5.128  0.8570  2.1597 -2.7521
  152DOPC  H16S18222   3.310   6.782   5.056  1.5231 -1.2684 -0.2441
  152DOPC  C21718223   3.145   6.656   5.049 -0.4098 -0.4351  0.3897
  152DOPC  H17R18224   3.180   6.651   4.944 -2.6957 -0.5192 -0.4087
  152DOPC  H17S18225   3.058   6.723   5.063 -0.7033 -0.6824 -0.2387
  152DOPC  C21818226   3.106   6.524   5.115  0.0994  0.4252 -0.5693
  152DOPC  H18R18227   3.077   6.547   5.220  1.9785 -0.3867  0.1825
  152DOPC  H18S18228   3.190   6.451   5.114 -0.0263  0.2688 -2.7061
  152DOPC  H18T18229   3.022   6.474   5.062 -1.1618  3.0715 -1.1923
  152DOPC   C3318230   4.144   7.108   6.011 -0.8987 -0.1941  0.2677
  152DOPC   H3X18231   4.247   7.109   5.968 -1.8492  1.6669 -2.2049
  152DOPC   H3Y18232   4.116   7.213   6.031 -2.0434 -0.7266  1.6075
  152DOPC   C3418233   4.059   7.052   5.899 -0.2250 -0.3404 -0.4149
  152DOPC   H4X18234   3.951   7.044   5.925 -0.5243 -1.3976 -1.8549
  152DOPC   H4Y18235   4.098   6.952   5.870 -1.6716 -1.0001 -0.1542
  152DOPC   C3518236   4.076   7.135   5.770 -0.1416 -0.3483 -0.0261
  152DOPC   H5X18237   4.185   7.143   5.751 -0.3604  1.7276 -0.7341
  152DOPC   H5Y18238   4.030   7.236   5.780  0.8399  0.2382 -1.2145
  152DOPC   C3618239   3.990   7.074   5.656  0.6911  0.4541 -0.1417
  152DOPC   H6X18240   4.005   6.964   5.655 -1.9693  0.0088  0.9373
  152DOPC   H6Y18241   3.886   7.092   5.689  0.1677 -2.3954  0.0074
  152DOPC   C3718242   4.018   7.121   5.516  0.7161  0.2396 -0.6804
  152DOPC   H7X18243   3.938   7.072   5.456  0.5004  0.2310 -0.3860
  152DOPC   H7Y18244   4.008   7.232   5.512 -0.1529  0.3594  2.5300
  152DOPC   C3818245   4.162   7.086   5.466  0.3559 -0.1562  0.0711
  152DOPC   H8X18246   4.189   6.980   5.485 -1.3715 -0.2912  2.2412
  152DOPC   H8Y18247   4.227   7.143   5.535  0.4473  1.5562 -1.3705
  152DOPC   C3918248   4.190   7.133   5.322  0.3861  0.1789  0.2874
  152DOPC   H9X18249   4.145   7.233   5.307 -0.5939  0.0741  2.2315
  152DOPC  C31018250   4.248   7.065   5.221  0.1789 -0.0045  0.0972
  152DOPC  H10X18251   4.254   7.118   5.125  1.0279  0.4112  0.3717
  152DOPC  C31118252   4.297   6.920   5.220  0.5060  0.3232  0.0354
  152DOPC  H11X18253   4.265   6.863   5.310  1.6048 -0.8263 -0.2767
  152DOPC  H11Y18254   4.407   6.928   5.232  0.5128  0.4075 -0.0867
  152DOPC  C31218255   4.233   6.850   5.100 -0.5782 -1.3333 -1.3693
  152DOPC  H12X18256   4.132   6.889   5.077  0.1535 -0.0741 -2.6223
  152DOPC  H12Y18257   4.214   6.745   5.130 -1.0660 -0.7858  0.3172
  152DOPC  C31318258   4.314   6.874   4.976  0.0100  0.3142 -0.3689
  152DOPC  H13X18259   4.379   6.964   4.967 -0.1041  0.4440  0.1041
  152DOPC  H13Y18260   4.387   6.791   4.976 -0.1326  0.1099  2.2557
  152DOPC  C31418261   4.231   6.863   4.849  0.0834 -0.0466 -0.6165
  152DOPC  H14X18262   4.143   6.931   4.850 -2.2185 -2.8298 -1.6241
  152DOPC  H14Y18263   4.292   6.897   4.762 -3.6189  2.9020 -2.3558
  152DOPC  C31518264   4.160   6.730   4.828  0.1983  0.0326  0.0901
  152DOPC  H15X18265   4.082   6.720   4.906 -0.2732 -0.0225 -0.3761
  152DOPC  H15Y18266   4.228   6.642   4.832 -2.1071 -1.9340 -1.1552
  152DOPC  C31618267   4.089   6.715   4.697 -0.1454 -0.1244  0.7576
  152DOPC  H16X18268   4.013   6.796   4.683 -0.4495 -0.2654  1.5659
  152DOPC  H16Y18269   4.163   6.718   4.614 -0.7245 -3.0523  0.0172
  152DOPC  C31718270   4.011   6.588   4.688 -0.3150  0.6200  0.0476
  152DOPC  H17X18271   4.082   6.503   4.684 -2.7797 -1.7198 -5.5132
  152DOPC  H17Y18272   3.954   6.580   4.783  2.0697  0.9788  1.5810
  152DOPC  C31818273   3.914   6.580   4.569 -0.0420  0.2714 -0.9601
  152DOPC  H18X18274   3.971   6.628   4.487 -0.3388  1.8345 -0.2939
  152DOPC  H18Y18275   3.868   6.483   4.539  2.2822 -1.4970  0.8095
  152DOPC  H18Z18276   3.828   6.646   4.591 -0.3600 -0.7877  1.2649
  153DOPC     N18277   7.468   5.102   7.436 -0.3527  0.1859  0.4610
  153DOPC   C1218278   7.514   5.165   7.306  0.7521 -0.3258  0.2700
  153DOPC  H12A18279   7.613   5.128   7.285  0.4442  0.0684 -2.1765
  153DOPC  H12B18280   7.519   5.271   7.324 -2.5449 -0.5302  3.4309
  153DOPC   C1318281   7.575   5.117   7.539  1.0392 -0.1765 -0.4320
  153DOPC  H13A18282   7.571   5.211   7.591  2.5455 -0.1521 -0.3125
  153DOPC  H13B18283   7.557   5.048   7.620  0.0078 -3.0563 -2.8978
  153DOPC  H13C18284   7.670   5.081   7.501  1.0592 -0.3019 -0.2637
  153DOPC   C1418285   7.462   4.952   7.410 -0.0789  0.0621  0.1405
  153DOPC  H14A18286   7.558   4.904   7.396  0.2064  0.2739  1.2622
  153DOPC  H14B18287   7.415   4.899   7.492  1.8519 -1.9062  0.0721
  153DOPC  H14C18288   7.407   4.932   7.320  0.6491  1.7006 -0.7158
  153DOPC   C1518289   7.339   5.138   7.502  0.2499 -0.9782 -0.1094
  153DOPC  H15A18290   7.326   5.244   7.522 -0.0365 -1.2161  1.0238
  153DOPC  H15B18291   7.311   5.088   7.594 -1.3400 -2.1442 -1.1780
  153DOPC  H15C18292   7.253   5.108   7.443  1.0535 -1.9572 -0.8099
  153DOPC   C1118293   7.436   5.143   7.170 -0.1619  0.7414  0.6300
  153DOPC  H11A18294   7.486   5.213   7.099  0.6844 -0.4780 -0.0294
  153DOPC  H11B18295   7.457   5.041   7.131  0.1780  1.4860 -1.2482
  153DOPC     P18296   7.247   5.330   7.194  0.1665 -0.1528 -0.2911
  153DOPC   O1318297   7.356   5.423   7.219 -0.5323  0.1012  0.2060
  153DOPC   O1418298   7.138   5.331   7.288  0.8054 -0.0636 -0.1351
  153DOPC   O1218299   7.292   5.175   7.177 -0.3215 -0.2516 -0.4602
  153DOPC   O1118300   7.190   5.361   7.051  0.2557 -0.0879 -0.0161
  153DOPC    C118301   7.080   5.287   6.997 -0.2439 -0.2619 -0.3094
  153DOPC    HA18302   6.986   5.302   7.055 -0.1742  0.3331 -0.3415
  153DOPC    HB18303   7.090   5.177   6.984 -3.1744 -0.8553  1.4173
  153DOPC    C218304   7.040   5.343   6.857 -0.1207 -0.1001 -0.1466
  153DOPC    HS18305   6.958   5.278   6.819 -0.6560  0.1848  0.5168
  153DOPC   O2118306   7.151   5.353   6.768 -0.7375  0.2332  0.1182
  153DOPC   C2118307   7.200   5.242   6.735 -0.1435 -0.9095  0.3353
  153DOPC   O2218308   7.150   5.135   6.749 -0.3678  0.5921 -0.4289
  153DOPC   C2218309   7.327   5.268   6.650  0.2595  0.3335 -0.3267
  153DOPC   H2R18310   7.408   5.217   6.708  0.2059 -0.1829 -0.6969
  153DOPC   H2S18311   7.353   5.375   6.662  4.3946 -0.4448 -0.6623
  153DOPC    C318312   6.982   5.494   6.862  0.1782 -0.2394 -1.4584
  153DOPC    HX18313   7.068   5.556   6.896 -0.5835  1.2266 -2.1104
  153DOPC    HY18314   6.910   5.494   6.946  1.2105 -1.0068 -0.5450
  153DOPC   O3118315   6.930   5.537   6.736 -0.5378  0.0410 -0.4535
  153DOPC   C3118316   7.024   5.593   6.657  0.6539  0.5210 -0.0748
  153DOPC   O3218317   7.135   5.629   6.687 -0.6898  0.2051  0.3345
  153DOPC   C3218318   6.967   5.600   6.516 -0.2281 -0.1582  0.5201
  153DOPC   H2X18319   7.055   5.620   6.452 -1.6612  0.9774 -1.1834
  153DOPC   H2Y18320   6.931   5.498   6.492  3.6338 -1.2348 -1.5552
  153DOPC   C2318321   7.320   5.228   6.502 -0.7976  0.0909  0.2182
  153DOPC   H3R18322   7.280   5.124   6.498 -2.2253  0.5877  0.8753
  153DOPC   H3S18323   7.420   5.218   6.456 -0.2336  0.2749  1.3818
  153DOPC   C2418324   7.223   5.324   6.434  0.0077  0.0104 -0.3354
  153DOPC   H4R18325   7.257   5.430   6.442  0.6026 -0.2889  1.5761
  153DOPC   H4S18326   7.124   5.313   6.483 -0.5764  2.2244 -0.8853
  153DOPC   C2518327   7.192   5.280   6.290  0.5316 -0.1356 -0.0784
  153DOPC   H5R18328   7.182   5.170   6.301  1.0495 -0.1191  0.6468
  153DOPC   H5S18329   7.282   5.298   6.229  2.1406 -0.8278  1.9701
  153DOPC   C2618330   7.063   5.338   6.236 -1.1185 -0.7319 -0.4207
  153DOPC   H6R18331   7.078   5.444   6.207 -1.7343 -0.3471  0.6132
  153DOPC   H6S18332   6.990   5.341   6.320 -0.3183  1.1622  0.2499
  153DOPC   C2718333   7.013   5.253   6.122 -0.3036 -0.1098  0.1874
  153DOPC   H7R18334   6.999   5.149   6.158 -2.5236  0.1022  0.0636
  153DOPC   H7S18335   7.080   5.251   6.034 -0.4466  0.4551  0.0602
  153DOPC   C2818336   6.881   5.291   6.040 -0.5263 -0.0171  0.3932
  153DOPC   H8R18337   6.797   5.266   6.108  0.3578 -1.7019  0.9139
  153DOPC   H8S18338   6.866   5.228   5.950 -2.4038  2.6551 -1.3287
  153DOPC   C2918339   6.887   5.435   6.009  0.1740  0.4799  0.5492
  153DOPC   H9R18340   6.888   5.506   6.093 -0.0998  2.3391 -0.9531
  153DOPC  C21018341   6.894   5.495   5.883  0.5023 -0.9424 -0.6416
  153DOPC  H10R18342   6.911   5.604   5.885 -3.9492 -0.0837  0.4174
  153DOPC  C21118343   6.896   5.422   5.755  0.3532  0.3298 -0.7777
  153DOPC  H11R18344   6.829   5.333   5.754  1.7032 -0.7259 -0.3226
  153DOPC  H11S18345   6.991   5.381   5.717 -1.0017 -1.1079 -2.8522
  153DOPC  C21218346   6.838   5.521   5.654  0.1330 -0.1599 -0.1827
  153DOPC  H12R18347   6.913   5.598   5.625  1.4235 -0.8607  1.1466
  153DOPC  H12S18348   6.747   5.574   5.689 -0.6417 -0.2597 -1.9666
  153DOPC  C21318349   6.794   5.444   5.528 -0.1804 -0.0288 -0.3762
  153DOPC  H13R18350   6.728   5.502   5.460 -2.6409 -2.4507 -0.2307
  153DOPC  H13S18351   6.739   5.356   5.569 -0.3691  0.5842  0.7246
  153DOPC  C21418352   6.914   5.378   5.457  0.6037 -0.0139  0.1233
  153DOPC  H14R18353   6.955   5.296   5.520  1.0697  1.6525  2.0773
  153DOPC  H14S18354   6.997   5.451   5.447  2.4197 -2.2057 -2.0242
  153DOPC  C21518355   6.874   5.329   5.319  0.0658  0.4351  0.2442
  153DOPC  H15R18356   6.806   5.407   5.279  0.3417  0.8725  0.6092
  153DOPC  H15S18357   6.813   5.237   5.334  2.9263 -1.3994  1.3776
  153DOPC  C21618358   6.988   5.297   5.221  0.3306  0.1109  0.3910
  153DOPC  H16R18359   7.066   5.372   5.247 -0.1817  0.7670  0.0858
  153DOPC  H16S18360   6.950   5.324   5.120 -2.0311 -0.4357  1.0703
  153DOPC  C21718361   7.052   5.161   5.221  0.8551 -0.4234  0.3819
  153DOPC  H17R18362   6.968   5.095   5.191  0.7206  0.2991 -0.9221
  153DOPC  H17S18363   7.085   5.125   5.320  0.0115 -1.0631  0.4388
  153DOPC  C21818364   7.159   5.142   5.114  0.4184 -0.9398 -0.1133
  153DOPC  H18R18365   7.237   5.222   5.119 -0.2384 -0.1349 -1.7491
  153DOPC  H18S18366   7.110   5.137   5.015 -1.1572 -0.5374  0.6106
  153DOPC  H18T18367   7.210   5.045   5.130  1.4958 -0.5586 -1.0812
  153DOPC   C3318368   6.844   5.690   6.495 -0.0373  0.5604 -0.5901
  153DOPC   H3X18369   6.833   5.756   6.584 -1.5282  0.4531 -0.6677
  153DOPC   H3Y18370   6.758   5.622   6.481  1.2275 -1.0871 -0.6054
  153DOPC   C3418371   6.871   5.789   6.378  0.4458  0.0520 -0.6116
  153DOPC   H4X18372   6.892   5.736   6.282 -0.4484 -0.1569 -0.6941
  153DOPC   H4Y18373   6.962   5.850   6.398 -1.2199  2.2321  0.7261
  153DOPC   C3518374   6.759   5.891   6.352 -0.1521  0.1450  1.1145
  153DOPC   H5X18375   6.740   5.949   6.445 -0.0444 -0.0636  1.2649
  153DOPC   H5Y18376   6.675   5.824   6.325  1.9083 -2.0296 -0.2782
  153DOPC   C3618377   6.784   5.993   6.237 -0.2360  0.4931 -0.8565
  153DOPC   H6X18378   6.715   6.079   6.252  0.9204  1.1755  0.9599
  153DOPC   H6Y18379   6.884   6.040   6.257  0.3437 -2.1169  4.2132
  153DOPC   C3718380   6.781   5.928   6.098  0.5432  0.1452 -0.7465
  153DOPC   H7X18381   6.867   5.860   6.084  1.4306  0.3892  2.6413
  153DOPC   H7Y18382   6.686   5.871   6.094  0.3201  0.3196  1.0796
  153DOPC   C3818383   6.781   6.033   5.984  0.2151  1.3538 -0.3018
  153DOPC   H8X18384   6.881   6.080   5.991  1.0485 -0.3543 -0.2308
  153DOPC   H8Y18385   6.693   6.099   6.003  0.0001  0.6159  1.4679
  153DOPC   C3918386   6.781   5.964   5.849  0.2919 -0.3637 -0.8597
  153DOPC   H9X18387   6.881   5.932   5.816 -0.0136 -2.4041  0.0589
  153DOPC  C31018388   6.675   5.953   5.770  1.0914  0.6657  0.1840
  153DOPC  H10X18389   6.692   5.894   5.679 -1.3527  1.2010 -0.6772
  153DOPC  C31118390   6.529   5.987   5.809 -0.2892 -0.1935 -0.5895
  153DOPC  H11X18391   6.522   6.097   5.798  0.5643  0.0582  1.1086
  153DOPC  H11Y18392   6.508   5.954   5.913  2.2693 -1.4856 -0.4008
  153DOPC  C31218393   6.415   5.920   5.716 -0.1984 -0.1042 -0.6384
  153DOPC  H12X18394   6.314   5.950   5.751  0.3928  0.4355  0.6878
  153DOPC  H12Y18395   6.423   5.810   5.729  2.2745  0.1836  1.1488
  153DOPC  C31318396   6.427   5.962   5.567  0.0007  0.0549  0.0377
  153DOPC  H13X18397   6.437   6.073   5.557 -0.1397 -0.1008 -2.5537
  153DOPC  H13Y18398   6.516   5.908   5.528 -0.3420 -0.6495  0.2258
  153DOPC  C31418399   6.304   5.919   5.483 -0.0889 -0.2113 -0.0335
  153DOPC  H14X18400   6.216   5.957   5.540 -1.2860 -3.4354  0.5063
  153DOPC  H14Y18401   6.313   5.972   5.386  1.9224 -1.6756 -0.7037
  153DOPC  C31518402   6.296   5.771   5.468 -1.0054  0.4294 -0.0055
  153DOPC  H15X18403   6.274   5.716   5.562  0.6502  1.0860  0.8164
  153DOPC  H15Y18404   6.397   5.744   5.430 -0.8566  1.2902 -0.2517
  153DOPC  C31618405   6.193   5.716   5.369  0.2806  0.6456  1.3381
  153DOPC  H16X18406   6.221   5.614   5.335 -1.7311 -0.0845  1.7336
  153DOPC  H16Y18407   6.095   5.718   5.422 -0.3582  1.1707  0.1731
  153DOPC  C31718408   6.162   5.781   5.234 -0.3632  0.3826  0.2514
  153DOPC  H17X18409   6.147   5.885   5.269 -2.0351 -0.0607  0.9717
  153DOPC  H17Y18410   6.260   5.767   5.186  0.7540  0.1873  2.4553
  153DOPC  C31818411   6.059   5.719   5.137  0.3027  0.2714  0.0754
  153DOPC  H18X18412   6.074   5.609   5.131  1.0733  0.3255  0.7033
  153DOPC  H18Y18413   5.957   5.733   5.179 -0.2620 -0.4601 -0.9959
  153DOPC  H18Z18414   6.060   5.749   5.030  1.1100 -0.9572 -0.2854
  154DOPC     N18415   0.780   3.197   7.420  0.5199  0.0893  0.0935
  154DOPC   C1218416   0.735   3.239   7.283 -0.3578  0.7863 -0.1562
  154DOPC  H12A18417   0.812   3.296   7.233  1.2105  0.4974  1.7847
  154DOPC  H12B18418   0.654   3.308   7.300 -2.6457 -1.4775 -1.2801
  154DOPC   C1318419   0.654   3.141   7.483 -0.5111  0.0371 -0.4097
  154DOPC  H13A18420   0.626   3.055   7.425  2.3157  0.1034 -2.0731
  154DOPC  H13B18421   0.672   3.105   7.584  0.3358 -1.6743 -1.1256
  154DOPC  H13C18422   0.565   3.200   7.471 -0.5513 -0.3923 -2.6389
  154DOPC   C1418423   0.823   3.318   7.488  0.5623  0.6653 -0.4839
  154DOPC  H14A18424   0.904   3.366   7.436  2.1314 -2.3582 -1.1113
  154DOPC  H14B18425   0.750   3.393   7.512 -1.7432 -1.4963 -0.3020
  154DOPC  H14C18426   0.860   3.301   7.588 -1.7590  1.2496  0.5374
  154DOPC   C1518427   0.898   3.102   7.421  1.0646  0.2519  0.0321
  154DOPC  H15A18428   0.990   3.146   7.388  1.1057  0.6303  0.6426
  154DOPC  H15B18429   0.879   3.007   7.374  2.2266 -1.8710  3.4522
  154DOPC  H15C18430   0.914   3.076   7.525  0.1283  1.3543  0.4727
  154DOPC   C1118431   0.676   3.132   7.186 -0.3570 -0.3300 -0.3180
  154DOPC  H11A18432   0.583   3.084   7.224 -0.6028 -0.7792 -1.4486
  154DOPC  H11B18433   0.639   3.179   7.092  1.6984  0.9211 -0.5525
  154DOPC     P18434   0.723   2.898   7.079  0.4857 -0.1873  0.3434
  154DOPC   O1318435   0.623   2.834   7.162  0.2737  0.0061 -0.1428
  154DOPC   O1418436   0.835   2.812   7.039 -0.0630 -0.5182 -0.0945
  154DOPC   O1218437   0.778   3.033   7.144  0.1303  0.1749  0.1780
  154DOPC   O1118438   0.654   2.943   6.947  0.3095  0.2553  0.0184
  154DOPC    C118439   0.562   2.881   6.860  0.9838 -0.0960  0.3399
  154DOPC    HA18440   0.515   2.955   6.792  0.8737  0.4284  0.9795
  154DOPC    HB18441   0.483   2.826   6.915  3.0376 -2.1874  1.4059
  154DOPC    C218442   0.639   2.778   6.778 -0.2144  0.2340  0.1113
  154DOPC    HS18443   0.673   2.692   6.839  0.8500  0.2431 -0.4432
  154DOPC   O2118444   0.742   2.851   6.716 -0.1784 -0.1250  0.2494
  154DOPC   C2118445   0.846   2.781   6.680  0.4227 -0.2048 -0.1764
  154DOPC   O2218446   0.871   2.667   6.713 -0.1739  0.6660 -0.0605
  154DOPC   C2218447   0.947   2.880   6.619 -0.4009 -0.0408  1.3835
  154DOPC   H2R18448   1.005   2.928   6.700  0.6784  0.6012  0.2751
  154DOPC   H2S18449   0.898   2.959   6.558 -0.5934  0.2654  1.9345
  154DOPC    C318450   0.550   2.716   6.661 -0.0935 -0.2152  0.1767
  154DOPC    HX18451   0.477   2.640   6.695 -2.7623  3.4805  3.7731
  154DOPC    HY18452   0.616   2.675   6.581 -2.5833 -2.5770 -0.8358
  154DOPC   O3118453   0.485   2.821   6.580 -0.6012 -0.3818 -0.4055
  154DOPC   C3118454   0.358   2.799   6.568  0.6898  0.2568 -0.1775
  154DOPC   O3218455   0.296   2.704   6.608  0.7775 -0.3350  0.3509
  154DOPC   C3218456   0.296   2.934   6.524 -0.0230  0.1377  0.7706
  154DOPC   H2X18457   0.359   3.009   6.577  1.7082 -2.7717  3.1574
  154DOPC   H2Y18458   0.304   2.946   6.414 -3.2338  1.6278  0.5892
  154DOPC   C2318459   1.044   2.795   6.527  0.4267  0.6794 -0.2261
  154DOPC   H3R18460   0.978   2.741   6.457  1.4029  0.0981 -0.7307
  154DOPC   H3S18461   1.080   2.706   6.584 -0.1089  0.9839  0.6125
  154DOPC   C2418462   1.160   2.870   6.466 -0.4782 -0.3593 -0.7955
  154DOPC   H4R18463   1.210   2.931   6.544 -3.0560 -1.4173  1.8523
  154DOPC   H4S18464   1.115   2.932   6.386  0.8343  0.2160 -1.1208
  154DOPC   C2518465   1.262   2.775   6.412  0.2750 -0.3851 -0.6711
  154DOPC   H5R18466   1.211   2.714   6.334 -1.4709 -1.2551  1.0561
  154DOPC   H5S18467   1.282   2.695   6.486 -0.2070  1.4975  1.6113
  154DOPC   C2618468   1.382   2.850   6.359 -0.8721 -0.1880 -0.7736
  154DOPC   H6R18469   1.347   2.929   6.291  0.8967  0.5015 -0.9444
  154DOPC   H6S18470   1.447   2.782   6.299 -3.0298 -1.4027 -1.8292
  154DOPC   C2718471   1.481   2.917   6.460  0.1609  0.2293 -0.7884
  154DOPC   H7R18472   1.505   2.868   6.557  2.0186 -0.2950 -1.4698
  154DOPC   H7S18473   1.436   3.016   6.481  3.0365  1.5116 -0.2193
  154DOPC   C2818474   1.616   2.954   6.394 -0.2744  0.7141  0.3392
  154DOPC   H8R18475   1.686   3.015   6.456 -0.2565 -0.7590  1.8117
  154DOPC   H8S18476   1.600   3.022   6.307 -1.3337  0.2387  0.1564
  154DOPC   C2918477   1.687   2.828   6.353  0.0816  0.4813 -0.1456
  154DOPC   H9R18478   1.680   2.745   6.425 -0.0757  0.4131 -0.2378
  154DOPC  C21018479   1.749   2.805   6.237  0.5467  0.7446 -0.2373
  154DOPC  H10R18480   1.778   2.700   6.221 -0.7161  0.1301  1.1694
  154DOPC  C21118481   1.773   2.896   6.122  0.0184  0.8009 -0.4631
  154DOPC  H11R18482   1.881   2.898   6.094  0.5966 -0.0416  1.5145
  154DOPC  H11S18483   1.741   3.001   6.141  0.7143  1.3198 -2.0324
  154DOPC  C21218484   1.697   2.851   6.002 -0.2208 -0.4197  0.4379
  154DOPC  H12R18485   1.587   2.858   6.015 -0.0696  0.1355  1.5052
  154DOPC  H12S18486   1.728   2.749   5.970  1.7759  0.6498 -1.2814
  154DOPC  C21318487   1.723   2.937   5.877 -0.9466  0.6013  0.1064
  154DOPC  H13R18488   1.829   2.922   5.848 -0.8889  2.9163 -1.0805
  154DOPC  H13S18489   1.718   3.044   5.908  2.3547  1.0140 -0.4424
  154DOPC  C21418490   1.631   2.900   5.760  0.0774 -0.6077  0.5682
  154DOPC  H14R18491   1.528   2.934   5.780 -0.3335 -0.9031 -0.9384
  154DOPC  H14S18492   1.616   2.790   5.746 -2.3946 -0.4020  1.1520
  154DOPC  C21518493   1.677   2.972   5.628 -0.4273  0.3850 -0.7761
  154DOPC  H15R18494   1.677   3.081   5.647  2.9028  0.3253  0.0524
  154DOPC  H15S18495   1.616   2.949   5.537  2.7397 -0.4951 -2.8472
  154DOPC  C21618496   1.821   2.933   5.588  0.0878  0.1574  0.4121
  154DOPC  H16R18497   1.840   2.831   5.628 -1.7626 -0.1513  0.6139
  154DOPC  H16S18498   1.898   3.001   5.630  0.6072  0.7099 -1.3552
  154DOPC  C21718499   1.832   2.917   5.431  0.1144 -0.5312 -0.8261
  154DOPC  H17R18500   1.785   3.007   5.385 -2.4095 -1.7043 -0.7309
  154DOPC  H17S18501   1.782   2.821   5.405 -1.8882  0.0596  0.5845
  154DOPC  C21818502   1.970   2.893   5.372  0.0530 -0.2417  0.1653
  154DOPC  H18R18503   2.000   2.795   5.415  0.5042  0.1191  0.6875
  154DOPC  H18S18504   2.044   2.973   5.394 -1.4659  1.1361  0.4529
  154DOPC  H18T18505   1.969   2.888   5.261  0.9832 -2.2205  0.1975
  154DOPC   C3318506   0.152   2.936   6.580  0.0159 -0.2704  0.2058
  154DOPC   H3X18507   0.146   2.927   6.691  1.8906  1.1922  0.4832
  154DOPC   H3Y18508   0.099   2.849   6.538  2.6507 -2.1422  0.4939
  154DOPC   C3418509   0.081   3.070   6.542 -0.3032  0.1585 -0.0700
  154DOPC   H4X18510   0.152   3.154   6.552  1.1837 -1.1333  0.5720
  154DOPC   H4Y18511  -0.003   3.100   6.609  0.6945  2.4036  0.2670
  154DOPC   C3518512   0.050   3.075   6.389 -0.9702  0.5406 -0.1443
  154DOPC   H5X18513  -0.039   3.012   6.368 -0.3684 -0.4852  0.2458
  154DOPC   H5Y18514   0.126   3.026   6.324 -1.4157 -0.2151 -0.1129
  154DOPC   C3618515   0.043   3.226   6.346 -0.7362 -0.3854  1.0273
  154DOPC   H6X18516  -0.048   3.275   6.385 -0.0125  1.3424  0.6365
  154DOPC   H6Y18517   0.126   3.282   6.394 -0.1289 -0.0127 -0.4027
  154DOPC   C3718518   0.067   3.262   6.196  0.4013 -0.2574 -0.0084
  154DOPC   H7X18519   0.041   3.370   6.190 -0.2075 -0.3160  1.2800
  154DOPC   H7Y18520   0.173   3.251   6.163  0.9702  0.0022  1.6588
  154DOPC   C3818521  -0.038   3.186   6.105 -1.1736 -0.6012  0.0245
  154DOPC   H8X18522  -0.140   3.214   6.140 -0.8630  1.2197 -0.4029
  154DOPC   H8Y18523  -0.021   3.077   6.118  1.5933 -0.4103 -1.1900
  154DOPC   C3918524  -0.020   3.221   5.958 -0.5245  0.1850 -0.0995
  154DOPC   H9X18525  -0.034   3.328   5.937  1.5672  0.1288 -2.2435
  154DOPC  C31018526   0.015   3.142   5.858  0.3272  0.3353 -0.4143
  154DOPC  H10X18527   0.020   3.187   5.757  1.3533  0.3294 -0.3760
  154DOPC  C31118528   0.031   2.991   5.854  0.3191 -0.4849 -0.2025
  154DOPC  H11X18529  -0.020   2.945   5.767  0.2890 -3.7919  1.4002
  154DOPC  H11Y18530  -0.031   2.954   5.939 -0.4317  2.0856  0.4620
  154DOPC  C31218531   0.172   2.933   5.864 -0.2062 -0.5107 -1.1608
  154DOPC  H12X18532   0.247   2.986   5.801  1.0268 -1.8689 -0.8878
  154DOPC  H12Y18533   0.165   2.831   5.820  0.3547 -0.4702 -1.3444
  154DOPC  C31318534   0.218   2.908   6.007  0.1484 -0.7309 -0.3646
  154DOPC  H13X18535   0.221   3.005   6.061 -1.3142 -1.1660  0.5500
  154DOPC  H13Y18536   0.142   2.847   6.060  0.6454 -0.7800  0.3027
  154DOPC  C31418537   0.363   2.842   6.028  0.2645 -0.4428  0.4624
  154DOPC  H14X18538   0.363   2.810   6.134  0.5829 -0.1528  0.5530
  154DOPC  H14Y18539   0.365   2.752   5.963  0.3493 -1.7779  2.2210
  154DOPC  C31518540   0.485   2.940   6.010  0.0459 -0.0401 -0.6654
  154DOPC  H15X18541   0.467   3.034   6.066  0.1814 -0.9791  1.0182
  154DOPC  H15Y18542   0.502   2.974   5.906 -1.8793 -0.2465 -1.0842
  154DOPC  C31618543   0.610   2.879   6.067  0.0429 -0.0168 -0.0753
  154DOPC  H16X18544   0.573   2.840   6.164 -0.9969 -0.2212 -0.5423
  154DOPC  H16Y18545   0.653   2.797   6.005  1.5810  2.2194 -2.1829
  154DOPC  C31718546   0.717   2.973   6.090 -0.0229 -0.2081 -0.1697
  154DOPC  H17X18547   0.764   3.011   5.997 -0.0183 -1.8844 -0.8787
  154DOPC  H17Y18548   0.670   3.057   6.145 -2.0570 -1.6801  0.4303
  154DOPC  C31818549   0.838   2.918   6.176  0.3190  0.0267  0.2240
  154DOPC  H18X18550   0.901   2.996   6.224  1.5085 -0.0998 -1.0699
  154DOPC  H18Y18551   0.807   2.866   6.270 -0.1380 -2.5295 -1.2523
  154DOPC  H18Z18552   0.899   2.850   6.113 -1.2511 -1.6111  0.3917
  155DOPC     N18553   3.113   7.453   7.289  0.5211  0.3701  0.2456
  155DOPC   C1218554   3.003   7.423   7.393  0.2495  0.6447 -0.2075
  155DOPC  H12A18555   2.973   7.508   7.452 -0.2149  0.3826 -0.0626
  155DOPC  H12B18556   3.032   7.355   7.472 -1.6091 -0.2879 -0.2853
  155DOPC   C1318557   3.151   7.332   7.215  0.1713 -0.2777  0.1226
  155DOPC  H13A18558   3.187   7.262   7.289  0.8374 -0.6306 -0.5185
  155DOPC  H13B18559   3.071   7.296   7.151  1.5983 -0.6921 -1.5323
  155DOPC  H13C18560   3.237   7.352   7.152 -0.9977  1.7188 -0.9472
  155DOPC   C1418561   3.232   7.505   7.356 -0.5376 -0.3754  0.3076
  155DOPC  H14A18562   3.252   7.445   7.444 -1.5644 -1.8053 -0.3970
  155DOPC  H14B18563   3.320   7.496   7.294 -1.7012  0.4100 -1.5327
  155DOPC  H14C18564   3.211   7.603   7.394 -0.0526 -0.0264 -0.3062
  155DOPC   C1518565   3.065   7.556   7.192 -1.4646  0.1731  0.1187
  155DOPC  H15A18566   3.140   7.560   7.114 -0.0913  0.6688  1.4290
  155DOPC  H15B18567   3.062   7.654   7.237  1.9869 -0.2102  1.4585
  155DOPC  H15C18568   2.970   7.523   7.152 -1.1414 -0.9753  0.2819
  155DOPC   C1118569   2.866   7.360   7.343  0.5470 -0.6032  0.3194
  155DOPC  H11A18570   2.810   7.354   7.439  1.0741  0.9900  0.7551
  155DOPC  H11B18571   2.817   7.440   7.284 -0.1557  0.3789  2.1510
  155DOPC     P18572   2.817   7.230   7.125  0.1701  0.4777  0.4489
  155DOPC   O1318573   2.672   7.260   7.125 -0.3343 -0.3152 -0.3788
  155DOPC   O1418574   2.864   7.098   7.076 -0.3528  0.1649  0.0821
  155DOPC   O1218575   2.874   7.238   7.276  0.7144 -0.5683 -0.1950
  155DOPC   O1118576   2.892   7.343   7.050  0.0399  1.0723  0.1337
  155DOPC    C118577   2.832   7.447   6.975  0.4571  0.3039 -0.3084
  155DOPC    HA18578   2.853   7.548   7.017 -1.8928  0.1621  1.4322
  155DOPC    HB18579   2.721   7.439   6.971  0.5033 -0.1882 -0.6978
  155DOPC    C218580   2.882   7.442   6.827 -0.8785  0.1139 -0.5213
  155DOPC    HS18581   2.896   7.334   6.804  0.3634  0.3065 -0.7250
  155DOPC   O2118582   3.004   7.517   6.816 -0.3277  0.3030 -0.5778
  155DOPC   C2118583   3.121   7.445   6.825  0.3934  0.1595 -0.4146
  155DOPC   O2218584   3.138   7.333   6.860 -0.0139  0.2774 -0.5992
  155DOPC   C2218585   3.239   7.530   6.771  0.3493  0.2065  0.0550
  155DOPC   H2R18586   3.324   7.519   6.842 -0.2861 -2.1859  0.5241
  155DOPC   H2S18587   3.206   7.635   6.754  1.7670  0.7671  0.5865
  155DOPC    C318588   2.772   7.484   6.723 -0.1733 -0.3061  1.4963
  155DOPC    HX18589   2.729   7.581   6.755 -0.3916  0.0643  0.1374
  155DOPC    HY18590   2.689   7.411   6.729 -1.8898  1.5955  2.0550
  155DOPC   O3118591   2.815   7.481   6.583  0.0723 -0.1535 -0.4155
  155DOPC   C3118592   2.875   7.593   6.545  0.3181  0.2151 -0.2213
  155DOPC   O3218593   2.881   7.698   6.605  0.1443  0.9744 -0.4903
  155DOPC   C3218594   2.934   7.562   6.408 -0.0914 -0.0732  0.1945
  155DOPC   H2X18595   3.002   7.474   6.410 -0.9081 -0.7087  0.8373
  155DOPC   H2Y18596   2.840   7.536   6.356 -0.4756 -0.2357  0.9485
  155DOPC   C2318597   3.304   7.489   6.641  0.5066 -0.1269  0.6325
  155DOPC   H3R18598   3.230   7.494   6.559  2.4745  0.7137 -1.2007
  155DOPC   H3S18599   3.350   7.388   6.639  1.7210  0.3773  1.3954
  155DOPC   C2418600   3.406   7.595   6.590  0.0842  0.9209  0.0132
  155DOPC   H4R18601   3.495   7.606   6.655  0.9504 -0.4654 -0.9042
  155DOPC   H4S18602   3.362   7.697   6.599  0.3562  0.8331  3.4630
  155DOPC   C2518603   3.460   7.568   6.450 -0.0209  1.2628  0.1376
  155DOPC   H5R18604   3.377   7.540   6.383 -0.2563  2.7449 -0.2312
  155DOPC   H5S18605   3.531   7.485   6.469  0.6956  1.8172 -0.0577
  155DOPC   C2618606   3.540   7.682   6.384  0.4721  0.1785  0.4852
  155DOPC   H6R18607   3.639   7.696   6.433  0.6621  4.6810 -0.7088
  155DOPC   H6S18608   3.482   7.774   6.409  0.4080  0.1039  0.6117
  155DOPC   C2718609   3.550   7.671   6.239 -0.0646  0.2396  0.9531
  155DOPC   H7R18610   3.451   7.634   6.205 -0.0920  1.8148 -0.8355
  155DOPC   H7S18611   3.625   7.591   6.220 -0.2037  0.4540 -0.5604
  155DOPC   C2818612   3.578   7.805   6.160 -0.0648 -0.2716 -0.0706
  155DOPC   H8R18613   3.681   7.839   6.185 -0.8436  1.8327  0.5396
  155DOPC   H8S18614   3.510   7.880   6.206 -1.2458  0.3917 -2.7137
  155DOPC   C2918615   3.558   7.778   6.013 -0.7435 -0.0538  0.0948
  155DOPC   H9R18616   3.455   7.777   5.975 -0.3082 -1.8758 -1.1289
  155DOPC  C21018617   3.662   7.755   5.931 -0.1989 -0.6204 -0.0594
  155DOPC  H10R18618   3.660   7.739   5.822  0.2550 -1.9524  0.1075
  155DOPC  C21118619   3.807   7.758   5.976  0.2720  0.3824  0.0487
  155DOPC  H11R18620   3.881   7.694   5.923 -0.3408 -0.3050  0.0201
  155DOPC  H11S18621   3.806   7.719   6.080  0.2402  1.8080  0.6036
  155DOPC  C21218622   3.863   7.903   5.982 -0.1377  0.1761  0.1078
  155DOPC  H12R18623   3.956   7.916   6.041 -1.2899 -1.7074  2.5263
  155DOPC  H12S18624   3.790   7.963   6.040 -1.4323 -1.2728  0.0452
  155DOPC  C21318625   3.884   7.958   5.844  0.5409 -0.0706  0.0689
  155DOPC  H13R18626   3.795   7.958   5.778  0.8717  2.5600 -0.4866
  155DOPC  H13S18627   3.955   7.884   5.801 -0.1582 -0.8874  0.2861
  155DOPC  C21418628   3.956   8.097   5.834  0.5060 -0.1225 -0.5784
  155DOPC  H14R18629   3.999   8.113   5.935 -2.5532  0.4026  0.7727
  155DOPC  H14S18630   3.893   8.183   5.801  1.3822  0.4709 -0.7324
  155DOPC  C21518631   4.070   8.078   5.729 -0.3526 -0.2086  0.0476
  155DOPC  H15R18632   4.017   8.055   5.634 -0.3179 -1.7952  0.3757
  155DOPC  H15S18633   4.135   7.990   5.749  1.2110  0.5114 -1.5720
  155DOPC  C21618634   4.151   8.204   5.715  1.0788  0.5992 -0.2795
  155DOPC  H16R18635   4.214   8.214   5.806  0.3251  0.3556  0.2816
  155DOPC  H16S18636   4.088   8.296   5.715 -2.4793 -1.6281  1.1988
  155DOPC  C21718637   4.240   8.195   5.588 -0.6994  0.4604  0.4452
  155DOPC  H17R18638   4.283   8.093   5.581 -1.2315  0.2684 -0.1018
  155DOPC  H17S18639   4.320   8.272   5.599 -0.0380 -0.3702  1.5914
  155DOPC  C21818640   4.166   8.218   5.453 -0.0072  0.3441 -0.3174
  155DOPC  H18R18641   4.238   8.206   5.369 -0.6086 -0.3598 -0.7401
  155DOPC  H18S18642   4.113   8.316   5.447  0.8156  0.7651 -1.0170
  155DOPC  H18T18643   4.092   8.139   5.430  1.5641 -0.6256 -2.4008
  155DOPC   C3318644   2.992   7.682   6.330 -0.0577  0.3790  0.3044
  155DOPC   H3X18645   3.077   7.722   6.391 -0.9414  2.8844 -0.0215
  155DOPC   H3Y18646   2.911   7.755   6.313 -1.2639 -1.1182 -0.5976
  155DOPC   C3418647   3.060   7.641   6.199 -0.3745 -0.1573  0.0251
  155DOPC   H4X18648   2.981   7.614   6.125  0.3809 -1.5006 -0.3121
  155DOPC   H4Y18649   3.121   7.549   6.206 -2.3816 -1.9465 -3.3402
  155DOPC   C3518650   3.134   7.758   6.131  0.1885  0.2491 -0.1216
  155DOPC   H5X18651   3.214   7.800   6.196  2.6671 -1.6644 -1.7494
  155DOPC   H5Y18652   3.063   7.838   6.101  0.1007  0.0333 -0.4844
  155DOPC   C3618653   3.202   7.730   6.004 -0.1224 -0.2667  0.0315
  155DOPC   H6X18654   3.267   7.816   5.979  0.7204 -1.2037 -1.1477
  155DOPC   H6Y18655   3.281   7.651   6.006  1.4169  1.2155  1.7873
  155DOPC   C3718656   3.104   7.708   5.888 -0.1852  0.0765 -0.5551
  155DOPC   H7X18657   3.015   7.655   5.928 -0.5895 -0.2742 -1.8525
  155DOPC   H7Y18658   3.053   7.797   5.844  0.9906 -0.9225 -4.3625
  155DOPC   C3818659   3.165   7.623   5.779  0.3958  0.6141 -0.4661
  155DOPC   H8X18660   3.085   7.565   5.728  1.4950  0.2152 -1.8093
  155DOPC   H8Y18661   3.209   7.534   5.830  0.3387  1.0422  0.3413
  155DOPC   C3918662   3.269   7.679   5.681  1.0174 -0.1877  0.0730
  155DOPC   H9X18663   3.375   7.692   5.710  1.4308  1.6239 -1.9713
  155DOPC  C31018664   3.237   7.687   5.551 -0.4062  0.7609 -0.3385
  155DOPC  H10X18665   3.322   7.713   5.486  1.5367  2.5228  2.6633
  155DOPC  C31118666   3.099   7.664   5.489 -0.5324 -0.0431  0.4053
  155DOPC  H11X18667   3.025   7.708   5.559  0.8345  0.9245  1.2980
  155DOPC  H11Y18668   3.077   7.556   5.476  0.5131 -0.2928  0.6178
  155DOPC  C31218669   3.096   7.739   5.360  0.5862 -0.1998  0.0359
  155DOPC  H12X18670   3.115   7.847   5.372 -1.6261  0.4134 -1.3980
  155DOPC  H12Y18671   2.989   7.732   5.329  0.4575  0.1806  0.3918
  155DOPC  C31318672   3.179   7.685   5.241  0.3661  0.8860 -0.4512
  155DOPC  H13X18673   3.273   7.744   5.246  1.3883 -0.8200  2.6383
  155DOPC  H13Y18674   3.198   7.576   5.246 -0.5961  0.7298 -0.0740
  155DOPC  C31418675   3.110   7.726   5.111 -0.7302 -0.3910 -0.0767
  155DOPC  H14X18676   3.013   7.672   5.111  1.0421 -3.8455 -0.0829
  155DOPC  H14Y18677   3.095   7.836   5.106  1.1027 -0.1532 -3.1737
  155DOPC  C31518678   3.196   7.662   4.998 -0.0206  0.3051 -0.0881
  155DOPC  H15X18679   3.228   7.559   5.023  1.2384  0.5227 -0.7203
  155DOPC  H15Y18680   3.286   7.726   4.987 -0.5232  0.6039 -3.2261
  155DOPC  C31618681   3.127   7.659   4.864 -0.3164  0.2106 -0.5079
  155DOPC  H16X18682   3.072   7.563   4.857  1.6775 -0.9565 -0.7984
  155DOPC  H16Y18683   3.059   7.747   4.861 -0.5180  0.0715 -0.0840
  155DOPC  C31718684   3.223   7.659   4.750 -0.4236  0.7890  0.2949
  155DOPC  H17X18685   3.164   7.690   4.660  2.3049 -1.1270 -2.3716
  155DOPC  H17Y18686   3.311   7.726   4.765 -0.0643  0.8266 -1.7083
  155DOPC  C31818687   3.265   7.514   4.714  0.2905 -1.0321 -0.0721
  155DOPC  H18X18688   3.180   7.442   4.710  0.2605 -1.0844  1.1579
  155DOPC  H18Y18689   3.306   7.521   4.611 -0.0373 -0.4912 -0.1693
  155DOPC  H18Z18690   3.346   7.482   4.783  0.9120 -0.9704 -0.7551
  156DOPC     N18691   6.576   4.953   7.480 -0.1431  0.0377 -0.2283
  156DOPC   C1218692   6.492   5.005   7.363  0.0419  0.2393 -0.6720
  156DOPC  H12A18693   6.503   5.112   7.356 -0.1898  0.3006 -0.1322
  156DOPC  H12B18694   6.392   4.991   7.400  0.8990  0.5047  1.9694
  156DOPC   C1318695   6.517   4.992   7.607 -0.8785  0.3581  0.5803
  156DOPC  H13A18696   6.561   4.936   7.687  1.2395  2.2294  0.8248
  156DOPC  H13B18697   6.533   5.097   7.627 -2.1667  0.9291 -1.0808
  156DOPC  H13C18698   6.413   4.968   7.618 -0.6300 -0.1289  2.0007
  156DOPC   C1418699   6.717   5.006   7.469  0.2728 -0.0234  0.4135
  156DOPC  H14A18700   6.777   4.975   7.553 -2.0180 -2.2063  1.3596
  156DOPC  H14B18701   6.756   4.985   7.371  1.6473 -0.3256  1.0085
  156DOPC  H14C18702   6.706   5.114   7.470 -0.2969 -0.0693  2.3539
  156DOPC   C1518703   6.579   4.802   7.478 -0.7105 -0.1936  0.1522
  156DOPC  H15A18704   6.600   4.771   7.376 -2.8829  2.1437 -1.1184
  156DOPC  H15B18705   6.487   4.757   7.512 -1.1753  0.4258 -0.2596
  156DOPC  H15C18706   6.644   4.753   7.548 -1.4172 -0.6868  0.4739
  156DOPC   C1118707   6.508   4.943   7.230 -0.4527  0.0177 -0.2692
  156DOPC  H11A18708   6.480   4.835   7.230 -0.4824  0.0256  0.0863
  156DOPC  H11B18709   6.438   4.986   7.155  0.0936 -0.0887 -0.8438
  156DOPC     P18710   6.712   5.075   7.129  0.2283  0.4287  0.3143
  156DOPC   O1318711   6.831   5.108   7.207  0.1409 -1.0019 -0.1824
  156DOPC   O1418712   6.618   5.185   7.101 -0.1263  0.6811 -0.0016
  156DOPC   O1218713   6.640   4.950   7.188 -0.2991 -0.4955  0.0521
  156DOPC   O1118714   6.767   5.020   6.990  0.6311  0.2989  0.0718
  156DOPC    C118715   6.716   4.901   6.929 -0.2199  0.2380 -0.1859
  156DOPC    HA18716   6.634   4.856   6.988  1.1680  0.9888  2.4969
  156DOPC    HB18717   6.791   4.819   6.932 -2.4523 -1.8469  1.4626
  156DOPC    C218718   6.665   4.930   6.785  0.5286  1.0055 -1.3359
  156DOPC    HS18719   6.639   4.836   6.732  1.2049  0.0023  0.0400
  156DOPC   O2118720   6.761   5.001   6.703  0.2299 -0.4101 -0.6528
  156DOPC   C2118721   6.843   4.923   6.640  0.2275  0.2583  0.0748
  156DOPC   O2218722   6.853   4.804   6.651 -0.5240 -0.1419  0.6703
  156DOPC   C2218723   6.925   4.999   6.541  0.0779 -0.1445 -0.1581
  156DOPC   H2R18724   7.032   4.997   6.571 -0.4617  0.6294  1.9418
  156DOPC   H2S18725   6.884   5.102   6.546  0.0462 -0.1505 -0.2722
  156DOPC    C318726   6.547   5.025   6.806 -0.5568  0.0846  0.0625
  156DOPC    HX18727   6.584   5.116   6.857  0.8088 -0.2741 -0.2581
  156DOPC    HY18728   6.473   4.970   6.869 -0.3324 -0.3911 -0.0861
  156DOPC   O3118729   6.484   5.050   6.679  0.0725 -0.3724  0.2561
  156DOPC   C3118730   6.517   5.161   6.616 -0.2116 -0.3087  0.6714
  156DOPC   O3218731   6.585   5.253   6.661 -0.4021 -0.4644 -0.1188
  156DOPC   C3218732   6.449   5.163   6.488 -0.4645 -0.3122  0.1351
  156DOPC   H2X18733   6.491   5.081   6.426  4.7435  2.2986 -0.3620
  156DOPC   H2Y18734   6.340   5.140   6.497 -0.6231  0.2176 -0.3390
  156DOPC   C2318735   6.903   4.947   6.393 -0.5486 -0.0786  0.1257
  156DOPC   H3R18736   6.900   4.836   6.393 -1.4271 -0.0617 -0.2807
  156DOPC   H3S18737   6.983   4.982   6.324 -0.5104 -1.2443 -0.4500
  156DOPC   C2418738   6.769   5.003   6.337 -0.0646 -0.6528 -0.6840
  156DOPC   H4R18739   6.762   5.113   6.327 -2.4068 -0.6692  0.0413
  156DOPC   H4S18740   6.687   4.982   6.409  0.5923 -1.2762 -0.1075
  156DOPC   C2518741   6.727   4.941   6.206  0.2418 -0.0605 -0.1953
  156DOPC   H5R18742   6.722   4.830   6.209  0.0863 -0.0533 -0.1573
  156DOPC   H5S18743   6.810   4.973   6.139  0.9462  0.7132  1.0026
  156DOPC   C2618744   6.592   5.000   6.150  1.6765 -0.1572  0.4226
  156DOPC   H6R18745   6.605   5.110   6.163 -2.3139  0.4418  0.4791
  156DOPC   H6S18746   6.502   4.963   6.202 -0.1482  0.4939 -2.0981
  156DOPC   C2718747   6.571   4.970   6.001 -0.4121  0.0984  0.0409
  156DOPC   H7R18748   6.664   4.987   5.943 -0.0852  0.4930  0.6763
  156DOPC   H7S18749   6.501   5.043   5.954 -1.7950 -1.5447 -0.5897
  156DOPC   C2818750   6.513   4.828   5.962  0.1171 -0.1715  0.1967
  156DOPC   H8R18751   6.425   4.807   6.027  0.1617  1.9181  1.0144
  156DOPC   H8S18752   6.593   4.752   5.975 -0.9045 -1.1966  0.6639
  156DOPC   C2918753   6.482   4.810   5.816 -0.0475 -0.4480 -0.4681
  156DOPC   H9R18754   6.567   4.812   5.747 -1.1769  1.1256 -1.9002
  156DOPC  C21018755   6.363   4.791   5.758  0.3567  0.1474 -0.5523
  156DOPC  H10R18756   6.360   4.776   5.649 -0.0516  1.2275 -0.7074
  156DOPC  C21118757   6.229   4.790   5.824 -0.7460 -0.0898  0.7913
  156DOPC  H11R18758   6.221   4.855   5.913  0.6090  0.2230  0.6981
  156DOPC  H11S18759   6.214   4.687   5.863 -0.3532 -1.0663 -1.4465
  156DOPC  C21218760   6.107   4.820   5.732  0.2808 -0.6109 -0.5169
  156DOPC  H12R18761   6.011   4.821   5.788  0.5737 -1.6185  0.0233
  156DOPC  H12S18762   6.097   4.740   5.656  0.1601 -0.2794 -0.8543
  156DOPC  C21318763   6.116   4.963   5.671 -0.2370  0.0760 -0.0799
  156DOPC  H13R18764   6.220   4.972   5.632 -0.7317  2.5188 -1.0048
  156DOPC  H13S18765   6.089   5.041   5.745 -2.5773 -0.3831 -0.3874
  156DOPC  C21418766   6.012   4.984   5.556  0.2543 -0.0119  0.8859
  156DOPC  H14R18767   5.905   4.980   5.586  0.3430 -0.5671  1.1564
  156DOPC  H14S18768   6.031   4.900   5.485 -0.7054 -0.1107  0.7351
  156DOPC  C21518769   6.031   5.119   5.480  0.4319 -0.3254  0.4039
  156DOPC  H15R18770   6.128   5.117   5.427  0.2982 -1.6786  0.1736
  156DOPC  H15S18771   6.010   5.204   5.549 -0.7343 -0.5608  0.3685
  156DOPC  C21618772   5.929   5.129   5.364 -0.3416  0.4200 -1.1976
  156DOPC  H16R18773   5.959   5.217   5.303 -2.6233  1.0711 -1.4901
  156DOPC  H16S18774   5.825   5.153   5.396  0.7493  0.6111  2.5840
  156DOPC  C21718775   5.926   5.013   5.263  0.3392 -0.2606  0.4260
  156DOPC  H17R18776   5.865   5.061   5.184  0.0002 -0.0602  0.8022
  156DOPC  H17S18777   5.866   4.929   5.303  1.2355 -1.0312  0.1797
  156DOPC  C21818778   6.053   4.981   5.207 -0.6109 -0.1202 -0.1281
  156DOPC  H18R18779   6.119   5.066   5.179 -0.4335  0.4926  2.0309
  156DOPC  H18S18780   6.027   4.916   5.120 -2.8493 -0.3226  0.6166
  156DOPC  H18T18781   6.110   4.911   5.271 -1.2538 -0.2086  0.3598
  156DOPC   C3318782   6.477   5.283   6.406  0.2372 -0.4914  0.6602
  156DOPC   H3X18783   6.478   5.256   6.298 -0.2944 -1.2274  0.8268
  156DOPC   H3Y18784   6.576   5.326   6.431 -0.1799 -0.9773  3.4580
  156DOPC   C3418785   6.365   5.388   6.425  0.7615 -0.6856 -0.0955
  156DOPC   H4X18786   6.357   5.400   6.535 -0.9610 -0.3910 -0.2354
  156DOPC   H4Y18787   6.265   5.352   6.395  0.9443 -0.9795 -0.3583
  156DOPC   C3518788   6.395   5.530   6.362  0.6585  0.4663 -0.0213
  156DOPC   H5X18789   6.497   5.568   6.386  1.1666 -1.3051  0.7864
  156DOPC   H5Y18790   6.329   5.605   6.409  0.7702  0.5527 -0.0017
  156DOPC   C3618791   6.377   5.529   6.212  0.2228  0.4528  0.0104
  156DOPC   H6X18792   6.449   5.467   6.155  0.3951  0.9264 -0.2846
  156DOPC   H6Y18793   6.274   5.496   6.187  1.0094 -1.6836 -0.6898
  156DOPC   C3718794   6.401   5.671   6.163  0.9439  0.1729  0.8280
  156DOPC   H7X18795   6.347   5.734   6.237  0.0082 -0.2864  0.5499
  156DOPC   H7Y18796   6.506   5.707   6.160  1.0626 -0.1262  1.3493
  156DOPC   C3818797   6.348   5.699   6.024 -0.4133  0.3002  0.0696
  156DOPC   H8X18798   6.355   5.808   6.002 -0.2618 -0.1832 -2.5504
  156DOPC   H8Y18799   6.239   5.677   6.023 -0.1128 -1.2638  0.1664
  156DOPC   C3918800   6.435   5.611   5.932 -0.1415  0.1727  0.0051
  156DOPC   H9X18801   6.540   5.643   5.933 -0.4228  1.1432 -0.2270
  156DOPC  C31018802   6.403   5.531   5.830  0.7147  0.9668 -1.0786
  156DOPC  H10X18803   6.472   5.472   5.768  0.5907 -0.7644  0.3177
  156DOPC  C31118804   6.258   5.508   5.802 -0.5387 -0.1824 -0.2763
  156DOPC  H11X18805   6.232   5.561   5.708 -0.4103 -1.0540 -0.8121
  156DOPC  H11Y18806   6.188   5.547   5.879 -2.0878 -1.1487 -1.1312
  156DOPC  C31218807   6.236   5.353   5.792  0.6495  0.3104 -0.4905
  156DOPC  H12X18808   6.312   5.310   5.724 -0.0748 -1.0801 -0.4638
  156DOPC  H12Y18809   6.139   5.327   5.744  0.1198 -3.8443  2.2961
  156DOPC  C31318810   6.248   5.270   5.922  0.1079 -0.4820  0.1130
  156DOPC  H13X18811   6.305   5.178   5.896  1.3681  0.6106 -1.1148
  156DOPC  H13Y18812   6.306   5.325   5.999 -0.5025  0.2523  0.0609
  156DOPC  C31418813   6.113   5.240   5.990  0.4063 -0.5028  0.5783
  156DOPC  H14X18814   6.073   5.330   6.039  0.4796  0.4642 -1.0533
  156DOPC  H14Y18815   6.030   5.207   5.923 -1.3685  1.8504  1.5070
  156DOPC  C31518816   6.123   5.133   6.102  0.1972  0.3538 -0.4443
  156DOPC  H15X18817   6.219   5.160   6.153  0.8506 -1.0082 -0.9029
  156DOPC  H15Y18818   6.146   5.032   6.062 -0.3821 -0.7645  1.8504
  156DOPC  C31618819   6.001   5.131   6.198 -0.4951  1.4466  0.1844
  156DOPC  H16X18820   5.956   5.232   6.200  0.6906  2.1196 -2.4146
  156DOPC  H16Y18821   5.924   5.057   6.167  0.8936 -1.6572  3.3985
  156DOPC  C31718822   6.038   5.080   6.340 -0.2810 -0.6586 -0.2001
  156DOPC  H17X18823   6.101   4.988   6.338  1.0762  0.2493  0.1622
  156DOPC  H17Y18824   6.101   5.158   6.388  0.2365 -0.7620 -0.6997
  156DOPC  C31818825   5.909   5.048   6.423 -0.0262  0.6231  0.3841
  156DOPC  H18X18826   5.837   5.132   6.421 -1.1031 -0.2899  0.0815
  156DOPC  H18Y18827   5.866   4.950   6.394 -0.7845  1.0700 -0.0337
  156DOPC  H18Z18828   5.942   5.020   6.525 -0.6137 -0.0083  0.4003
  157DOPC     N18829   6.675   7.655   6.814 -0.1653 -0.4483 -0.4943
  157DOPC   C1218830   6.566   7.578   6.743  0.9537  0.6094 -0.3974
  157DOPC  H12A18831   6.604   7.527   6.656 -2.0779 -0.6128 -1.1032
  157DOPC  H12B18832   6.494   7.648   6.704  1.3496  0.8758 -0.6607
  157DOPC   C1318833   6.621   7.745   6.924 -0.0673 -0.2862 -0.0996
  157DOPC  H13A18834   6.584   7.838   6.883 -0.1235  0.0597  0.7057
  157DOPC  H13B18835   6.541   7.690   6.972  1.3922 -1.8815  0.6114
  157DOPC  H13C18836   6.698   7.768   6.996  0.6891 -0.4752 -0.8357
  157DOPC   C1418837   6.747   7.749   6.724  0.2411 -0.6590 -0.0203
  157DOPC  H14A18838   6.824   7.805   6.775 -0.1739  1.0023 -1.1192
  157DOPC  H14B18839   6.791   7.697   6.640 -1.7410  0.6728 -1.9924
  157DOPC  H14C18840   6.680   7.824   6.684  2.5052  0.8652 -1.1624
  157DOPC   C1518841   6.776   7.562   6.870  0.6889  0.1476 -0.1696
  157DOPC  H15A18842   6.872   7.611   6.880  2.3146 -3.2542  3.1429
  157DOPC  H15B18843   6.792   7.488   6.793  0.3129  0.6460 -0.7329
  157DOPC  H15C18844   6.747   7.511   6.961  0.2686 -0.9891 -0.9202
  157DOPC   C1118845   6.486   7.471   6.820  0.5076  0.2922 -0.0695
  157DOPC  H11A18846   6.423   7.422   6.743  0.7903 -1.7741  0.9277
  157DOPC  H11B18847   6.556   7.390   6.850 -0.4623  0.3261  2.5900
  157DOPC     P18848   6.274   7.575   6.920 -0.1137 -0.2502 -0.0125
  157DOPC   O1318849   6.249   7.650   7.042  0.1311 -0.0333  0.4161
  157DOPC   O1418850   6.179   7.468   6.885  0.2252  0.3685 -0.1364
  157DOPC   O1218851   6.420   7.515   6.941 -0.0539  0.1675 -0.3458
  157DOPC   O1118852   6.300   7.668   6.795 -0.0079 -0.2230  0.2959
  157DOPC    C118853   6.200   7.716   6.711 -0.6646 -0.1732  0.5123
  157DOPC    HA18854   6.113   7.753   6.769 -2.9332 -1.8097 -1.6311
  157DOPC    HB18855   6.163   7.636   6.644  2.5361 -1.9185  0.6537
  157DOPC    C218856   6.261   7.821   6.612  0.4825 -0.0967 -0.1106
  157DOPC    HS18857   6.177   7.853   6.548 -0.6237 -0.3488  1.1568
  157DOPC   O2118858   6.373   7.767   6.540  0.3364 -0.4347  0.3220
  157DOPC   C2118859   6.332   7.694   6.437 -0.4080 -0.2160  0.0467
  157DOPC   O2218860   6.220   7.662   6.407 -0.0353 -0.5228  0.2776
  157DOPC   C2218861   6.452   7.630   6.368  0.4555  0.2853  0.7130
  157DOPC   H2R18862   6.445   7.521   6.391  0.3304  0.9260  4.3103
  157DOPC   H2S18863   6.547   7.679   6.396 -0.1502  2.7745 -1.1961
  157DOPC    C318864   6.304   7.948   6.690 -0.2680  0.1107  0.2166
  157DOPC    HX18865   6.394   7.916   6.747  0.1726  1.0371  0.0631
  157DOPC    HY18866   6.234   7.981   6.770 -2.9320 -1.3051 -1.4010
  157DOPC   O3118867   6.333   8.061   6.611 -0.8248 -0.2212 -0.1639
  157DOPC   C3118868   6.223   8.131   6.572 -0.4633 -0.0043  0.1890
  157DOPC   O3218869   6.108   8.095   6.596  0.3400 -0.2862  0.2903
  157DOPC   C3218870   6.250   8.247   6.484 -0.1686 -0.4070 -0.3837
  157DOPC   H2X18871   6.189   8.337   6.508 -0.5073 -0.6682 -0.2550
  157DOPC   H2Y18872   6.354   8.277   6.506  0.3925 -0.0984 -3.1114
  157DOPC   C2318873   6.440   7.639   6.210  0.2402  0.0311 -0.6756
  157DOPC   H3R18874   6.341   7.591   6.193  1.0140 -1.2269 -1.8585
  157DOPC   H3S18875   6.517   7.578   6.157 -0.5859 -1.1445 -0.5785
  157DOPC   C2418876   6.440   7.786   6.173  0.4186 -0.1534  0.3056
  157DOPC   H4R18877   6.536   7.832   6.206  0.8780 -1.2693  0.5741
  157DOPC   H4S18878   6.358   7.838   6.226 -1.5558 -0.9447 -1.8117
  157DOPC   C2518879   6.428   7.816   6.021 -0.8169  0.3289 -0.5963
  157DOPC   H5R18880   6.427   7.927   6.009 -0.9553  0.2667 -1.1637
  157DOPC   H5S18881   6.329   7.786   5.980 -1.3293  0.2890  0.6210
  157DOPC   C2618882   6.555   7.756   5.947  0.4261 -0.0143 -0.4115
  157DOPC   H6R18883   6.564   7.646   5.961 -0.1802  0.0350  0.4809
  157DOPC   H6S18884   6.640   7.802   6.002 -0.9941  2.8083 -0.3810
  157DOPC   C2718885   6.566   7.799   5.798 -0.2927  0.3521  0.8012
  157DOPC   H7R18886   6.579   7.908   5.782 -0.4990  0.4637  1.3790
  157DOPC   H7S18887   6.465   7.773   5.759  1.2668 -1.2503 -2.5144
  157DOPC   C2818888   6.666   7.703   5.723  0.6836  0.3148  0.3092
  157DOPC   H8R18889   6.634   7.598   5.735 -0.4958  0.5902 -0.3379
  157DOPC   H8S18890   6.764   7.717   5.774  0.6888  0.5391  0.2399
  157DOPC   C2918891   6.672   7.735   5.579 -0.0498  0.0755 -0.1771
  157DOPC   H9R18892   6.574   7.714   5.535 -0.7240  1.2146  0.7248
  157DOPC  C21018893   6.782   7.784   5.509  0.2025 -0.3047  0.0178
  157DOPC  H10R18894   6.767   7.789   5.400  0.5654  1.2750  0.0060
  157DOPC  C21118895   6.917   7.826   5.556 -0.1134  0.8858 -0.2383
  157DOPC  H11R18896   6.929   7.800   5.663  0.2046  1.1076 -0.2180
  157DOPC  H11S18897   6.930   7.937   5.559 -1.7572  1.0885  1.5200
  157DOPC  C21218898   7.036   7.759   5.478  0.4432 -0.3820 -0.5448
  157DOPC  H12R18899   7.024   7.652   5.504 -0.2611 -0.4916 -1.2814
  157DOPC  H12S18900   7.133   7.789   5.523  0.4303 -1.2266  0.0796
  157DOPC  C21318901   7.046   7.761   5.325 -0.3735  0.3754 -0.7104
  157DOPC  H13R18902   6.977   7.684   5.283  1.3563 -0.3646 -2.3391
  157DOPC  H13S18903   7.143   7.714   5.299 -0.5133  0.0988 -0.7380
  157DOPC  C21418904   7.047   7.906   5.267  0.1292  0.0765 -0.4950
  157DOPC  H14R18905   7.124   7.971   5.315  0.4241 -0.8534  0.3210
  157DOPC  H14S18906   6.957   7.963   5.299  1.1527  0.4984  1.8448
  157DOPC  C21518907   7.064   7.911   5.118 -0.4338 -0.1091 -0.5224
  157DOPC  H15R18908   6.985   7.854   5.065 -2.2100  2.0702 -0.4049
  157DOPC  H15S18909   7.168   7.878   5.102 -0.2036  0.3640 -0.0441
  157DOPC  C21618910   7.058   8.052   5.063  0.0830  0.1842  0.1063
  157DOPC  H16R18911   6.951   8.083   5.066 -0.2887 -0.9849  3.4917
  157DOPC  H16S18912   7.098   8.036   4.960  0.4574 -1.7240  0.5057
  157DOPC  C21718913   7.152   8.156   5.133  0.1499  0.1295 -0.4735
  157DOPC  H17R18914   7.250   8.106   5.149  0.3447  0.7099  0.2252
  157DOPC  H17S18915   7.113   8.175   5.236 -1.6346 -0.3959 -1.0130
  157DOPC  C21818916   7.163   8.282   5.049 -0.3529  0.4673  0.1820
  157DOPC  H18R18917   7.203   8.266   4.947 -1.8553 -0.1886 -0.3389
  157DOPC  H18S18918   7.217   8.367   5.097  0.4466 -0.4601  0.9714
  157DOPC  H18T18919   7.060   8.316   5.023 -0.6318 -1.3490 -1.3436
  157DOPC   C3318920   6.246   8.204   6.335 -0.6197 -0.6061  0.1079
  157DOPC   H3X18921   6.287   8.102   6.318 -0.3582 -0.5767  0.5550
  157DOPC   H3Y18922   6.308   8.275   6.276 -0.7530 -0.4582  0.1457
  157DOPC   C3418923   6.109   8.203   6.271 -0.1882 -0.1396 -0.5507
  157DOPC   H4X18924   6.053   8.290   6.314  2.9927 -0.0098  4.0114
  157DOPC   H4Y18925   6.059   8.106   6.293  3.3000 -2.9659 -3.7850
  157DOPC   C3518926   6.113   8.201   6.115 -0.6660 -0.3436  0.3560
  157DOPC   H5X18927   6.128   8.303   6.073 -0.5516 -0.8412 -0.8672
  157DOPC   H5Y18928   6.007   8.172   6.095 -0.5045 -0.4462 -0.3949
  157DOPC   C3618929   6.202   8.099   6.047 -0.0399  0.2396  0.0628
  157DOPC   H6X18930   6.307   8.125   6.074 -0.6645  3.5291 -0.1841
  157DOPC   H6Y18931   6.176   8.005   6.099 -0.4594  0.1895 -0.2322
  157DOPC   C3718932   6.169   8.071   5.897 -0.1049  0.3295  0.6476
  157DOPC   H7X18933   6.252   8.008   5.858 -1.2820 -0.8961  0.0207
  157DOPC   H7Y18934   6.078   8.008   5.894 -0.1691  0.4418 -1.5554
  157DOPC   C3818935   6.147   8.193   5.807 -0.4022 -0.3157  1.0008
  157DOPC   H8X18936   6.058   8.258   5.810 -1.8021 -1.6710 -3.0854
  157DOPC   H8Y18937   6.133   8.144   5.708 -0.0510 -1.9663  1.7217
  157DOPC   C3918938   6.269   8.288   5.798  0.7190  0.1163  0.5742
  157DOPC   H9X18939   6.250   8.384   5.848  0.6561  0.1397  0.5057
  157DOPC  C31018940   6.389   8.275   5.735 -0.2044 -0.2040  0.6329
  157DOPC  H10X18941   6.458   8.359   5.755  3.3640 -2.9394  0.8934
  157DOPC  C31118942   6.454   8.162   5.656  0.4809  0.1227 -0.7435
  157DOPC  H11X18943   6.404   8.063   5.667 -1.8790  1.0636 -2.2159
  157DOPC  H11Y18944   6.558   8.146   5.691  0.6400 -1.6101 -1.8599
  157DOPC  C31218945   6.479   8.206   5.505 -0.2432 -0.0119 -0.1946
  157DOPC  H12X18946   6.556   8.286   5.501 -0.2373 -0.0420 -0.9891
  157DOPC  H12Y18947   6.386   8.243   5.455 -0.1955 -0.2526 -0.4608
  157DOPC  C31318948   6.539   8.093   5.420  0.3044 -0.3297 -0.2493
  157DOPC  H13X18949   6.641   8.069   5.459  0.2363  0.4201  0.4399
  157DOPC  H13Y18950   6.479   8.002   5.435  2.1419 -1.3705  1.3698
  157DOPC  C31418951   6.562   8.143   5.276  0.0859 -0.1783 -0.1040
  157DOPC  H14X18952   6.461   8.174   5.239  0.6300  0.8650 -0.7714
  157DOPC  H14Y18953   6.616   8.240   5.276  1.4569 -0.8960  1.6146
  157DOPC  C31518954   6.631   8.041   5.185 -0.6314  0.1321  0.1618
  157DOPC  H15X18955   6.576   7.945   5.196  2.9728 -1.9884  1.5475
  157DOPC  H15Y18956   6.734   8.028   5.226 -0.6418 -0.7377 -0.0635
  157DOPC  C31618957   6.648   8.088   5.037 -0.0275  0.1734 -0.3797
  157DOPC  H16X18958   6.550   8.104   4.988 -1.1057 -0.8978  1.3287
  157DOPC  H16Y18959   6.712   8.179   5.030  1.6323 -0.8629  0.6349
  157DOPC  C31718960   6.702   7.973   4.950 -0.4826 -0.1091 -0.2416
  157DOPC  H17X18961   6.765   7.902   5.008  0.6124 -0.7121 -2.0723
  157DOPC  H17Y18962   6.613   7.910   4.928 -0.0800 -0.9296  0.4122
  157DOPC  C31818963   6.765   8.004   4.816  0.8766  0.3438 -0.2161
  157DOPC  H18X18964   6.803   7.913   4.765  0.4991  0.6409 -1.0424
  157DOPC  H18Y18965   6.692   8.052   4.747 -0.6824  1.0804  1.8456
  157DOPC  H18Z18966   6.844   8.079   4.838  0.8609  0.0474  0.9030
  158DOPC     N18967   4.577   5.239   7.244 -0.3610  0.6316 -0.0087
  158DOPC   C1218968   4.520   5.374   7.280 -0.1567  0.7658 -0.4432
  158DOPC  H12A18969   4.590   5.444   7.323 -1.5544  2.1472 -0.3302
  158DOPC  H12B18970   4.458   5.356   7.367  0.0110  1.9105 -0.0694
  158DOPC   C1318971   4.670   5.188   7.345 -0.3878  0.5202 -0.4063
  158DOPC  H13A18972   4.629   5.179   7.445 -0.5247 -0.2052 -0.5250
  158DOPC  H13B18973   4.710   5.093   7.315 -1.7627 -0.3897  0.5079
  158DOPC  H13C18974   4.751   5.258   7.359 -1.1791  1.1062  1.7088
  158DOPC   C1418975   4.652   5.254   7.114  0.7267 -0.2959  0.2429
  158DOPC  H14A18976   4.744   5.308   7.129  1.1300 -0.6243 -0.9372
  158DOPC  H14B18977   4.685   5.156   7.080  2.6375  0.9768 -1.8573
  158DOPC  H14C18978   4.602   5.311   7.038  0.0296  0.4474  1.2381
  158DOPC   C1518979   4.462   5.148   7.216 -0.3692  1.0198 -0.7099
  158DOPC  H15A18980   4.402   5.127   7.303  0.0719 -1.0111 -0.8293
  158DOPC  H15B18981   4.504   5.056   7.177  1.6088  1.3510  0.5339
  158DOPC  H15C18982   4.400   5.197   7.143  0.2885  2.3766 -0.3837
  158DOPC   C1118983   4.450   5.441   7.165 -0.4472  0.4075 -0.2437
  158DOPC  H11A18984   4.400   5.376   7.091  1.5364 -1.2960 -0.1832
  158DOPC  H11B18985   4.363   5.501   7.199 -1.0398 -0.5930  0.0327
  158DOPC     P18986   4.510   5.595   6.967  0.3329 -0.1287 -0.0076
  158DOPC   O1318987   4.621   5.690   6.940  0.1786  0.1252 -0.3730
  158DOPC   O1418988   4.372   5.655   6.967 -0.4342  0.2864 -0.4536
  158DOPC   O1218989   4.546   5.527   7.108  0.6215  0.3243 -0.2884
  158DOPC   O1118990   4.510   5.473   6.866  0.3135 -0.0298 -0.9188
  158DOPC    C118991   4.628   5.418   6.812  0.1363 -0.5655 -0.2449
  158DOPC    HA18992   4.627   5.308   6.828  0.3085 -0.5411 -0.0568
  158DOPC    HB18993   4.722   5.457   6.857 -1.3848 -0.5732  3.2826
  158DOPC    C218994   4.633   5.444   6.657  1.0071 -0.5496 -1.0857
  158DOPC    HS18995   4.734   5.418   6.617  1.6609  1.0369 -0.5317
  158DOPC   O2118996   4.605   5.582   6.638 -0.4319  0.0024 -0.0459
  158DOPC   C2118997   4.700   5.674   6.648  0.1341  0.4271  0.0205
  158DOPC   O2218998   4.819   5.649   6.656  0.0131  0.0092  0.2633
  158DOPC   C2218999   4.649   5.812   6.610 -0.2150 -0.2326 -0.0667
  158DOPC   H2R19000   4.705   5.884   6.673 -0.5759 -1.3156  1.5362
  158DOPC   H2S19001   4.544   5.814   6.645 -0.5052 -1.6098 -0.7718
  158DOPC    C319002   4.526   5.354   6.584  0.1908  0.4252  0.1732
  158DOPC    HX19003   4.424   5.395   6.604  0.0525  0.9959 -1.5600
  158DOPC    HY19004   4.553   5.256   6.628  0.3347  1.4326  2.5007
  158DOPC   O3119005   4.544   5.334   6.446  0.6059  0.7134 -0.1783
  158DOPC   C3119006   4.510   5.424   6.365  0.1744  0.2905  0.7516
  158DOPC   O3219007   4.440   5.526   6.389 -0.2601 -0.0047 -0.3368
  158DOPC   C3219008   4.565   5.383   6.227  0.7491  0.3553 -0.3326
  158DOPC   H2X19009   4.632   5.295   6.239 -0.4092 -0.3190  1.4568
  158DOPC   H2Y19010   4.480   5.349   6.164 -0.1170  1.9410 -0.0790
  158DOPC   C2319011   4.651   5.835   6.457 -0.1915  0.0538 -0.0582
  158DOPC   H3R19012   4.584   5.919   6.428  2.0329  1.5645 -1.0514
  158DOPC   H3S19013   4.612   5.741   6.413  1.6304 -0.4718 -0.6145
  158DOPC   C2419014   4.790   5.853   6.397 -0.1607 -0.5660 -0.0137
  158DOPC   H4R19015   4.779   5.813   6.295 -2.2644 -0.0329 -0.0338
  158DOPC   H4S19016   4.860   5.793   6.459  0.3487 -1.2889 -1.2537
  158DOPC   C2519017   4.830   6.002   6.402 -0.1980  0.2470 -0.1221
  158DOPC   H5R19018   4.805   6.044   6.502 -0.8607 -2.4497  0.9259
  158DOPC   H5S19019   4.777   6.049   6.316 -2.2093 -1.0742  0.3372
  158DOPC   C2619020   4.980   6.021   6.374 -0.5230  0.1430  0.3941
  158DOPC   H6R19021   5.032   5.966   6.456  0.2148  0.8244  0.3920
  158DOPC   H6S19022   5.017   6.124   6.390  0.3375 -0.4473  2.5733
  158DOPC   C2719023   5.022   5.967   6.237 -0.5570 -0.1940 -0.0264
  158DOPC   H7R19024   4.957   6.007   6.156  0.9903 -1.4432 -1.9708
  158DOPC   H7S19025   5.005   5.858   6.233  0.6147 -0.4071  0.3818
  158DOPC   C2819026   5.170   5.993   6.214 -0.4637  0.7373  0.2702
  158DOPC   H8R19027   5.222   5.944   6.299  1.1279  0.5952 -0.7417
  158DOPC   H8S19028   5.199   6.100   6.220  2.7246  0.0023 -0.1496
  158DOPC   C2919029   5.211   5.944   6.078 -0.5443 -0.0115  0.3509
  158DOPC   H9R19030   5.243   5.839   6.088 -3.0198 -0.8896 -0.2357
  158DOPC  C21019031   5.182   6.009   5.962 -0.2247  0.2176  0.5086
  158DOPC  H10R19032   5.213   5.966   5.866 -2.4152 -0.2476 -0.0416
  158DOPC  C21119033   5.136   6.154   5.948 -0.1845  0.5705 -0.1045
  158DOPC  H11R19034   5.199   6.228   6.002  1.0562 -0.5326  0.0092
  158DOPC  H11S19035   5.030   6.175   5.974  0.0392  1.0575  0.4372
  158DOPC  C21219036   5.137   6.201   5.798  0.1014  0.2410 -0.2654
  158DOPC  H12R19037   5.081   6.120   5.746 -1.3818 -0.2666  1.9982
  158DOPC  H12S19038   5.243   6.210   5.767  1.1584 -0.6048  2.7571
  158DOPC  C21319039   5.069   6.338   5.775 -0.0331  0.7885 -0.0737
  158DOPC  H13R19040   5.130   6.402   5.843 -2.0803  0.0102  2.6712
  158DOPC  H13S19041   4.962   6.334   5.806 -0.3726  1.9142 -1.0489
  158DOPC  C21419042   5.072   6.390   5.631 -0.7171  0.5760 -0.3961
  158DOPC  H14R19043   5.030   6.304   5.574 -1.1311 -0.2539  1.0897
  158DOPC  H14S19044   5.177   6.408   5.603 -0.4058 -1.8363 -1.0147
  158DOPC  C21519045   4.986   6.514   5.597  0.6186 -0.1692  0.7031
  158DOPC  H15R19046   4.909   6.544   5.672  0.4868 -0.5742  0.7305
  158DOPC  H15S19047   4.939   6.477   5.504  0.2756  1.2202  0.2899
  158DOPC  C21619048   5.069   6.630   5.550  0.0454 -0.4278  0.1068
  158DOPC  H16R19049   5.038   6.684   5.457  1.0508  0.7083  0.4003
  158DOPC  H16S19050   5.172   6.598   5.524  1.2944  2.5577  0.9046
  158DOPC  C21719051   5.083   6.734   5.667  0.1581  0.3319  0.3959
  158DOPC  H17R19052   5.128   6.665   5.742  2.8481 -0.7446 -2.0272
  158DOPC  H17S19053   4.989   6.776   5.707  0.4493  2.2976 -0.8421
  158DOPC  C21819054   5.176   6.843   5.618 -0.2945  0.3487  0.2805
  158DOPC  H18R19055   5.270   6.791   5.588 -1.5593 -1.8566 -0.1319
  158DOPC  H18S19056   5.201   6.922   5.691  0.0766  1.3287 -0.8897
  158DOPC  H18T19057   5.149   6.883   5.519 -0.3939  0.5970  0.4071
  158DOPC   C3319058   4.644   5.498   6.149 -0.2404 -0.2578 -0.3381
  158DOPC   H3X19059   4.699   5.459   6.061 -0.0723 -1.1934  0.1685
  158DOPC   H3Y19060   4.726   5.530   6.217  0.8421  2.5136 -2.7498
  158DOPC   C3419061   4.563   5.627   6.116  0.5609  0.1353  0.3414
  158DOPC   H4X19062   4.505   5.680   6.195 -0.2998  1.6615 -1.2692
  158DOPC   H4Y19063   4.485   5.598   6.043  2.1910 -0.4918 -1.2106
  158DOPC   C3519064   4.654   5.727   6.052 -0.0697 -0.5414  0.2575
  158DOPC   H5X19065   4.685   5.685   5.954 -1.9786  1.0276 -1.0843
  158DOPC   H5Y19066   4.747   5.739   6.112 -0.9280 -1.0912  1.7503
  158DOPC   C3619067   4.587   5.861   6.023  0.2992  0.4751  0.3003
  158DOPC   H6X19068   4.502   5.840   5.954  0.9410  0.0337 -0.3709
  158DOPC   H6Y19069   4.552   5.911   6.116 -0.0500  0.2204  0.3076
  158DOPC   C3719070   4.681   5.967   5.949  0.2527  0.1947 -0.2288
  158DOPC   H7X19071   4.620   6.055   5.921 -2.1731 -1.4337 -0.3264
  158DOPC   H7Y19072   4.753   5.990   6.031 -0.6168 -0.1720  0.6519
  158DOPC   C3819073   4.767   5.917   5.835 -0.2728 -0.3446 -0.2102
  158DOPC   H8X19074   4.711   5.847   5.769 -2.5411  1.0666  0.0869
  158DOPC   H8Y19075   4.845   5.856   5.884 -0.1861  0.6192  0.8832
  158DOPC   C3919076   4.817   6.033   5.753  0.7033 -0.0982  0.1906
  158DOPC   H9X19077   4.895   6.084   5.812 -0.5389  2.4506 -0.2549
  158DOPC  C31019078   4.794   6.059   5.625 -0.4769  0.3554 -0.0904
  158DOPC  H10X19079   4.852   6.139   5.576  0.3394  0.6697  1.3435
  158DOPC  C31119080   4.713   5.983   5.533  0.1136 -0.7833 -0.2132
  158DOPC  H11X19081   4.661   5.898   5.581  0.2280 -1.3171 -1.0084
  158DOPC  H11Y19082   4.789   5.934   5.469  2.1103 -1.9854  2.8548
  158DOPC  C31219083   4.617   6.073   5.453 -0.1972 -0.2626  0.2800
  158DOPC  H12X19084   4.564   6.135   5.528 -0.2381 -0.7226  0.6363
  158DOPC  H12Y19085   4.528   6.022   5.410 -0.5936  0.0844  0.6754
  158DOPC  C31319086   4.689   6.158   5.344 -0.4771  0.2069 -0.8961
  158DOPC  H13X19087   4.632   6.253   5.337 -2.1693 -0.7414 -0.3753
  158DOPC  H13Y19088   4.797   6.173   5.366 -0.8237 -0.5549  1.6380
  158DOPC  C31419089   4.670   6.086   5.211  0.6178  0.2516  0.2352
  158DOPC  H14X19090   4.692   5.977   5.216 -2.9377 -0.5683  0.5544
  158DOPC  H14Y19091   4.565   6.076   5.176  0.4859 -0.9537  0.8913
  158DOPC  C31519092   4.752   6.152   5.094  0.4854  0.0919  0.1514
  158DOPC  H15X19093   4.861   6.154   5.113  0.9616  0.6383 -2.2417
  158DOPC  H15Y19094   4.723   6.257   5.075 -1.0635 -0.6360 -2.1061
  158DOPC  C31619095   4.741   6.064   4.970 -0.0595  0.3461  0.6398
  158DOPC  H16X19096   4.770   5.960   4.996  3.0617  0.7587 -0.6512
  158DOPC  H16Y19097   4.633   6.061   4.943 -0.1309  2.5367  0.5047
  158DOPC  C31719098   4.830   6.121   4.857 -0.4555  0.6613 -0.0913
  158DOPC  H17X19099   4.799   6.225   4.834 -0.1090  0.7755 -0.0507
  158DOPC  H17Y19100   4.936   6.116   4.890 -0.4087 -1.5461 -0.4110
  158DOPC  C31819101   4.820   6.055   4.714 -0.9909  0.6205  0.0717
  158DOPC  H18X19102   4.718   6.071   4.671 -1.7502  2.0309  2.2699
  158DOPC  H18Y19103   4.903   6.089   4.648  0.8522 -1.3503  1.2397
  158DOPC  H18Z19104   4.822   5.945   4.730  1.8235  0.8406  1.8602
  159DOPC     N19105   7.308   0.397   7.147 -0.4496  0.3523 -0.2840
  159DOPC   C1219106   7.267   0.246   7.117  0.0150 -0.7203  0.3423
  159DOPC  H12A19107   7.167   0.226   7.153 -0.6801 -0.1635 -1.1799
  159DOPC  H12B19108   7.329   0.186   7.182 -0.6441 -1.2553  0.4942
  159DOPC   C1319109   7.287   0.421   7.293 -0.0720  0.4983 -0.1027
  159DOPC  H13A19110   7.350   0.353   7.348 -0.6275  1.8860  2.4162
  159DOPC  H13B19111   7.310   0.523   7.320  2.1480  0.6202 -2.1250
  159DOPC  H13C19112   7.184   0.412   7.323  0.1969  0.6253  0.8713
  159DOPC   C1419113   7.221   0.494   7.074 -0.1617  0.3069  0.3126
  159DOPC  H14A19114   7.251   0.480   6.971  1.4241 -0.5710  0.8574
  159DOPC  H14B19115   7.116   0.474   7.087 -0.2489  0.0284 -0.7639
  159DOPC  H14C19116   7.233   0.595   7.109 -0.9064  0.2097  0.8864
  159DOPC   C1519117   7.457   0.414   7.108  0.6702 -0.2183  0.7359
  159DOPC  H15A19118   7.464   0.413   7.000  1.5145  0.9823  0.7544
  159DOPC  H15B19119   7.523   0.332   7.131  1.9465  0.6596  0.3436
  159DOPC  H15C19120   7.499   0.510   7.136  0.1208  0.0896  0.5168
  159DOPC   C1119121   7.286   0.193   6.976 -0.4036 -0.3570 -0.6667
  159DOPC  H11A19122   7.390   0.226   6.955 -0.6633  0.1897 -1.1262
  159DOPC  H11B19123   7.284   0.082   6.977 -0.3122 -0.3600 -0.7533
  159DOPC     P19124   7.045   0.198   6.854 -0.3428 -0.6199  0.0913
  159DOPC   O1319125   6.943   0.297   6.815  0.1861  0.1787 -0.2445
  159DOPC   O1419126   7.007   0.120   6.972 -0.6311 -0.1133 -0.6804
  159DOPC   O1219127   7.187   0.252   6.888  0.7622 -0.6401  0.3582
  159DOPC   O1119128   7.075   0.091   6.736  0.1873  0.0680  0.4657
  159DOPC    C119129   7.145   0.147   6.618  0.7408 -1.0486  0.6568
  159DOPC    HA19130   7.228   0.076   6.599  0.5089 -1.1103 -0.1378
  159DOPC    HB19131   7.188   0.248   6.633  0.2547 -1.0677  2.5299
  159DOPC    C219132   7.062   0.131   6.481  0.4786  0.5331 -0.3648
  159DOPC    HS19133   7.114   0.183   6.397  0.0098 -0.2931 -1.1901
  159DOPC   O2119134   6.936   0.189   6.499 -0.1229 -0.1089  0.3422
  159DOPC   C2119135   6.941   0.325   6.506  0.2017  0.2473  0.6225
  159DOPC   O2219136   7.044   0.389   6.486 -0.1553 -0.3359  0.2899
  159DOPC   C2219137   6.797   0.385   6.521  0.1358  0.3437 -0.2424
  159DOPC   H2R19138   6.804   0.495   6.535 -1.8079  0.6418 -1.3120
  159DOPC   H2S19139   6.748   0.345   6.612  0.2373  0.5762 -0.0836
  159DOPC    C319140   7.046  -0.020   6.446 -0.0384 -0.4015  0.9224
  159DOPC    HX19141   6.994  -0.078   6.526  0.3876  0.6676  2.0157
  159DOPC    HY19142   7.144  -0.071   6.432 -0.2690 -0.5879 -0.0294
  159DOPC   O3119143   6.966  -0.037   6.322 -0.4957  0.4217  0.3158
  159DOPC   C3119144   6.958  -0.162   6.278 -0.4447 -0.1552  0.1942
  159DOPC   O3219145   7.011  -0.260   6.327 -0.1202 -0.3091 -0.1941
  159DOPC   C3219146   6.861  -0.177   6.162 -0.1602 -0.1619 -0.1862
  159DOPC   H2X19147   6.771  -0.229   6.201 -1.9695  2.1981 -1.0473
  159DOPC   H2Y19148   6.822  -0.078   6.132 -0.7443 -0.1186  0.6658
  159DOPC   C2319149   6.705   0.358   6.392 -0.4573  0.8276 -0.4218
  159DOPC   H3R19150   6.612   0.419   6.399  0.3010  2.0868 -0.9682
  159DOPC   H3S19151   6.679   0.252   6.374 -0.3539  1.0650 -2.2067
  159DOPC   C2419152   6.773   0.407   6.266 -0.1806  0.2705 -0.3923
  159DOPC   H4R19153   6.809   0.509   6.290  1.2022 -0.8285  2.7554
  159DOPC   H4S19154   6.695   0.402   6.187  0.7225 -0.9414 -1.2535
  159DOPC   C2519155   6.882   0.327   6.199 -0.1074 -0.2123  0.0355
  159DOPC   H5R19156   6.872   0.216   6.198  2.5272 -0.5125  0.1205
  159DOPC   H5S19157   6.975   0.335   6.259 -0.4145 -1.3658  0.7112
  159DOPC   C2619158   6.914   0.367   6.053  0.9636 -0.0571 -0.1863
  159DOPC   H6R19159   6.932   0.477   6.052  1.6193 -0.0182  3.1505
  159DOPC   H6S19160   6.828   0.352   5.984  0.4381  1.3969  0.1220
  159DOPC   C2719161   7.046   0.293   6.013  0.1901 -0.1473 -0.5035
  159DOPC   H7R19162   7.025   0.186   6.031  1.9576 -0.3467  0.5571
  159DOPC   H7S19163   7.137   0.310   6.074  1.5817 -3.7140 -1.3035
  159DOPC   C2819164   7.091   0.322   5.865 -0.0298 -0.2708 -0.6702
  159DOPC   H8R19165   7.096   0.433   5.855  1.4085 -0.1892  0.6178
  159DOPC   H8S19166   7.004   0.301   5.800  0.2333 -0.2556 -1.0288
  159DOPC   C2919167   7.208   0.233   5.837  0.2298  0.7621  1.1520
  159DOPC   H9R19168   7.212   0.136   5.889  2.0598 -0.5404 -1.2243
  159DOPC  C21019169   7.318   0.256   5.761  0.1515  0.3674 -0.0819
  159DOPC  H10R19170   7.376   0.168   5.730  1.0386  0.3468  1.5277
  159DOPC  C21119171   7.345   0.382   5.680  0.1663  0.0965 -0.0650
  159DOPC  H11R19172   7.448   0.418   5.702  0.9784 -1.6500 -0.8068
  159DOPC  H11S19173   7.274   0.463   5.708  0.7653  0.2411  1.0782
  159DOPC  C21219174   7.343   0.357   5.525 -0.3999  0.2960  0.3742
  159DOPC  H12R19175   7.354   0.455   5.474 -0.0149 -0.9479 -2.0283
  159DOPC  H12S19176   7.252   0.310   5.483  0.5468 -0.3712 -0.9761
  159DOPC  C21319177   7.455   0.268   5.470  0.2776 -0.7330  0.0441
  159DOPC  H13R19178   7.428   0.170   5.515 -1.3259  0.5430  2.0492
  159DOPC  H13S19179   7.557   0.298   5.502 -0.1495 -0.1945  0.9385
  159DOPC  C21419180   7.451   0.257   5.317 -0.2449  0.8197 -0.0920
  159DOPC  H14R19181   7.474   0.361   5.284  1.4328  1.1781  1.9687
  159DOPC  H14S19182   7.344   0.238   5.296 -0.2683  0.9806 -0.1167
  159DOPC  C21519183   7.529   0.140   5.257 -0.3405  0.0238 -0.4297
  159DOPC  H15R19184   7.485   0.047   5.299  2.4897 -0.9979  0.4852
  159DOPC  H15S19185   7.636   0.142   5.285 -0.5585 -2.4390  0.8337
  159DOPC  C21619186   7.518   0.134   5.102 -0.5170 -0.1599  0.0186
  159DOPC  H16R19187   7.545   0.237   5.071 -0.2624 -0.1169  0.3800
  159DOPC  H16S19188   7.411   0.108   5.088 -1.2799  3.2967 -1.6267
  159DOPC  C21719189   7.601   0.027   5.039  0.1984 -0.0675  0.1350
  159DOPC  H17R19190   7.575  -0.073   5.079 -1.5820  0.0450 -0.6675
  159DOPC  H17S19191   7.711   0.041   5.047  0.0236  1.5735  0.1228
  159DOPC  C21819192   7.574   0.027   4.886  0.2297 -0.0451  0.4104
  159DOPC  H18R19193   7.597   0.122   4.833  1.2081 -0.6367 -0.2561
  159DOPC  H18S19194   7.468  -0.002   4.864  0.3016 -0.5095  0.6487
  159DOPC  H18T19195   7.644  -0.038   4.829  1.1548  0.9260  0.4136
  159DOPC   C3319196   6.920  -0.256   6.037  0.3209 -0.3400 -0.3647
  159DOPC   H3X19197   6.837  -0.306   5.982 -0.1500 -0.4454  0.4149
  159DOPC   H3Y19198   6.989  -0.332   6.078  0.3334 -1.2267 -1.9551
  159DOPC   C3419199   6.994  -0.159   5.943  0.2081  0.8191  0.6972
  159DOPC   H4X19200   7.080  -0.119   6.001  0.9414  1.7721 -0.9546
  159DOPC   H4Y19201   6.940  -0.075   5.895 -2.7623  0.2231  2.7186
  159DOPC   C3519202   7.061  -0.236   5.830 -0.3273 -0.1763  0.3899
  159DOPC   H5X19203   7.115  -0.321   5.876  0.3402  0.3446  0.5720
  159DOPC   H5Y19204   7.138  -0.169   5.786 -1.5784  1.4545  0.5754
  159DOPC   C3619205   6.953  -0.265   5.730 -0.9931  0.2051 -0.0971
  159DOPC   H6X19206   6.884  -0.338   5.777 -1.7023  0.2129 -1.0793
  159DOPC   H6Y19207   6.903  -0.172   5.696  1.8209  1.5338 -0.9383
  159DOPC   C3719208   7.025  -0.313   5.601  0.4283  0.4456 -0.7538
  159DOPC   H7X19209   7.101  -0.233   5.586  1.4195 -0.4299 -0.5787
  159DOPC   H7Y19210   7.071  -0.413   5.613 -2.5775 -1.0498 -0.8171
  159DOPC   C3819211   6.924  -0.315   5.488 -0.6811 -0.6895  0.0001
  159DOPC   H8X19212   6.980  -0.332   5.393 -0.8844  1.1893 -0.4937
  159DOPC   H8Y19213   6.874  -0.216   5.490 -1.9106 -1.2028 -2.0726
  159DOPC   C3919214   6.825  -0.428   5.496  0.1480 -0.2191  0.1995
  159DOPC   H9X19215   6.734  -0.406   5.553 -0.8062 -1.8516 -0.6114
  159DOPC  C31019216   6.839  -0.545   5.440 -0.0246 -0.1681  0.3957
  159DOPC  H10X19217   6.770  -0.618   5.487 -0.6078  0.8626  1.1757
  159DOPC  C31119218   6.966  -0.603   5.373 -0.2295 -1.0639 -0.6924
  159DOPC  H11X19219   6.991  -0.702   5.417  1.5854 -0.3384 -0.0090
  159DOPC  H11Y19220   7.051  -0.534   5.391 -1.5774 -0.1682  3.0959
  159DOPC  C31219221   6.944  -0.624   5.220 -0.3834 -0.4118 -0.4962
  159DOPC  H12X19222   7.046  -0.633   5.178  0.4857 -0.2876  1.4973
  159DOPC  H12Y19223   6.910  -0.526   5.179  1.1839  0.8679  1.1139
  159DOPC  C31319224   6.848  -0.738   5.194 -0.2049 -0.2713  0.2935
  159DOPC  H13X19225   6.898  -0.834   5.220  0.6487  0.1726  0.2974
  159DOPC  H13Y19226   6.757  -0.726   5.257 -0.6492  1.0597 -0.5763
  159DOPC  C31419227   6.788  -0.738   5.053 -0.8979  0.6336  0.5255
  159DOPC  H14X19228   6.860  -0.715   4.971 -0.6069  0.8385  0.8369
  159DOPC  H14Y19229   6.750  -0.840   5.028 -0.5721  0.8011 -0.7500
  159DOPC  C31519230   6.673  -0.640   5.038 -0.5425  0.6529 -0.1376
  159DOPC  H15X19231   6.712  -0.539   5.064  1.0627 -0.4853  2.2988
  159DOPC  H15Y19232   6.589  -0.672   5.103  1.0260 -1.9573  0.7696
  159DOPC  C31619233   6.629  -0.637   4.890  0.0235 -0.0086 -0.2175
  159DOPC  H16X19234   6.706  -0.585   4.830  1.6460  0.3817  2.0842
  159DOPC  H16Y19235   6.614  -0.734   4.838 -1.0498  0.9522 -1.8146
  159DOPC  C31719236   6.494  -0.561   4.874 -0.0654 -0.9401  0.1015
  159DOPC  H17X19237   6.417  -0.607   4.940 -1.7266  2.3624  0.6886
  159DOPC  H17Y19238   6.511  -0.458   4.911  0.2345 -1.1576  0.5690
  159DOPC  C31819239   6.445  -0.563   4.734 -0.2553  0.1551  0.3774
  159DOPC  H18X19240   6.506  -0.501   4.665 -0.7502  0.2794  0.0438
  159DOPC  H18Y19241   6.442  -0.661   4.682 -2.3193  0.8907 -1.0048
  159DOPC  H18Z19242   6.341  -0.524   4.734 -0.3344 -0.0460  0.8487
  160DOPC     N19243   1.219   6.522   6.984 -0.5014 -0.3325 -0.0139
  160DOPC   C1219244   1.341   6.562   6.899  0.4401 -0.1914 -0.1575
  160DOPC  H12A19245   1.411   6.623   6.953 -1.1346 -0.7550  2.7234
  160DOPC  H12B19246   1.309   6.626   6.818  0.1849  0.2751  0.3040
  160DOPC   C1319247   1.113   6.467   6.900  0.4764 -0.0063  0.7294
  160DOPC  H13A19248   1.097   6.535   6.817 -2.4210 -2.9363 -1.3448
  160DOPC  H13B19249   1.155   6.375   6.863  2.9686  0.7599  1.4429
  160DOPC  H13C19250   1.022   6.453   6.955  0.1455 -0.8945 -0.0268
  160DOPC   C1419251   1.159   6.641   7.052  0.0823 -0.3065 -0.6016
  160DOPC  H14A19252   1.090   6.615   7.132 -0.7163  0.4801 -1.0186
  160DOPC  H14B19253   1.239   6.694   7.101 -2.0096  2.8388 -0.2788
  160DOPC  H14C19254   1.102   6.709   6.990 -0.6943 -0.3054  0.0906
  160DOPC   C1519255   1.252   6.418   7.091  0.0136 -0.3623  0.7136
  160DOPC  H15A19256   1.325   6.455   7.161  0.0005  1.7533 -0.2805
  160DOPC  H15B19257   1.295   6.326   7.055 -1.5012 -0.6513 -0.4909
  160DOPC  H15C19258   1.165   6.398   7.151 -1.1038 -1.1198 -1.0705
  160DOPC   C1119259   1.423   6.453   6.825 -0.2362 -0.1179  0.0644
  160DOPC  H11A19260   1.368   6.357   6.819  0.7795 -0.7265  0.2774
  160DOPC  H11B19261   1.433   6.460   6.715 -2.1320 -2.8727 -0.3950
  160DOPC     P19262   1.662   6.527   6.880  0.1045  0.3211 -0.4547
  160DOPC   O1319263   1.711   6.545   7.015 -0.0006  0.1181  0.0332
  160DOPC   O1419264   1.621   6.655   6.815  0.8070  0.1034 -0.3226
  160DOPC   O1219265   1.545   6.425   6.893  0.1507 -0.1998 -0.6576
  160DOPC   O1119266   1.771   6.461   6.791 -0.6279  0.2155  0.4322
  160DOPC    C119267   1.760   6.320   6.754 -0.2947 -0.0901 -0.6251
  160DOPC    HA19268   1.663   6.284   6.713 -0.6310 -1.4296  1.2182
  160DOPC    HB19269   1.783   6.267   6.849  1.4139  2.1735  0.3208
  160DOPC    C219270   1.876   6.267   6.654 -0.0604  0.5339 -0.2760
  160DOPC    HS19271   1.970   6.282   6.711 -1.0015  1.1004  1.1937
  160DOPC   O2119272   1.870   6.332   6.525  0.1495 -0.1917  0.1469
  160DOPC   C2119273   1.934   6.446   6.523 -0.4123 -0.5373 -0.3056
  160DOPC   O2219274   2.014   6.486   6.598 -0.1071  0.0652 -0.1573
  160DOPC   C2219275   1.887   6.524   6.394 -0.1812  1.4828 -0.0869
  160DOPC   H2R19276   1.976   6.583   6.362 -0.2716  1.0480 -1.1882
  160DOPC   H2S19277   1.802   6.588   6.428 -0.2971  0.8342  0.8880
  160DOPC    C319278   1.854   6.117   6.634 -0.1447  0.1579 -0.4909
  160DOPC    HX19279   1.750   6.101   6.598 -0.2774 -1.5197  0.5633
  160DOPC    HY19280   1.868   6.066   6.731 -0.0852  1.5748  0.2701
  160DOPC   O3119281   1.945   6.070   6.530 -0.1230 -0.3472  0.0567
  160DOPC   C3119282   2.065   6.019   6.562 -0.0690 -0.1180  0.4955
  160DOPC   O3219283   2.111   6.004   6.676  0.3513  0.1744  0.2113
  160DOPC   C3219284   2.138   5.987   6.429 -0.1468 -0.1660  0.6348
  160DOPC   H2X19285   2.063   5.930   6.369  1.9958 -1.2980 -1.0966
  160DOPC   H2Y19286   2.157   6.085   6.379  1.1835 -1.2985 -1.1972
  160DOPC   C2319287   1.846   6.453   6.272 -0.1221 -0.0551 -0.0904
  160DOPC   H3R19288   1.782   6.365   6.298 -2.6906  1.4220 -1.0967
  160DOPC   H3S19289   1.927   6.405   6.212 -1.7694 -1.3631 -1.3675
  160DOPC   C2419290   1.777   6.545   6.169  0.1781 -0.2669  0.0183
  160DOPC   H4R19291   1.834   6.640   6.156  1.4838 -1.3067 -2.6691
  160DOPC   H4S19292   1.676   6.583   6.196 -0.8153 -1.3907 -1.8599
  160DOPC   C2519293   1.766   6.482   6.027 -0.2303  0.3386  1.0898
  160DOPC   H5R19294   1.730   6.377   6.019  1.1875 -0.1423  0.6452
  160DOPC   H5S19295   1.873   6.478   5.995 -0.6281  1.9141 -0.6054
  160DOPC   C2619296   1.695   6.561   5.918 -0.5601 -0.2769 -0.2984
  160DOPC   H6R19297   1.758   6.653   5.914 -1.4381  0.3019 -2.2484
  160DOPC   H6S19298   1.595   6.576   5.963 -1.6198 -0.5595 -2.4167
  160DOPC   C2719299   1.690   6.495   5.785  0.2302 -0.0801  0.5118
  160DOPC   H7R19300   1.639   6.560   5.711 -1.4484 -3.5132 -1.6185
  160DOPC   H7S19301   1.616   6.412   5.796 -0.0766  0.1894  0.4921
  160DOPC   C2819302   1.826   6.448   5.732 -0.4005  0.3755  0.3252
  160DOPC   H8R19303   1.870   6.372   5.800 -1.9816 -0.8223  0.0647
  160DOPC   H8S19304   1.893   6.536   5.734 -1.0411  0.9512 -1.5409
  160DOPC   C2919305   1.819   6.400   5.588  0.6312  0.1914  0.0413
  160DOPC   H9R19306   1.735   6.441   5.530 -0.0759  0.1631  1.0156
  160DOPC  C21019307   1.892   6.293   5.547 -0.1854  0.0607  0.7120
  160DOPC  H10R19308   1.888   6.273   5.440 -0.6308 -0.7305  0.8745
  160DOPC  C21119309   2.008   6.220   5.612 -0.0116  0.7936 -0.1260
  160DOPC  H11R19310   1.977   6.117   5.636  1.4274  0.3527 -0.0783
  160DOPC  H11S19311   2.048   6.263   5.706  0.9100 -1.2096  0.4378
  160DOPC  C21219312   2.120   6.236   5.510  0.4921 -0.2874 -0.7759
  160DOPC  H12R19313   2.083   6.187   5.417 -1.4090  2.8708 -1.8497
  160DOPC  H12S19314   2.207   6.179   5.549  0.7417  0.2047 -0.6055
  160DOPC  C21319315   2.162   6.378   5.457 -0.3880 -1.5974 -0.1251
  160DOPC  H13R19316   2.168   6.439   5.549  0.1980 -0.3651 -0.9619
  160DOPC  H13S19317   2.087   6.427   5.392  1.5165  1.8078 -0.0080
  160DOPC  C21419318   2.294   6.380   5.376  0.3113 -0.7618 -0.1558
  160DOPC  H14R19319   2.276   6.320   5.285 -1.0384 -2.0861  0.9346
  160DOPC  H14S19320   2.377   6.339   5.437  2.3972  3.9224  0.6485
  160DOPC  C21519321   2.322   6.532   5.336 -0.0790  0.5357  0.0412
  160DOPC  H15R19322   2.426   6.559   5.365  0.4183  0.7677 -1.7892
  160DOPC  H15S19323   2.255   6.598   5.395  0.8593  1.5836 -0.0309
  160DOPC  C21619324   2.315   6.553   5.182  0.7376 -0.7531  0.0063
  160DOPC  H16R19325   2.380   6.475   5.134 -0.2780 -1.1744 -0.7202
  160DOPC  H16S19326   2.354   6.656   5.167  0.6678 -0.5088  1.4176
  160DOPC  C21719327   2.170   6.553   5.135  0.5653 -0.2659 -0.7396
  160DOPC  H17R19328   2.110   6.643   5.163 -0.1895 -1.0125  0.0885
  160DOPC  H17S19329   2.114   6.468   5.178  0.9045  0.1784  0.6296
  160DOPC  C21819330   2.155   6.538   4.976  0.8434  0.5412 -0.0705
  160DOPC  H18R19331   2.049   6.511   4.953  0.6714  1.4220 -0.3446
  160DOPC  H18S19332   2.207   6.444   4.948  0.3018  0.0835  0.4527
  160DOPC  H18T19333   2.182   6.627   4.914 -1.6944  1.1307 -0.4392
  160DOPC   C3319334   2.266   5.906   6.435  0.6667 -0.1940  1.1565
  160DOPC   H3X19335   2.257   5.811   6.493 -0.7726 -0.7708  0.0531
  160DOPC   H3Y19336   2.346   5.965   6.484  0.8135 -0.4362  1.2115
  160DOPC   C3419337   2.325   5.865   6.298  0.5847  0.9720  0.4814
  160DOPC   H4X19338   2.323   5.960   6.241 -1.6454  0.1833 -0.8872
  160DOPC   H4Y19339   2.265   5.787   6.248  0.5312  0.0139  1.9616
  160DOPC   C3519340   2.466   5.817   6.315 -0.3161  0.6634 -0.2758
  160DOPC   H5X19341   2.479   5.731   6.384  0.1448  0.3223 -0.7741
  160DOPC   H5Y19342   2.526   5.894   6.368 -0.6288 -0.0982  1.2392
  160DOPC   C3619343   2.514   5.776   6.177 -0.3118  0.6758 -0.3145
  160DOPC   H6X19344   2.464   5.683   6.143 -0.2073  0.4372  0.1660
  160DOPC   H6Y19345   2.484   5.855   6.105  1.0709  1.0388 -0.5145
  160DOPC   C3719346   2.660   5.754   6.158  0.3545  1.0169 -0.3093
  160DOPC   H7X19347   2.734   5.837   6.163  1.9034 -0.3702  1.1661
  160DOPC   H7Y19348   2.690   5.684   6.239  0.1329  0.2231 -0.9070
  160DOPC   C3819349   2.686   5.685   6.023  0.6101 -0.6652  0.4429
  160DOPC   H8X19350   2.633   5.742   5.943 -2.1864 -1.7889  1.3891
  160DOPC   H8Y19351   2.649   5.580   6.023  1.6709 -1.0710 -0.6528
  160DOPC   C3919352   2.836   5.665   5.987  0.4992  0.7736 -0.1900
  160DOPC   H9X19353   2.890   5.620   6.073 -0.9820 -0.1242  0.3041
  160DOPC  C31019354   2.897   5.702   5.879  0.2751  0.2479  0.1848
  160DOPC  H10X19355   3.002   5.677   5.861 -0.2170 -0.6046 -1.8571
  160DOPC  C31119356   2.829   5.774   5.759 -0.4621  0.4105  0.0428
  160DOPC  H11X19357   2.878   5.872   5.741  0.0332  0.4561  1.4419
  160DOPC  H11Y19358   2.720   5.793   5.775 -0.7839 -0.9870 -0.3460
  160DOPC  C31219359   2.836   5.692   5.623 -0.4937 -0.2600 -0.0770
  160DOPC  H12X19360   2.798   5.588   5.634 -0.6852 -0.3148 -1.1585
  160DOPC  H12Y19361   2.941   5.688   5.587 -1.1034 -0.9821 -1.8646
  160DOPC  C31319362   2.748   5.762   5.521 -0.2589  0.0601 -0.3775
  160DOPC  H13X19363   2.732   5.689   5.439 -0.8288 -1.0720  0.7010
  160DOPC  H13Y19364   2.650   5.764   5.572  1.3029 -0.8221  2.9924
  160DOPC  C31419365   2.802   5.895   5.473 -0.6452 -0.7194  0.8510
  160DOPC  H14X19366   2.836   5.956   5.559 -0.0649  0.5104 -0.2062
  160DOPC  H14Y19367   2.891   5.871   5.410 -0.7783 -1.0932  0.8023
  160DOPC  C31519368   2.706   5.983   5.395 -0.3663 -0.1656  0.0246
  160DOPC  H15X19369   2.602   5.967   5.432  0.0083  3.0151  2.9591
  160DOPC  H15Y19370   2.712   5.946   5.291 -0.7629 -2.4703  0.7528
  160DOPC  C31619371   2.726   6.135   5.426 -0.4214  0.3563  0.6810
  160DOPC  H16X19372   2.633   6.185   5.392 -0.7603 -0.6096  0.1601
  160DOPC  H16Y19373   2.735   6.144   5.536 -2.1763 -2.4916  1.1573
  160DOPC  C31719374   2.852   6.187   5.350  0.9666 -0.0592  1.2289
  160DOPC  H17X19375   2.880   6.277   5.410 -1.4728  1.2915  0.4820
  160DOPC  H17Y19376   2.936   6.115   5.359  0.9800  0.0720  2.3042
  160DOPC  C31819377   2.828   6.225   5.201 -0.2460 -0.3136 -0.5670
  160DOPC  H18X19378   2.759   6.310   5.181  0.8088  1.2315  1.9242
  160DOPC  H18Y19379   2.918   6.275   5.159 -0.5081  1.7568  1.1329
  160DOPC  H18Z19380   2.793   6.134   5.148  0.0896 -1.7293  1.5361
  161DOPC     N19381   4.607   6.282   7.509  0.0384 -0.0755  0.4552
  161DOPC   C1219382   4.705   6.329   7.391  0.0471 -0.5876  0.6133
  161DOPC  H12A19383   4.805   6.299   7.418  0.7982  1.4794  0.3203
  161DOPC  H12B19384   4.712   6.436   7.391  1.0737 -0.6175 -1.0764
  161DOPC   C1319385   4.465   6.331   7.484 -0.4053 -0.2765 -0.1319
  161DOPC  H13A19386   4.400   6.279   7.553  0.6744 -0.2671  0.9330
  161DOPC  H13B19387   4.459   6.435   7.510 -0.3218 -0.6869  1.6541
  161DOPC  H13C19388   4.434   6.319   7.381  3.0424 -0.0309 -1.3552
  161DOPC   C1419389   4.661   6.336   7.640 -0.0402  0.6276  0.2012
  161DOPC  H14A19390   4.584   6.311   7.711 -1.1984 -0.5522 -1.4238
  161DOPC  H14B19391   4.750   6.288   7.679 -0.4563 -1.0750 -0.8845
  161DOPC  H14C19392   4.670   6.444   7.638 -1.5795  0.7657 -1.2949
  161DOPC   C1519393   4.612   6.136   7.509 -0.0956  0.3651 -0.1389
  161DOPC  H15A19394   4.564   6.094   7.596 -0.5353 -0.1274 -0.6067
  161DOPC  H15B19395   4.713   6.098   7.507 -0.6676 -1.2169 -0.6653
  161DOPC  H15C19396   4.556   6.105   7.422  0.4720  0.0535 -0.4023
  161DOPC   C1119397   4.665   6.301   7.244 -1.2581  0.0478  0.6755
  161DOPC  H11A19398   4.747   6.310   7.170 -0.2283  0.2043  1.8112
  161DOPC  H11B19399   4.644   6.192   7.241 -1.4587  0.1072 -0.9907
  161DOPC     P19400   4.552   6.504   7.119 -0.0881 -0.3725 -0.2025
  161DOPC   O1319401   4.622   6.599   7.200  0.7888  0.1557  0.3568
  161DOPC   O1419402   4.412   6.532   7.079  0.5973 -0.1270  0.5031
  161DOPC   O1219403   4.547   6.372   7.208  0.3029 -0.7977  0.3208
  161DOPC   O1119404   4.633   6.452   6.995  0.0057 -0.0043  0.3308
  161DOPC    C119405   4.617   6.327   6.918  0.0614 -1.2202 -0.1653
  161DOPC    HA19406   4.556   6.247   6.965 -0.9286  0.5248  1.6403
  161DOPC    HB19407   4.721   6.290   6.905  0.2466 -1.0023  0.6734
  161DOPC    C219408   4.569   6.354   6.770 -0.0209 -0.4162  0.3890
  161DOPC    HS19409   4.632   6.435   6.728 -1.3368  1.4384  1.7836
  161DOPC   O2119410   4.429   6.401   6.779 -0.4374 -0.3641 -0.2072
  161DOPC   C2119411   4.405   6.521   6.739  0.3442 -0.0817  0.4892
  161DOPC   O2219412   4.476   6.613   6.712 -0.3290 -0.6504  0.0707
  161DOPC   C2219413   4.254   6.531   6.736 -0.9434 -0.5583 -0.0652
  161DOPC   H2R19414   4.226   6.548   6.842 -0.7809 -0.2394 -0.0720
  161DOPC   H2S19415   4.209   6.434   6.706  1.2971 -1.2755 -1.3261
  161DOPC    C319416   4.585   6.217   6.692 -0.5742 -0.1475  0.3621
  161DOPC    HX19417   4.520   6.136   6.732  0.4646 -1.7253 -0.9944
  161DOPC    HY19418   4.685   6.175   6.714  0.1884  0.2548 -2.1120
  161DOPC   O3119419   4.563   6.236   6.556 -0.5811  0.1655 -0.1016
  161DOPC   C3119420   4.646   6.301   6.483 -0.9147 -0.0372  0.6504
  161DOPC   O3219421   4.747   6.361   6.519 -1.2596 -0.1145 -0.5029
  161DOPC   C3219422   4.574   6.317   6.340 -0.0331  0.2578 -0.5641
  161DOPC   H2X19423   4.534   6.217   6.312 -0.1992  0.2017 -0.1384
  161DOPC   H2Y19424   4.487   6.385   6.348  0.2096  0.3983  1.4079
  161DOPC   C2319425   4.212   6.651   6.645 -0.0146  0.3226 -0.7136
  161DOPC   H3R19426   4.277   6.740   6.658 -1.9327  1.7285 -0.3806
  161DOPC   H3S19427   4.115   6.692   6.680  0.8795  1.6464  0.3103
  161DOPC   C2419428   4.204   6.606   6.498 -0.1845 -0.2346 -0.8669
  161DOPC   H4R19429   4.186   6.497   6.498  0.3581 -0.3401  0.1278
  161DOPC   H4S19430   4.300   6.618   6.443  1.2104 -0.9876  1.2789
  161DOPC   C2519431   4.091   6.671   6.416  0.0198 -0.1243 -0.2798
  161DOPC   H5R19432   4.093   6.777   6.449  0.2114 -0.4769  0.8713
  161DOPC   H5S19433   3.996   6.622   6.445  0.0479  0.1659  0.3056
  161DOPC   C2619434   4.109   6.660   6.265 -0.2656 -0.9693  0.0925
  161DOPC   H6R19435   4.176   6.741   6.230 -0.8433  0.4900  2.1458
  161DOPC   H6S19436   4.013   6.664   6.209  0.7946 -0.8647 -1.7985
  161DOPC   C2719437   4.172   6.532   6.222  0.1972  0.0205 -0.5802
  161DOPC   H7R19438   4.104   6.453   6.261  0.6745  0.4984  1.3225
  161DOPC   H7S19439   4.276   6.523   6.260  0.0526 -0.1271 -0.2145
  161DOPC   C2819440   4.175   6.525   6.069 -0.0614  0.5570  0.3641
  161DOPC   H8R19441   4.067   6.526   6.041 -0.1185  0.4443  0.5742
  161DOPC   H8S19442   4.213   6.422   6.059  0.0257  0.3192  2.5001
  161DOPC   C2919443   4.257   6.632   5.992  0.7226  0.3557 -0.6881
  161DOPC   H9R19444   4.339   6.688   6.039  0.4054 -0.3758  0.7900
  161DOPC  C21019445   4.214   6.681   5.872 -0.1600  0.3221  0.6806
  161DOPC  H10R19446   4.274   6.752   5.814  0.7061 -1.1670 -0.3107
  161DOPC  C21119447   4.096   6.629   5.789  0.1932  0.2334 -1.0767
  161DOPC  H11R19448   4.015   6.702   5.812  1.1271  1.1705 -0.6829
  161DOPC  H11S19449   4.054   6.536   5.832  0.1338  1.1097  0.8583
  161DOPC  C21219450   4.118   6.615   5.644  0.1436  0.2149  0.3686
  161DOPC  H12R19451   4.202   6.543   5.632  0.1326  0.4634 -1.5947
  161DOPC  H12S19452   4.156   6.711   5.602  0.3489  0.4989  1.1756
  161DOPC  C21319453   3.998   6.559   5.565 -0.1346 -0.0104 -0.0642
  161DOPC  H13R19454   3.949   6.477   5.622 -0.6986 -0.4169 -1.1146
  161DOPC  H13S19455   4.044   6.513   5.475 -0.3451  1.3477 -0.8869
  161DOPC  C21419456   3.882   6.652   5.518 -0.1175  0.7551  0.1982
  161DOPC  H14R19457   3.852   6.716   5.602 -0.4203 -0.7132  1.2541
  161DOPC  H14S19458   3.789   6.596   5.494 -0.8228  2.4884 -1.3251
  161DOPC  C21519459   3.929   6.747   5.404  0.2626 -0.0994 -0.6734
  161DOPC  H15R19460   3.983   6.694   5.322  1.1067 -0.0593 -0.1538
  161DOPC  H15S19461   3.995   6.819   5.456 -0.2759  0.8843 -1.3325
  161DOPC  C21619462   3.815   6.826   5.340  0.2021 -0.7430  0.3150
  161DOPC  H16R19463   3.750   6.882   5.411 -1.1350 -2.5053  0.5604
  161DOPC  H16S19464   3.736   6.763   5.293 -1.0526  0.2342  1.0489
  161DOPC  C21719465   3.880   6.903   5.226 -0.2116 -0.1694 -0.4934
  161DOPC  H17R19466   3.943   6.834   5.166  1.9746  2.2647 -1.1759
  161DOPC  H17S19467   3.945   6.981   5.271  1.0184 -0.8685 -1.0213
  161DOPC  C21819468   3.777   6.969   5.135 -0.7042  0.1718 -0.6368
  161DOPC  H18R19469   3.826   7.047   5.073  0.9242  1.6357  2.2766
  161DOPC  H18S19470   3.706   7.029   5.195 -0.8353  1.5065 -2.0691
  161DOPC  H18T19471   3.722   6.896   5.071 -2.6167 -1.8916  3.0258
  161DOPC   C3319472   4.682   6.375   6.247  0.8982  0.3924 -0.1639
  161DOPC   H3X19473   4.781   6.332   6.272  0.6034 -0.3958 -0.3221
  161DOPC   H3Y19474   4.680   6.486   6.252  1.2152  0.3933 -0.1003
  161DOPC   C3419475   4.662   6.311   6.107  0.2096  0.0079 -0.1159
  161DOPC   H4X19476   4.566   6.352   6.068 -0.3919 -1.1400  0.1014
  161DOPC   H4Y19477   4.653   6.201   6.121  0.0969 -0.1280 -1.1718
  161DOPC   C3519478   4.766   6.347   6.001  0.1342 -0.1198 -0.1433
  161DOPC   H5X19479   4.769   6.274   5.918 -2.9513  0.6383 -1.0571
  161DOPC   H5Y19480   4.867   6.344   6.047 -0.0474 -1.3548  0.1991
  161DOPC   C3619481   4.739   6.488   5.947  0.5443  0.0561  0.2187
  161DOPC   H6X19482   4.749   6.565   6.026 -0.4118  1.0456 -0.5795
  161DOPC   H6Y19483   4.821   6.504   5.874  1.8590 -2.3660  1.0784
  161DOPC   C3719484   4.599   6.523   5.888  0.1862 -0.2404 -0.4537
  161DOPC   H7X19485   4.527   6.534   5.972 -0.3353  0.3856 -0.9810
  161DOPC   H7Y19486   4.609   6.620   5.837 -3.1908  1.8248  2.3433
  161DOPC   C3819487   4.550   6.412   5.789 -0.1897  0.3053 -0.0668
  161DOPC   H8X19488   4.447   6.426   5.751 -1.4449 -1.2791  2.4448
  161DOPC   H8Y19489   4.539   6.315   5.843  0.5718 -0.4525 -1.2389
  161DOPC   C3919490   4.654   6.390   5.680  0.0021  0.5483  0.5835
  161DOPC   H9X19491   4.736   6.325   5.714 -0.4642  0.6589  1.9976
  161DOPC  C31019492   4.655   6.468   5.567  0.0611 -1.1279 -0.6129
  161DOPC  H10X19493   4.719   6.449   5.480  0.1459  0.9384 -1.0441
  161DOPC  C31119494   4.546   6.561   5.527 -0.0309 -0.6452 -0.5370
  161DOPC  H11X19495   4.591   6.662   5.515 -1.2803 -0.0018  0.0276
  161DOPC  H11Y19496   4.456   6.562   5.592 -0.5615 -1.5388 -1.2319
  161DOPC  C31219497   4.477   6.538   5.389  0.0700  0.2985  0.0977
  161DOPC  H12X19498   4.393   6.609   5.375 -0.4340 -0.0115  1.4816
  161DOPC  H12Y19499   4.438   6.434   5.381  1.6415 -0.4275  1.2982
  161DOPC  C31319500   4.579   6.561   5.275  0.7528  0.3084  0.1672
  161DOPC  H13X19501   4.645   6.472   5.267 -0.0245 -0.2917  0.2414
  161DOPC  H13Y19502   4.523   6.562   5.179 -1.1087  2.6585  1.1908
  161DOPC  C31419503   4.654   6.689   5.282  0.0552 -0.8696  0.1999
  161DOPC  H14X19504   4.588   6.774   5.308  1.3703  0.1174  0.4072
  161DOPC  H14Y19505   4.744   6.689   5.347  1.9256  1.1418 -2.2018
  161DOPC  C31519506   4.707   6.726   5.147 -0.3461 -0.2562  0.4255
  161DOPC  H15X19507   4.631   6.751   5.070 -1.1868 -1.9362  0.6802
  161DOPC  H15Y19508   4.780   6.652   5.110 -2.2197 -2.1455  0.3475
  161DOPC  C31619509   4.790   6.861   5.157  0.1735  0.2176  0.2584
  161DOPC  H16X19510   4.730   6.944   5.200  0.6044  0.7117 -0.0971
  161DOPC  H16Y19511   4.874   6.847   5.229 -1.0386  0.6332  1.8311
  161DOPC  C31719512   4.851   6.904   5.026 -0.2197 -0.3437 -0.3754
  161DOPC  H17X19513   4.775   6.915   4.946  0.8336  0.2436 -1.3455
  161DOPC  H17Y19514   4.910   6.995   5.052  0.4901 -1.0895  0.7223
  161DOPC  C31819515   4.963   6.808   4.975 -0.2277 -0.2892  0.6751
  161DOPC  H18X19516   4.997   6.843   4.875  0.0128 -2.1450  0.0748
  161DOPC  H18Y19517   5.052   6.800   5.041  0.5672  1.8507 -0.0496
  161DOPC  H18Z19518   4.911   6.711   4.961  1.6746 -1.3593  0.6271
  162DOPC     N19519   1.514   4.973   7.282  0.4537  0.1724  0.6210
  162DOPC   C1219520   1.647   4.968   7.343 -0.7570 -0.2874 -0.5377
  162DOPC  H12A19521   1.661   4.865   7.373 -1.2217 -0.1059  0.3297
  162DOPC  H12B19522   1.641   5.015   7.440 -1.2449 -3.5857  1.1724
  162DOPC   C1319523   1.504   4.867   7.176  0.4627 -0.2029  0.1755
  162DOPC  H13A19524   1.571   4.785   7.194 -1.6166 -2.2931 -1.0576
  162DOPC  H13B19525   1.409   4.816   7.171  0.3139 -0.0968  1.6000
  162DOPC  H13C19526   1.529   4.903   7.077 -1.4629 -0.4224 -0.4195
  162DOPC   C1419527   1.479   5.107   7.233 -0.0795  0.5549  0.0616
  162DOPC  H14A19528   1.551   5.128   7.156 -1.5714  2.6261 -0.8689
  162DOPC  H14B19529   1.381   5.109   7.187  0.4003  2.1951 -0.9491
  162DOPC  H14C19530   1.491   5.188   7.303  1.9193  0.3029  0.0698
  162DOPC   C1519531   1.409   4.949   7.386  0.9387 -0.1551  0.1595
  162DOPC  H15A19532   1.427   4.855   7.435 -1.1284 -1.9888 -2.2914
  162DOPC  H15B19533   1.309   4.940   7.344  1.0156 -0.9838  0.1371
  162DOPC  H15C19534   1.415   5.022   7.465  0.8701 -0.3935  0.3862
  162DOPC   C1119535   1.767   5.026   7.261 -0.2504 -0.3139 -0.2845
  162DOPC  H11A19536   1.855   4.997   7.322 -0.9535  1.7152  1.8188
  162DOPC  H11B19537   1.769   4.970   7.165  1.5426  0.9462 -1.0354
  162DOPC     P19538   1.856   5.218   7.136 -0.1712  0.0434 -0.3296
  162DOPC   O1319539   1.981   5.140   7.142 -0.0287  0.2398 -0.2675
  162DOPC   O1419540   1.871   5.366   7.147  0.0456 -0.3569  0.1233
  162DOPC   O1219541   1.759   5.167   7.248 -0.3277 -0.2306 -0.0739
  162DOPC   O1119542   1.782   5.194   6.998 -0.1326  0.2370 -0.0362
  162DOPC    C119543   1.649   5.243   6.968  0.1096 -0.2363 -0.2634
  162DOPC    HA19544   1.610   5.306   7.051 -1.1094 -3.1497  1.5164
  162DOPC    HB19545   1.572   5.163   6.958  0.4506 -0.3596 -2.2797
  162DOPC    C219546   1.646   5.335   6.839 -0.4038  1.2354  0.9330
  162DOPC    HS19547   1.560   5.405   6.844 -0.9844  0.5248  1.0222
  162DOPC   O2119548   1.628   5.245   6.727 -0.2082 -0.0677 -0.3233
  162DOPC   C2119549   1.499   5.211   6.706  0.3876  0.5834  0.2259
  162DOPC   O2219550   1.407   5.263   6.761 -0.5748  0.0371 -0.4639
  162DOPC   C2219551   1.481   5.096   6.607  0.0239 -0.2797  0.5634
  162DOPC   H2R19552   1.383   5.127   6.564 -0.4615  0.7832  2.3672
  162DOPC   H2S19553   1.465   4.994   6.649 -1.8851  0.2231  1.1477
  162DOPC    C319554   1.787   5.408   6.826 -0.4359 -0.8021  0.1030
  162DOPC    HX19555   1.863   5.327   6.813 -1.1773 -1.2339 -2.0171
  162DOPC    HY19556   1.814   5.464   6.918  1.2222 -0.1914 -0.6996
  162DOPC   O3119557   1.806   5.493   6.709  0.1372  0.0780 -0.3438
  162DOPC   C3119558   1.734   5.602   6.711 -0.3027 -0.1004  0.2017
  162DOPC   O3219559   1.626   5.617   6.776 -0.1542 -0.3907  0.6561
  162DOPC   C3219560   1.791   5.697   6.599  0.3167  0.0269 -0.1294
  162DOPC   H2X19561   1.714   5.701   6.519  0.5782 -0.8382 -0.4382
  162DOPC   H2Y19562   1.800   5.797   6.647  1.0922 -0.2818  0.3880
  162DOPC   C2319563   1.585   5.096   6.483 -1.0035  0.0238 -0.3780
  162DOPC   H3R19564   1.672   5.040   6.523  0.4090  2.0515 -0.4591
  162DOPC   H3S19565   1.620   5.199   6.463  1.3436 -0.8151 -0.9477
  162DOPC   C2419566   1.523   5.034   6.359  0.5234  0.6252 -0.0413
  162DOPC   H4R19567   1.428   5.078   6.320 -0.1653 -1.0067 -0.2765
  162DOPC   H4S19568   1.490   4.929   6.370  0.3413  0.4734 -1.6818
  162DOPC   C2519569   1.632   5.035   6.252 -0.3214  0.6475 -0.8489
  162DOPC   H5R19570   1.715   4.993   6.312 -1.9129  0.0221  1.0535
  162DOPC   H5S19571   1.663   5.133   6.211 -0.1272 -0.7989 -4.5168
  162DOPC   C2619572   1.601   4.939   6.134  0.2779  0.0663  0.2247
  162DOPC   H6R19573   1.576   4.839   6.173  0.4981 -0.6027 -1.2743
  162DOPC   H6S19574   1.695   4.924   6.076 -0.6782  0.0667 -1.3963
  162DOPC   C2719575   1.491   4.995   6.042 -0.4866  0.0864  0.0649
  162DOPC   H7R19576   1.509   5.101   6.016 -0.8087  0.4189  1.1381
  162DOPC   H7S19577   1.402   4.990   6.108 -2.1839  1.1813 -2.0082
  162DOPC   C2819578   1.472   4.932   5.905  0.1093  0.5815  0.5833
  162DOPC   H8R19579   1.382   4.974   5.857  0.4164 -0.8265 -1.3378
  162DOPC   H8S19580   1.466   4.824   5.931 -0.0079  0.1786 -1.0065
  162DOPC   C2919581   1.595   4.949   5.818 -0.0175  0.4348 -0.1935
  162DOPC   H9R19582   1.683   4.921   5.877 -0.3148 -1.7742 -0.7218
  162DOPC  C21019583   1.606   4.978   5.686 -0.2110 -0.3877 -0.3154
  162DOPC  H10R19584   1.705   4.998   5.642 -1.0975  4.3085 -0.7556
  162DOPC  C21119585   1.500   5.014   5.591  0.2165 -0.3319 -0.2962
  162DOPC  H11R19586   1.408   5.054   5.638  0.5365 -1.5985  1.5407
  162DOPC  H11S19587   1.469   4.922   5.538 -0.1962  0.0580 -0.7444
  162DOPC  C21219588   1.526   5.118   5.485 -0.5219  1.2713 -0.2251
  162DOPC  H12R19589   1.618   5.075   5.440  0.7944  1.5488  2.0340
  162DOPC  H12S19590   1.528   5.225   5.514 -2.7872  0.9321  1.4586
  162DOPC  C21319591   1.408   5.104   5.385  0.2790  0.2305 -1.1953
  162DOPC  H13R19592   1.314   5.110   5.443 -0.6110 -2.2539 -2.2363
  162DOPC  H13S19593   1.397   4.997   5.356 -0.1267 -0.6553  1.8650
  162DOPC  C21419594   1.407   5.210   5.274 -0.0525  0.2496 -0.2962
  162DOPC  H14R19595   1.495   5.210   5.205 -2.8321  2.3233 -4.2517
  162DOPC  H14S19596   1.408   5.313   5.316  2.8275 -0.6601  2.2238
  162DOPC  C21519597   1.281   5.188   5.188  0.2238  0.3581 -0.6148
  162DOPC  H15R19598   1.209   5.133   5.253 -1.3560  2.1803 -0.7093
  162DOPC  H15S19599   1.311   5.128   5.100 -0.8035  1.0227 -1.4366
  162DOPC  C21619600   1.203   5.318   5.143  0.7611 -0.2269  0.4834
  162DOPC  H16R19601   1.169   5.383   5.227 -0.3616  0.2945 -0.3376
  162DOPC  H16S19602   1.116   5.277   5.088 -0.4820  2.4055  0.3004
  162DOPC  C21719603   1.281   5.429   5.062  0.9894  0.0463 -0.0597
  162DOPC  H17R19604   1.369   5.464   5.120 -0.3916  0.1508  2.1035
  162DOPC  H17S19605   1.215   5.519   5.061 -0.6042 -1.0705 -1.5460
  162DOPC  C21819606   1.320   5.387   4.918  0.1752 -0.1157 -0.5235
  162DOPC  H18R19607   1.228   5.374   4.858 -1.3636  2.5437  1.0505
  162DOPC  H18S19608   1.390   5.301   4.927 -0.3540 -0.5502 -0.5308
  162DOPC  H18T19609   1.377   5.474   4.878 -0.1674  0.5949  0.5074
  162DOPC   C3319610   1.927   5.660   6.539 -0.1421 -0.1724 -0.1582
  162DOPC   H3X19611   2.005   5.632   6.614 -0.1562  0.0931 -0.0453
  162DOPC   H3Y19612   1.956   5.741   6.469  1.2888 -0.6672 -0.1784
  162DOPC   C3419613   1.911   5.542   6.447 -0.4232 -0.5802  0.5860
  162DOPC   H4X19614   1.810   5.543   6.400  0.5636  1.1131 -1.6753
  162DOPC   H4Y19615   1.904   5.452   6.513 -1.6877  1.0545  2.8217
  162DOPC   C3519616   2.009   5.537   6.329 -0.1949  0.1528  0.0060
  162DOPC   H5X19617   2.024   5.635   6.279 -0.0956  0.2217  0.1710
  162DOPC   H5Y19618   1.971   5.465   6.254  0.1447  0.0847 -0.1039
  162DOPC   C3619619   2.144   5.489   6.370 -0.7146  0.1662  0.4033
  162DOPC   H6X19620   2.183   5.570   6.436 -1.4395  0.7415  0.1442
  162DOPC   H6Y19621   2.148   5.390   6.419 -0.7687 -0.1109 -0.1467
  162DOPC   C3719622   2.236   5.486   6.243 -0.1621 -0.2208 -0.4632
  162DOPC   H7X19623   2.202   5.430   6.153 -1.6161  0.7813 -0.5551
  162DOPC   H7Y19624   2.243   5.595   6.226 -1.5328  0.6282  3.4303
  162DOPC   C3819625   2.373   5.417   6.266  0.2201  0.2952  0.0106
  162DOPC   H8X19626   2.403   5.430   6.372  0.8421 -2.2736  0.2237
  162DOPC   H8Y19627   2.446   5.465   6.197  0.6869  0.3484  0.5276
  162DOPC   C3919628   2.380   5.266   6.247 -0.3381 -0.3161 -0.0797
  162DOPC   H9X19629   2.336   5.197   6.320  0.8156 -1.2851 -0.2623
  162DOPC  C31019630   2.418   5.200   6.134  0.1954 -0.4155 -1.1890
  162DOPC  H10X19631   2.396   5.092   6.132  0.2031 -0.5068  1.0305
  162DOPC  C31119632   2.470   5.261   6.011  0.7924 -0.5248  0.1893
  162DOPC  H11X19633   2.428   5.363   5.997  1.2204 -0.5257 -1.3519
  162DOPC  H11Y19634   2.433   5.196   5.929  2.0167  0.3680 -1.1217
  162DOPC  C31219635   2.622   5.252   6.005  0.5290 -0.1120  0.2808
  162DOPC  H12X19636   2.644   5.144   6.020 -1.0736 -0.3865  0.7834
  162DOPC  H12Y19637   2.664   5.307   6.091 -0.8790  0.0022  0.9220
  162DOPC  C31319638   2.686   5.301   5.878 -0.0387 -0.0726 -0.2286
  162DOPC  H13X19639   2.642   5.270   5.780 -1.6910 -1.3220  0.8559
  162DOPC  H13Y19640   2.707   5.409   5.889  2.3015 -0.3584 -1.2622
  162DOPC  C31419641   2.831   5.245   5.878  0.2358 -0.9620 -0.6289
  162DOPC  H14X19642   2.879   5.282   5.971  0.3579 -1.1239 -0.6262
  162DOPC  H14Y19643   2.834   5.134   5.891 -0.5346 -1.0125 -0.8458
  162DOPC  C31519644   2.920   5.295   5.763 -1.4354 -0.0568 -0.2949
  162DOPC  H15X19645   2.918   5.406   5.758 -1.2178 -0.0662 -0.6912
  162DOPC  H15Y19646   2.898   5.256   5.661  0.2437  0.7505 -1.0092
  162DOPC  C31619647   3.071   5.273   5.796 -0.3547  0.5026  0.7237
  162DOPC  H16X19648   3.100   5.337   5.881  0.8920 -0.0852  0.7640
  162DOPC  H16Y19649   3.069   5.165   5.823 -4.7594 -0.2545 -1.5650
  162DOPC  C31719650   3.175   5.296   5.678 -0.2868  0.2332 -0.6331
  162DOPC  H17X19651   3.162   5.396   5.631 -0.5367  0.2544 -0.5183
  162DOPC  H17Y19652   3.275   5.298   5.728 -0.1667 -2.2547 -0.6346
  162DOPC  C31819653   3.184   5.188   5.572  0.5530 -0.1851 -0.1528
  162DOPC  H18X19654   3.086   5.168   5.525 -0.6577  0.8903  1.8183
  162DOPC  H18Y19655   3.259   5.206   5.491 -1.4256 -0.9169 -2.2526
  162DOPC  H18Z19656   3.204   5.088   5.617 -3.1555 -1.0077 -0.0232
  163DOPC     N19657   2.120   1.685   7.346 -0.7737  0.1182  0.1461
  163DOPC   C1219658   2.150   1.836   7.331  0.6328  0.0782 -0.2067
  163DOPC  H12A19659   2.257   1.840   7.320  0.8147  0.5474  1.4983
  163DOPC  H12B19660   2.129   1.876   7.429 -0.7595  2.8530 -1.5180
  163DOPC   C1319661   2.225   1.625   7.435 -0.3593 -0.1091 -0.4775
  163DOPC  H13A19662   2.314   1.596   7.382  0.1029  0.0804  0.1793
  163DOPC  H13B19663   2.258   1.687   7.517  3.9497 -1.8657 -0.6237
  163DOPC  H13C19664   2.184   1.532   7.473 -0.5142  0.6569  1.3523
  163DOPC   C1419665   2.121   1.615   7.216  0.4955  0.1384  0.5196
  163DOPC  H14A19666   2.201   1.637   7.147 -0.7031 -1.0153 -1.3238
  163DOPC  H14B19667   2.123   1.507   7.223  1.0452  0.1308  0.2849
  163DOPC  H14C19668   2.025   1.635   7.170  0.2298 -0.6593  0.7050
  163DOPC   C1519669   1.992   1.660   7.413  0.1258 -0.3966  0.1905
  163DOPC  H15A19670   1.909   1.702   7.359  0.9929  0.0549 -0.8367
  163DOPC  H15B19671   1.999   1.710   7.508 -1.3122  0.0965  0.0606
  163DOPC  H15C19672   1.986   1.557   7.446  2.7548 -0.4454  0.7737
  163DOPC   C1119673   2.084   1.918   7.214  0.3619  0.2570  0.0638
  163DOPC  H11A19674   1.975   1.918   7.233  0.5036  1.2611  0.9443
  163DOPC  H11B19675   2.108   2.026   7.225  1.6265 -0.1009  0.9552
  163DOPC     P19676   2.239   1.892   7.003 -0.0047  0.4566 -0.0816
  163DOPC   O1319677   2.333   1.784   7.008  0.0096  0.0505 -0.4332
  163DOPC   O1419678   2.295   2.022   7.050 -0.1915  0.1148  0.5300
  163DOPC   O1219679   2.111   1.856   7.089 -0.2121  0.3586 -0.3219
  163DOPC   O1119680   2.185   1.906   6.861 -0.3323 -0.2257 -0.3672
  163DOPC    C119681   2.101   1.807   6.801 -0.2674  0.3877  0.8625
  163DOPC    HA19682   2.010   1.852   6.757  1.1698  0.8770 -1.8279
  163DOPC    HB19683   2.063   1.737   6.878 -0.2762 -0.6437 -0.0502
  163DOPC    C219684   2.182   1.721   6.696 -0.2045 -0.4767  0.2144
  163DOPC    HS19685   2.270   1.671   6.741 -0.5160 -1.7710 -0.5703
  163DOPC   O2119686   2.230   1.806   6.590 -0.0569  0.3454 -0.2292
  163DOPC   C2119687   2.312   1.750   6.505 -0.0821  0.2540 -0.6285
  163DOPC   O2219688   2.369   1.645   6.521 -0.2021 -0.5211 -0.7554
  163DOPC   C2219689   2.331   1.849   6.389  0.2918  0.1219 -0.0420
  163DOPC   H2R19690   2.296   1.951   6.416 -0.9450 -0.6235  1.3452
  163DOPC   H2S19691   2.263   1.805   6.313  1.0126 -0.5808 -0.2945
  163DOPC    C319692   2.091   1.612   6.626  0.2132  0.2228  0.7173
  163DOPC    HX19693   2.053   1.551   6.710 -0.8053  0.5345  0.4954
  163DOPC    HY19694   2.152   1.553   6.555 -0.8561  0.4620 -0.4356
  163DOPC   O3119695   1.983   1.680   6.563 -0.5073 -0.5997  0.1013
  163DOPC   C3119696   1.985   1.694   6.434  0.1288  0.6023 -0.2782
  163DOPC   O3219697   2.058   1.646   6.353  0.0908  0.5615 -0.5091
  163DOPC   C3219698   1.872   1.790   6.391  0.1441  0.1363 -0.0203
  163DOPC   H2X19699   1.806   1.752   6.310 -1.6797  3.7933 -0.4817
  163DOPC   H2Y19700   1.811   1.808   6.483  1.9976 -0.6446  1.4184
  163DOPC   C2319701   2.476   1.860   6.333  0.7721  0.5775 -0.2639
  163DOPC   H3R19702   2.531   1.767   6.360  0.2108  0.5826  0.9459
  163DOPC   H3S19703   2.533   1.941   6.383 -0.1005  1.3423 -0.4828
  163DOPC   C2419704   2.484   1.902   6.178 -0.3410  0.8084 -0.5103
  163DOPC   H4R19705   2.455   1.811   6.122 -0.4312 -0.3720  1.3753
  163DOPC   H4S19706   2.591   1.921   6.157 -0.2444  0.4118 -0.3846
  163DOPC   C2519707   2.414   2.031   6.139 -0.3878  0.3545 -0.2859
  163DOPC   H5R19708   2.451   2.115   6.201  0.5078 -0.0418 -0.2642
  163DOPC   H5S19709   2.304   2.020   6.154 -0.4689  0.3216 -0.8700
  163DOPC   C2619710   2.418   2.069   5.990  0.7655 -0.3773 -0.0991
  163DOPC   H6R19711   2.381   1.976   5.941  0.2464 -0.2261 -0.0026
  163DOPC   H6S19712   2.518   2.093   5.948  1.3188  0.2171  1.4961
  163DOPC   C2719713   2.320   2.191   5.964 -0.6718 -0.2313  0.2579
  163DOPC   H7R19714   2.376   2.266   6.023 -0.6493 -1.5803  2.0364
  163DOPC   H7S19715   2.221   2.189   6.014 -0.9668  1.3441 -0.2157
  163DOPC   C2819716   2.302   2.239   5.817 -0.4433  0.5550 -0.0976
  163DOPC   H8R19717   2.243   2.332   5.828  0.6520  1.1137  1.4423
  163DOPC   H8S19718   2.233   2.163   5.774 -2.8777  2.5817 -0.0052
  163DOPC   C2919719   2.426   2.247   5.733 -0.3576 -0.0074  0.1775
  163DOPC   H9R19720   2.516   2.294   5.776  0.6431 -1.3472 -0.3683
  163DOPC  C21019721   2.466   2.166   5.630 -0.5512 -0.3349 -0.7574
  163DOPC  H10R19722   2.558   2.189   5.573 -0.9408  2.4115 -0.4387
  163DOPC  C21119723   2.383   2.068   5.557  0.6399  0.6487 -0.1463
  163DOPC  H11R19724   2.278   2.077   5.591  0.8324 -0.2104  0.7234
  163DOPC  H11S19725   2.405   1.964   5.591 -2.0825 -0.1301 -0.5332
  163DOPC  C21219726   2.366   2.093   5.409  0.4552 -0.3115  0.8189
  163DOPC  H12R19727   2.458   2.075   5.349 -1.0333 -0.8895 -1.4142
  163DOPC  H12S19728   2.313   2.188   5.388  2.6688  0.4942 -1.7060
  163DOPC  C21319729   2.274   1.984   5.336 -0.4309 -0.4487  0.1548
  163DOPC  H13R19730   2.180   1.978   5.394 -1.4785 -0.3864 -1.4544
  163DOPC  H13S19731   2.329   1.887   5.337 -0.2957 -0.3811 -0.3593
  163DOPC  C21419732   2.230   2.004   5.185 -0.3224 -0.5844 -1.2180
  163DOPC  H14R19733   2.202   2.111   5.171 -0.5329 -0.4999 -0.2328
  163DOPC  H14S19734   2.133   1.951   5.169 -0.8609 -1.2208  3.0871
  163DOPC  C21519735   2.339   1.966   5.077  0.2848  0.1955  0.0263
  163DOPC  H15R19736   2.389   1.869   5.096 -1.0189 -0.6600 -0.7131
  163DOPC  H15S19737   2.412   2.050   5.069  0.7347 -0.3512 -2.7150
  163DOPC  C21619738   2.269   1.963   4.939 -0.2669 -0.0651 -0.1091
  163DOPC  H16R19739   2.218   2.061   4.931  0.4215  0.1481 -2.9129
  163DOPC  H16S19740   2.199   1.877   4.927 -1.9283  1.5501 -2.9078
  163DOPC  C21719741   2.365   1.950   4.822  0.0827 -0.5408 -0.9779
  163DOPC  H17R19742   2.430   1.861   4.833 -1.5507 -1.5133  1.8425
  163DOPC  H17S19743   2.437   2.034   4.824  0.4154 -0.7433  3.0445
  163DOPC  C21819744   2.304   1.949   4.682  0.1008 -0.1366  0.6761
  163DOPC  H18R19745   2.247   2.043   4.663 -1.3988 -0.6845  2.2532
  163DOPC  H18S19746   2.227   1.871   4.664  0.8043 -0.6665 -0.1234
  163DOPC  H18T19747   2.385   1.933   4.607  0.5759  0.5440  1.0309
  163DOPC   C3319748   1.938   1.924   6.352 -0.8644 -0.3455 -0.1740
  163DOPC   H3X19749   2.000   1.916   6.261 -1.8353  0.7618 -0.9546
  163DOPC   H3Y19750   2.009   1.942   6.435  0.5190  1.2663 -1.6531
  163DOPC   C3419751   1.837   2.039   6.344  0.1294  0.1045 -0.0637
  163DOPC   H4X19752   1.783   2.048   6.441  0.6364  1.7059  0.0949
  163DOPC   H4Y19753   1.764   2.020   6.263  0.0596  0.3409 -0.0546
  163DOPC   C3519754   1.911   2.172   6.315  0.0602 -0.1109  0.0008
  163DOPC   H5X19755   1.997   2.172   6.385  1.3981 -0.6563 -1.5808
  163DOPC   H5Y19756   1.842   2.256   6.338 -0.6093 -0.1258 -1.7997
  163DOPC   C3619757   1.959   2.177   6.173 -0.0298 -0.0149  0.7726
  163DOPC   H6X19758   2.008   2.274   6.152 -0.7537  0.0733 -0.6316
  163DOPC   H6Y19759   2.040   2.104   6.154 -1.6340 -1.6569 -0.0966
  163DOPC   C3719760   1.862   2.157   6.058 -0.1197  0.4224  0.2701
  163DOPC   H7X19761   1.831   2.050   6.051 -0.2408  0.2519  2.6344
  163DOPC   H7Y19762   1.774   2.225   6.057 -0.5471 -0.0855 -1.8084
  163DOPC   C3819763   1.937   2.181   5.920  0.0339 -0.3658 -0.0670
  163DOPC   H8X19764   2.025   2.115   5.931  0.7330  0.7217  1.2026
  163DOPC   H8Y19765   1.986   2.281   5.916  0.8859 -0.7523  0.6539
  163DOPC   C3919766   1.853   2.149   5.798 -0.2696 -0.2041  0.0685
  163DOPC   H9X19767   1.759   2.102   5.828  0.5518 -0.2434  2.8053
  163DOPC  C31019768   1.851   2.215   5.682 -0.2981 -0.9936  0.2662
  163DOPC  H10X19769   1.769   2.193   5.612  0.7851 -1.9783 -0.7350
  163DOPC  C31119770   1.927   2.334   5.637  0.1243  0.5947 -0.7707
  163DOPC  H11X19771   2.013   2.346   5.706  1.0956 -0.3432 -1.7730
  163DOPC  H11Y19772   1.854   2.417   5.642 -0.1165  0.3390  0.3022
  163DOPC  C31219773   1.991   2.323   5.501  0.2061 -0.1978  0.9401
  163DOPC  H12X19774   2.034   2.222   5.485  1.1031 -0.0399  2.2408
  163DOPC  H12Y19775   2.073   2.396   5.486  0.4232 -0.3854  1.2039
  163DOPC  C31319776   1.898   2.364   5.384  0.0453  0.2003  0.0090
  163DOPC  H13X19777   1.805   2.303   5.389 -0.9160  1.6742  0.6519
  163DOPC  H13Y19778   1.862   2.469   5.392 -0.1666  0.0813  0.6994
  163DOPC  C31419779   1.951   2.331   5.247  0.2005 -0.3583 -0.0454
  163DOPC  H14X19780   2.034   2.403   5.234  2.1403 -2.2579  1.0754
  163DOPC  H14Y19781   1.994   2.229   5.240 -1.3237 -1.0417  0.1386
  163DOPC  C31519782   1.854   2.350   5.129  0.1051 -0.3934 -0.1607
  163DOPC  H15X19783   1.804   2.449   5.138  0.1121 -0.4256  0.2190
  163DOPC  H15Y19784   1.776   2.270   5.138  0.0289 -0.1825  1.2594
  163DOPC  C31619785   1.930   2.334   4.996 -0.1874 -0.0682  0.0968
  163DOPC  H16X19786   1.991   2.427   4.997 -1.4990  0.8059  1.1998
  163DOPC  H16Y19787   2.001   2.248   5.001 -1.4837 -1.2086 -0.4989
  163DOPC  C31719788   1.856   2.320   4.867 -0.2470 -0.2108  0.3678
  163DOPC  H17X19789   1.818   2.216   4.860 -0.0424 -0.2291 -0.7217
  163DOPC  H17Y19790   1.763   2.381   4.869 -0.8707 -1.1757  1.7500
  163DOPC  C31819791   1.951   2.354   4.745 -0.4187  0.5541  0.4875
  163DOPC  H18X19792   1.890   2.326   4.656 -1.3202 -2.2658  1.8879
  163DOPC  H18Y19793   1.984   2.460   4.738  4.2221 -0.7848 -3.7364
  163DOPC  H18Z19794   2.042   2.290   4.743  0.5485  1.8740  0.7328
  164DOPC     N19795   1.899   0.492   7.262  0.1618  0.3894  0.1432
  164DOPC   C1219796   1.992   0.581   7.176 -0.2238  0.5601  0.0933
  164DOPC  H12A19797   2.088   0.574   7.226 -0.6611  0.1416  0.8895
  164DOPC  H12B19798   1.959   0.682   7.196 -0.2175  0.7699 -0.8726
  164DOPC   C1319799   1.966   0.361   7.291 -0.5471 -0.5967 -0.0392
  164DOPC  H13A19800   1.905   0.296   7.351 -3.6581  0.9648 -1.3090
  164DOPC  H13B19801   2.004   0.326   7.196  0.7538  0.5645  0.0198
  164DOPC  H13C19802   2.052   0.374   7.355 -1.9095  1.8241  1.4704
  164DOPC   C1419803   1.767   0.476   7.190  0.1833  0.1917  0.4050
  164DOPC  H14A19804   1.699   0.413   7.245 -0.8143  1.7312  0.9947
  164DOPC  H14B19805   1.716   0.570   7.181  0.0198  0.1541  0.9208
  164DOPC  H14C19806   1.777   0.439   7.089 -0.0565 -0.5321  0.6414
  164DOPC   C1519807   1.862   0.571   7.387 -0.1787  0.2191  0.1517
  164DOPC  H15A19808   1.822   0.669   7.371 -4.2819 -1.2395  0.3230
  164DOPC  H15B19809   1.944   0.586   7.456 -0.8744 -0.2072  1.0994
  164DOPC  H15C19810   1.781   0.532   7.447 -1.3111  1.3088 -0.6434
  164DOPC   C1119811   2.003   0.559   7.023  0.0299 -0.0807  0.9877
  164DOPC  H11A19812   1.897   0.558   6.987  0.0715  1.4474  0.7741
  164DOPC  H11B19813   2.060   0.635   6.965 -0.7954  1.5163  2.1821
  164DOPC     P19814   2.213   0.400   7.029 -0.0904  0.4293 -0.1968
  164DOPC   O1319815   2.212   0.288   7.125 -0.4000  0.1940 -0.4864
  164DOPC   O1419816   2.285   0.525   7.074  0.3063  0.1645  0.1845
  164DOPC   O1219817   2.061   0.434   6.989 -0.2865 -0.3421 -0.1657
  164DOPC   O1119818   2.276   0.345   6.894 -0.0092 -0.1305 -0.0060
  164DOPC    C119819   2.212   0.228   6.831  0.1317 -0.3284 -0.0203
  164DOPC    HA19820   2.111   0.205   6.871 -0.2973  0.0834 -0.8450
  164DOPC    HB19821   2.270   0.141   6.869 -1.2543 -1.5316 -0.5156
  164DOPC    C219822   2.200   0.225   6.679  0.6108  0.1213  0.1913
  164DOPC    HS19823   2.176   0.121   6.647 -1.0918  0.7441 -0.7045
  164DOPC   O2119824   2.322   0.270   6.622  0.3571  0.8350 -1.0962
  164DOPC   C2119825   2.412   0.176   6.619  0.0688  0.2068  0.2121
  164DOPC   O2219826   2.398   0.063   6.661  0.7294 -0.1463  0.2485
  164DOPC   C2219827   2.546   0.227   6.568  0.6968 -0.4582  0.3827
  164DOPC   H2R19828   2.623   0.158   6.609  0.4829 -0.6332  0.4896
  164DOPC   H2S19829   2.562   0.331   6.604  0.6981 -0.4636  0.3977
  164DOPC    C319830   2.092   0.321   6.637  0.2708 -0.5553 -0.0319
  164DOPC    HX19831   2.111   0.419   6.686 -2.1369 -0.0959  0.0921
  164DOPC    HY19832   1.994   0.288   6.678 -0.5324  2.7863  1.0702
  164DOPC   O3119833   2.089   0.324   6.495  0.4007  0.0399  0.3086
  164DOPC   C3119834   2.130   0.432   6.430 -0.2363  0.4504  0.7651
  164DOPC   O3219835   2.158   0.540   6.470  0.2711 -0.3653  0.1414
  164DOPC   C3219836   2.142   0.400   6.281 -0.0477 -0.5841  0.1129
  164DOPC   H2X19837   2.232   0.341   6.256 -0.4722 -1.3070  0.2385
  164DOPC   H2Y19838   2.058   0.335   6.247  0.4617 -1.3332  0.2557
  164DOPC   C2319839   2.554   0.251   6.410 -0.9366  0.1440 -0.7572
  164DOPC   H3R19840   2.650   0.303   6.389 -0.1121 -0.6711  0.7544
  164DOPC   H3S19841   2.472   0.307   6.360  0.2781  0.7278 -2.1677
  164DOPC   C2419842   2.576   0.115   6.346 -1.0236  0.0117 -0.0775
  164DOPC   H4R19843   2.478   0.063   6.330  0.2745 -2.1746 -1.4286
  164DOPC   H4S19844   2.641   0.046   6.405 -0.5475  0.3139 -0.2481
  164DOPC   C2519845   2.633   0.130   6.204 -0.1960  0.3893 -0.0600
  164DOPC   H5R19846   2.732   0.180   6.206 -0.6776  1.3785  0.1130
  164DOPC   H5S19847   2.566   0.201   6.150  2.2226  2.4986 -0.5171
  164DOPC   C2619848   2.622   0.003   6.126  0.0641 -0.3945  0.4431
  164DOPC   H6R19849   2.523  -0.037   6.096 -0.1613 -0.2649  0.9887
  164DOPC   H6S19850   2.669  -0.075   6.189  0.2365 -1.4833 -0.9945
  164DOPC   C2719851   2.693   0.023   5.992  0.8351 -0.2022 -0.4651
  164DOPC   H7R19852   2.794   0.063   6.014  0.7878  0.6518 -1.6935
  164DOPC   H7S19853   2.637   0.105   5.942  1.2106 -1.9720 -4.0851
  164DOPC   C2819854   2.722  -0.099   5.899  0.8236 -0.0984 -0.1310
  164DOPC   H8R19855   2.762  -0.179   5.965  0.9755  0.8897  1.0132
  164DOPC   H8S19856   2.808  -0.058   5.842  0.2385 -0.0267 -0.9844
  164DOPC   C2919857   2.609  -0.151   5.815 -0.2503  0.2727 -0.5347
  164DOPC   H9R19858   2.514  -0.169   5.867  0.3906  2.7323  1.7104
  164DOPC  C21019859   2.610  -0.175   5.685  0.4544 -0.7365  0.2540
  164DOPC  H10R19860   2.521  -0.212   5.631 -0.6875  0.9105  0.9407
  164DOPC  C21119861   2.725  -0.145   5.590 -0.4802  0.0719  0.4472
  164DOPC  H11R19862   2.711  -0.214   5.504  0.8695 -2.0624  1.8330
  164DOPC  H11S19863   2.830  -0.162   5.622 -0.6947 -0.4271  0.9042
  164DOPC  C21219864   2.731  -0.003   5.528 -0.2671  0.1328  0.4406
  164DOPC  H12R19865   2.819   0.003   5.459 -0.4889 -1.2293  0.0158
  164DOPC  H12S19866   2.743   0.071   5.610 -1.2453  0.2862  0.4509
  164DOPC  C21319867   2.601   0.040   5.453 -0.5619  0.1988 -0.1744
  164DOPC  H13R19868   2.622   0.135   5.399  3.0103 -1.2062 -1.6057
  164DOPC  H13S19869   2.519   0.051   5.527  1.1917 -2.7164  2.4514
  164DOPC  C21419870   2.562  -0.050   5.329 -0.1389 -0.1315  0.1290
  164DOPC  H14R19871   2.482  -0.004   5.267  0.6947 -0.7508 -1.4564
  164DOPC  H14S19872   2.533  -0.152   5.363 -0.5584  0.7079  2.4800
  164DOPC  C21519873   2.670  -0.045   5.223  0.1723  0.2070  0.3358
  164DOPC  H15R19874   2.771  -0.066   5.265 -0.1163 -0.0323  0.9277
  164DOPC  H15S19875   2.677   0.059   5.184 -3.0402  0.2648 -0.4035
  164DOPC  C21619876   2.644  -0.121   5.095 -0.3982  0.1843  0.3312
  164DOPC  H16R19877   2.558  -0.074   5.042  0.9800  2.8552  0.3050
  164DOPC  H16S19878   2.613  -0.224   5.125 -0.9791  0.0928 -0.5376
  164DOPC  C21719879   2.770  -0.131   5.006 -0.0118 -0.3757 -0.1046
  164DOPC  H17R19880   2.847  -0.168   5.077 -0.2450 -2.5616 -0.9136
  164DOPC  H17S19881   2.809  -0.036   4.964 -0.0294 -0.5978 -0.6295
  164DOPC  C21819882   2.767  -0.232   4.893 -0.2965 -0.4449 -0.5612
  164DOPC  H18R19883   2.868  -0.259   4.854 -0.2883  0.8610 -1.5079
  164DOPC  H18S19884   2.709  -0.179   4.814 -0.0257 -0.6751 -0.9185
  164DOPC  H18T19885   2.715  -0.328   4.914  0.1379 -0.7240 -0.7275
  164DOPC   C3319886   2.120   0.524   6.190 -0.2569 -0.1946  0.5585
  164DOPC   H3X19887   2.196   0.597   6.224 -0.4870 -0.7347  2.3830
  164DOPC   H3Y19888   2.021   0.564   6.222 -0.6859  0.0917 -1.0266
  164DOPC   C3419889   2.138   0.496   6.036  0.2167  0.5703  0.0093
  164DOPC   H4X19890   2.079   0.405   6.013  0.6319  0.2183  0.3206
  164DOPC   H4Y19891   2.246   0.469   6.030  0.7286  1.9501  2.0810
  164DOPC   C3519892   2.108   0.609   5.942 -0.5808  0.0765 -0.2766
  164DOPC   H5X19893   2.166   0.697   5.977 -1.5880 -0.0363  1.8152
  164DOPC   H5Y19894   2.000   0.635   5.947 -0.2955  1.4393 -0.7379
  164DOPC   C3619895   2.146   0.579   5.795  0.1714  0.0887  0.3398
  164DOPC   H6X19896   2.256   0.563   5.785  0.1995  1.1113 -1.5054
  164DOPC   H6Y19897   2.097   0.482   5.769  1.5565  0.2304 -3.4514
  164DOPC   C3719898   2.087   0.690   5.709 -0.5811 -0.6521  0.5846
  164DOPC   H7X19899   1.983   0.702   5.745  0.7832  2.7369  4.0843
  164DOPC   H7Y19900   2.120   0.788   5.748 -1.7047  0.4629 -1.1284
  164DOPC   C3819901   2.100   0.681   5.552 -0.4349 -0.4899  0.7671
  164DOPC   H8X19902   2.021   0.746   5.507  1.9894  4.3044  2.6406
  164DOPC   H8Y19903   2.075   0.575   5.532  2.0329 -1.0210  0.1802
  164DOPC   C3919904   2.247   0.697   5.506 -0.5401  0.0307 -0.0300
  164DOPC   H9X19905   2.321   0.666   5.581 -1.7891  0.8192  1.5846
  164DOPC  C31019906   2.287   0.749   5.389 -0.0174  0.4237  0.2325
  164DOPC  H10X19907   2.392   0.773   5.368 -0.0706  0.4316 -0.0308
  164DOPC  C31119908   2.189   0.805   5.286 -0.5525 -1.0413 -0.4561
  164DOPC  H11X19909   2.089   0.760   5.302 -0.8838  0.5646  2.7044
  164DOPC  H11Y19910   2.214   0.775   5.182 -0.3589  0.8346 -0.9780
  164DOPC  C31219911   2.183   0.961   5.298  0.4927  0.5781 -0.5721
  164DOPC  H12X19912   2.283   0.991   5.259  0.7409 -1.2410 -1.4794
  164DOPC  H12Y19913   2.151   1.008   5.393  0.6140 -0.6097  0.0759
  164DOPC  C31319914   2.076   1.013   5.188 -0.2674  0.1029 -0.8829
  164DOPC  H13X19915   2.101   1.118   5.162  0.7338  0.5592  1.6647
  164DOPC  H13Y19916   2.095   0.946   5.101  0.5308 -0.8335 -0.0149
  164DOPC  C31419917   1.924   1.006   5.223 -0.3297 -0.2546 -0.7892
  164DOPC  H14X19918   1.909   1.058   5.320 -3.0247  1.6346 -2.0651
  164DOPC  H14Y19919   1.895   0.899   5.224 -1.0790 -0.0523 -0.1540
  164DOPC  C31519920   1.832   1.076   5.125  0.3085 -0.1114  0.6371
  164DOPC  H15X19921   1.849   1.185   5.140 -0.3478  0.5022 -2.3315
  164DOPC  H15Y19922   1.729   1.056   5.159  0.5998 -0.5376  1.2949
  164DOPC  C31619923   1.843   1.048   4.973  0.5320  0.0826 -0.2513
  164DOPC  H16X19924   1.943   1.085   4.942 -0.2209  1.2675 -1.3346
  164DOPC  H16Y19925   1.841   0.938   4.964 -0.3889 -0.1185  1.8803
  164DOPC  C31719926   1.740   1.114   4.884 -0.0150 -0.0660  0.8698
  164DOPC  H17X19927   1.639   1.071   4.903 -0.2149  0.3453  0.7552
  164DOPC  H17Y19928   1.718   1.221   4.906 -1.3701  0.1501 -1.2312
  164DOPC  C31819929   1.767   1.091   4.731 -0.2274  0.2521  0.0978
  164DOPC  H18X19930   1.875   1.092   4.708  0.4238  0.2074  2.8616
  164DOPC  H18Y19931   1.735   0.986   4.716 -0.1197  0.4645 -1.8399
  164DOPC  H18Z19932   1.696   1.157   4.677 -1.9674  0.2932  2.2714
  165DOPC     N19933   6.601   6.888   7.365 -0.1290  0.4201  0.0166
  165DOPC   C1219934   6.643   6.804   7.244  0.1087  0.6222 -0.2442
  165DOPC  H12A19935   6.585   6.713   7.237 -1.5000  1.6619 -1.1267
  165DOPC  H12B19936   6.744   6.771   7.262  0.8707  2.5927 -0.6763
  165DOPC   C1319937   6.453   6.917   7.358 -0.0475  0.4883 -0.4246
  165DOPC  H13A19938   6.398   6.825   7.341  3.0507 -1.2641 -1.8095
  165DOPC  H13B19939   6.418   6.963   7.449  0.6707 -1.8324  1.1266
  165DOPC  H13C19940   6.436   6.972   7.267  1.9702  1.0368 -0.4987
  165DOPC   C1419941   6.672   7.015   7.381 -0.1668 -0.5554  0.0422
  165DOPC  H14A19942   6.641   7.078   7.463 -1.1328 -0.0037 -0.7258
  165DOPC  H14B19943   6.777   6.999   7.400 -0.4725 -0.3762  2.0752
  165DOPC  H14C19944   6.653   7.073   7.292  0.7943 -0.1503  0.0963
  165DOPC   C1519945   6.619   6.799   7.482 -0.6635  0.0619 -0.9609
  165DOPC  H15A19946   6.721   6.789   7.517 -1.3668 -3.7367  0.4106
  165DOPC  H15B19947   6.580   6.701   7.461  1.3142 -0.6330 -1.6502
  165DOPC  H15C19948   6.577   6.839   7.573  0.2398  0.6418 -0.7773
  165DOPC   C1119949   6.638   6.875   7.106  0.4210 -0.1729  0.1009
  165DOPC  H11A19950   6.719   6.950   7.113  2.9974 -2.7071 -0.5646
  165DOPC  H11B19951   6.665   6.796   7.033  1.8898  1.3545 -1.0549
  165DOPC     P19952   6.492   7.073   7.019 -0.4844  0.0782  0.0739
  165DOPC   O1319953   6.594   7.161   7.074 -0.0290 -0.0013  0.0514
  165DOPC   O1419954   6.347   7.107   7.033  0.3545  0.4688  0.0783
  165DOPC   O1219955   6.508   6.923   7.079  0.1659 -0.8111  0.0148
  165DOPC   O1119956   6.517   7.059   6.864  0.4266  0.0526  0.3192
  165DOPC    C119957   6.458   6.953   6.787 -0.6297  0.4895  0.1090
  165DOPC    HA19958   6.352   6.939   6.818 -1.1312  3.1658 -0.1707
  165DOPC    HB19959   6.514   6.859   6.807 -0.0370  0.4866 -1.4470
  165DOPC    C219960   6.469   6.970   6.635 -0.4828 -0.0218 -0.1706
  165DOPC    HS19961   6.449   6.869   6.595  0.3568 -0.0588 -0.5307
  165DOPC   O2119962   6.603   7.019   6.595  0.4286 -0.2856  0.0309
  165DOPC   C2119963   6.691   6.932   6.560  0.4529  0.2496  0.3479
  165DOPC   O2219964   6.668   6.812   6.542 -0.7553  0.3004 -0.3321
  165DOPC   C2219965   6.825   7.000   6.538  0.0488 -0.0127 -0.0044
  165DOPC   H2R19966   6.901   6.953   6.604  0.2291  0.5344  0.1838
  165DOPC   H2S19967   6.828   7.104   6.576 -1.3434  0.1906 -0.4075
  165DOPC    C319968   6.367   7.070   6.579  0.1179 -0.4728  0.0933
  165DOPC    HX19969   6.386   7.169   6.625 -0.2119 -0.4311  0.1481
  165DOPC    HY19970   6.268   7.044   6.623  1.8173 -0.7255  4.2831
  165DOPC   O3119971   6.359   7.072   6.436 -0.2560  0.5266 -0.0376
  165DOPC   C3119972   6.427   7.168   6.373 -0.3399  0.8122  0.3195
  165DOPC   O3219973   6.510   7.243   6.425  0.7304 -0.2839  0.0242
  165DOPC   C3219974   6.387   7.157   6.223  0.0021 -0.4243  0.3446
  165DOPC   H2X19975   6.445   7.077   6.172 -0.7362 -0.5503 -0.3102
  165DOPC   H2Y19976   6.281   7.130   6.204  0.2380 -0.1911 -1.4646
  165DOPC   C2319977   6.875   6.988   6.389 -0.6484 -0.1301  0.3896
  165DOPC   H3R19978   6.889   6.882   6.360 -0.1411 -0.6593  2.3805
  165DOPC   H3S19979   6.971   7.041   6.399 -0.6290  0.2492 -1.5612
  165DOPC   C2419980   6.782   7.060   6.291 -0.4928 -0.5507 -0.5402
  165DOPC   H4R19981   6.740   7.150   6.341 -0.0673  0.0375 -1.2153
  165DOPC   H4S19982   6.694   7.007   6.248  0.8710 -1.3166 -2.5331
  165DOPC   C2519983   6.866   7.110   6.171 -0.2959  0.5705  0.4920
  165DOPC   H5R19984   6.969   7.146   6.188  0.8609 -2.0843 -0.3300
  165DOPC   H5S19985   6.795   7.191   6.144 -2.5359 -1.0019  1.2874
  165DOPC   C2619986   6.878   7.004   6.061 -0.1165  0.2512  0.1344
  165DOPC   H6R19987   6.779   6.960   6.036  0.3210 -0.9410  0.4334
  165DOPC   H6S19988   6.942   6.922   6.101 -0.5248  1.3549  3.3758
  165DOPC   C2719989   6.944   7.051   5.934  0.0714 -0.0265 -0.2510
  165DOPC   H7R19990   7.014   7.136   5.944 -0.3366  0.4062 -0.9447
  165DOPC   H7S19991   6.866   7.067   5.856 -0.2607 -0.8141 -0.0883
  165DOPC   C2819992   7.023   6.936   5.876 -0.1931  0.3946 -0.1717
  165DOPC   H8R19993   6.949   6.852   5.879 -0.6344  0.7738 -0.3057
  165DOPC   H8S19994   7.095   6.914   5.958 -0.8106  1.8469  0.8050
  165DOPC   C2919995   7.090   6.941   5.742 -0.1544 -0.2053 -0.6128
  165DOPC   H9R19996   7.100   7.040   5.695 -1.5274 -1.7670 -4.6287
  165DOPC  C21019997   7.104   6.842   5.656 -0.7185  0.4487 -0.2195
  165DOPC  H10R19998   7.146   6.858   5.555  1.2208  1.1981  0.6532
  165DOPC  C21119999   7.068   6.701   5.677 -0.3154  0.2357 -0.5058
  165DOPC  H11R20000   6.962   6.701   5.712 -0.1940 -2.8651  0.1708
  165DOPC  H11S20001   7.130   6.667   5.763  0.7591  0.6497 -1.1128
  165DOPC  C21220002   7.092   6.612   5.550 -0.3994  0.3180  0.4058
  165DOPC  H12R20003   7.027   6.661   5.474  0.8304  0.2258 -0.7397
  165DOPC  H12S20004   7.062   6.506   5.559 -0.0152  0.2885  1.5159
  165DOPC  C21320005   7.234   6.628   5.481 -0.0976 -0.5398 -0.4596
  165DOPC  H13R20006   7.311   6.597   5.556 -0.4764  4.6434  2.4897
  165DOPC  H13S20007   7.261   6.734   5.461  1.5827 -0.9839 -0.7128
  165DOPC  C21420008   7.263   6.546   5.349 -0.1155 -0.2561  0.5104
  165DOPC  H14R20009   7.344   6.587   5.285 -0.5202 -1.6955 -1.0190
  165DOPC  H14S20010   7.185   6.548   5.270  0.6146 -1.0684 -0.2686
  165DOPC  C21520011   7.291   6.399   5.370 -0.3374 -0.2079  0.1399
  165DOPC  H15R20012   7.198   6.339   5.373 -0.2557 -0.3568 -0.2081
  165DOPC  H15S20013   7.331   6.392   5.474 -1.8200  1.7944  0.8925
  165DOPC  C21620014   7.395   6.336   5.271 -0.4983  0.0679 -0.5222
  165DOPC  H16R20015   7.488   6.396   5.267 -0.6344  0.5167  1.5950
  165DOPC  H16S20016   7.356   6.332   5.167  0.5142 -0.4516 -0.8940
  165DOPC  C21720017   7.435   6.196   5.318  0.5817 -0.0732  0.8355
  165DOPC  H17R20018   7.341   6.138   5.332 -0.3011  1.6171  2.2822
  165DOPC  H17S20019   7.486   6.206   5.416 -1.5874  0.6734  1.9743
  165DOPC  C21820020   7.534   6.114   5.233 -0.3429  0.1432 -0.2120
  165DOPC  H18R20021   7.488   6.072   5.140  1.2214  0.9378 -1.3882
  165DOPC  H18S20022   7.562   6.026   5.295  0.2999 -0.3482 -1.1752
  165DOPC  H18T20023   7.630   6.162   5.206  0.8860 -2.9128 -1.8732
  165DOPC   C3320024   6.426   7.292   6.161 -0.0705  0.5726  0.4438
  165DOPC   H3X20025   6.531   7.317   6.187  0.0715 -2.1711  3.2267
  165DOPC   H3Y20026   6.357   7.374   6.192 -0.8878 -0.0700  0.3806
  165DOPC   C3420027   6.410   7.285   6.005 -0.4276 -0.0939  0.2573
  165DOPC   H4X20028   6.417   7.385   5.958 -0.0831 -1.2143 -2.2183
  165DOPC   H4Y20029   6.312   7.241   5.977  0.8609 -4.0701  1.2465
  165DOPC   C3520030   6.514   7.186   5.947  0.0445 -0.0495  0.3429
  165DOPC   H5X20031   6.479   7.082   5.959 -1.9697  0.6136  0.6786
  165DOPC   H5Y20032   6.614   7.190   5.995  0.6430 -3.1277 -0.4166
  165DOPC   C3620033   6.528   7.210   5.799  0.2800  0.1128  0.0607
  165DOPC   H6X20034   6.562   7.314   5.778  1.1888 -0.0031  0.9160
  165DOPC   H6Y20035   6.613   7.149   5.763 -0.2457 -1.4439  1.3653
  165DOPC   C3720036   6.403   7.183   5.718  0.2251 -0.3476 -0.0209
  165DOPC   H7X20037   6.321   7.249   5.752 -0.4165 -0.8543 -0.5779
  165DOPC   H7Y20038   6.366   7.080   5.734  1.4807 -0.5784  1.7277
  165DOPC   C3820039   6.416   7.224   5.569  0.4228 -0.1961 -0.6636
  165DOPC   H8X20040   6.475   7.138   5.531  1.3422 -2.0864  4.2517
  165DOPC   H8Y20041   6.483   7.313   5.566  1.1138 -0.5910  1.3427
  165DOPC   C3920042   6.295   7.247   5.486  0.4424 -0.2020  0.2520
  165DOPC   H9X20043   6.242   7.337   5.518 -1.1172 -0.6853 -0.8721
  165DOPC  C31020044   6.240   7.156   5.399 -0.8090 -0.2257 -0.2095
  165DOPC  H10X20045   6.149   7.183   5.342 -0.4972 -2.6373 -2.0076
  165DOPC  C31120046   6.294   7.017   5.357  0.4381 -0.8769 -0.1562
  165DOPC  H11X20047   6.242   6.940   5.417  3.4174 -0.7853  2.8441
  165DOPC  H11Y20048   6.395   6.997   5.399 -0.2758 -0.4592  1.8590
  165DOPC  C31220049   6.296   6.976   5.210 -0.6751  0.0796  0.5794
  165DOPC  H12X20050   6.353   7.057   5.160 -0.3256 -0.4038  0.1787
  165DOPC  H12Y20051   6.194   6.962   5.168 -0.7486 -2.8781  1.4818
  165DOPC  C31320052   6.358   6.836   5.193  0.2966  0.7713 -0.0400
  165DOPC  H13X20053   6.458   6.838   5.242  0.8990 -0.0273 -1.1797
  165DOPC  H13Y20054   6.286   6.766   5.241 -1.4551  1.7370 -1.1755
  165DOPC  C31420055   6.375   6.783   5.049  1.1062 -1.0603  0.4274
  165DOPC  H14X20056   6.276   6.781   4.999  1.4219 -0.7137 -0.2090
  165DOPC  H14Y20057   6.444   6.858   5.007 -1.6037  1.6119  0.3715
  165DOPC  C31520058   6.427   6.642   5.044  0.1480 -0.2803  0.2120
  165DOPC  H15X20059   6.371   6.586   5.123  0.0119  0.0614  0.3599
  165DOPC  H15Y20060   6.535   6.625   5.067  0.5933 -0.9058 -2.1232
  165DOPC  C31620061   6.423   6.585   4.899 -0.5269  0.7842  0.1756
  165DOPC  H16X20062   6.466   6.662   4.832 -1.0881  0.6462 -0.3451
  165DOPC  H16Y20063   6.490   6.497   4.902  0.2830  1.3704 -0.1677
  165DOPC  C31720064   6.287   6.546   4.841  1.1650 -0.0593 -0.1435
  165DOPC  H17X20065   6.251   6.454   4.891 -0.4793  0.1742 -0.8192
  165DOPC  H17Y20066   6.217   6.620   4.884  1.5554 -0.5353  1.3521
  165DOPC  C31820067   6.281   6.542   4.685  0.4157  0.1772 -0.3934
  165DOPC  H18X20068   6.314   6.640   4.647  1.9165  0.3359  1.1766
  165DOPC  H18Y20069   6.353   6.467   4.645 -2.0576 -2.1298 -0.8698
  165DOPC  H18Z20070   6.179   6.515   4.650  0.8321  0.3425 -1.7832
  166DOPC     N20071   0.887   1.732   7.654 -0.1329  0.1654  0.8673
  166DOPC   C1220072   0.892   1.832   7.532 -0.8675  0.0050 -0.1817
  166DOPC  H12A20073   0.991   1.816   7.493  0.8495 -0.7748  3.9948
  166DOPC  H12B20074   0.891   1.932   7.572  0.3474 -0.2337  0.5060
  166DOPC   C1320075   0.892   1.589   7.598  0.4748 -0.4482  0.1399
  166DOPC  H13A20076   0.968   1.581   7.521  0.2486 -0.5754 -0.0713
  166DOPC  H13B20077   0.903   1.518   7.679 -2.6520 -0.3569  0.7443
  166DOPC  H13C20078   0.798   1.572   7.548 -0.2966  2.4811  0.3741
  166DOPC   C1420079   0.761   1.751   7.734  0.3796 -0.1870  0.0691
  166DOPC  H14A20080   0.733   1.848   7.771 -2.1820  0.1601 -2.4342
  166DOPC  H14B20081   0.678   1.723   7.671  0.6843 -1.1329  0.0669
  166DOPC  H14C20082   0.764   1.682   7.817  0.4996 -1.2629 -0.7930
  166DOPC   C1520083   1.010   1.754   7.737 -0.2183  0.0274 -0.3526
  166DOPC  H15A20084   1.023   1.672   7.805  3.4813 -0.3280 -1.2463
  166DOPC  H15B20085   1.011   1.849   7.788  1.7559 -0.9334  1.5393
  166DOPC  H15C20086   1.103   1.759   7.682  0.9885  0.7684  1.6565
  166DOPC   C1120087   0.784   1.831   7.417  0.2201 -0.3260  0.4185
  166DOPC  H11A20088   0.686   1.854   7.464  0.4246  0.6619  0.3728
  166DOPC  H11B20089   0.812   1.918   7.354 -2.0952 -1.6991 -2.7843
  166DOPC     P20090   0.843   1.681   7.213  0.0024  0.4593  0.2825
  166DOPC   O1320091   0.875   1.539   7.205 -0.1486  0.0504  0.7019
  166DOPC   O1420092   0.959   1.767   7.189 -0.3291  0.2285 -0.0491
  166DOPC   O1220093   0.768   1.709   7.347 -0.1472  0.1359  0.2533
  166DOPC   O1120094   0.734   1.727   7.114 -0.2239 -0.5504  0.4479
  166DOPC    C120095   0.642   1.632   7.062  0.5158  0.1182  0.1730
  166DOPC    HA20096   0.538   1.666   7.079 -0.3013 -1.2451 -1.7050
  166DOPC    HB20097   0.640   1.535   7.116 -1.6876 -0.6027 -1.0649
  166DOPC    C220098   0.665   1.600   6.910  0.1986  0.0505 -0.7576
  166DOPC    HS20099   0.753   1.532   6.900 -0.7444 -1.2339 -0.5069
  166DOPC   O2120100   0.681   1.724   6.843 -0.1531 -0.1556  0.6338
  166DOPC   C2120101   0.755   1.733   6.736  0.3647 -0.2276  0.5055
  166DOPC   O2220102   0.833   1.646   6.699 -0.0208 -0.0825 -0.0428
  166DOPC   C2220103   0.735   1.875   6.669 -0.0270  0.4636  0.7728
  166DOPC   H2R20104   0.783   1.953   6.733  1.1927 -0.3011  0.8168
  166DOPC   H2S20105   0.627   1.902   6.669  0.0369  0.7724 -0.2663
  166DOPC    C320106   0.556   1.518   6.834  0.1042 -0.6399 -0.0403
  166DOPC    HX20107   0.462   1.573   6.815 -1.1763 -3.1526 -1.3565
  166DOPC    HY20108   0.513   1.444   6.905 -0.4978 -0.5324 -0.2944
  166DOPC   O3120109   0.602   1.441   6.721  0.0064 -0.5690 -0.6769
  166DOPC   C3120110   0.550   1.478   6.605 -0.3733  0.4755 -0.2207
  166DOPC   O3220111   0.467   1.562   6.583 -0.0213  0.1829  0.0173
  166DOPC   C3220112   0.623   1.406   6.498  0.7133 -0.0091  0.0794
  166DOPC   H2X20113   0.731   1.403   6.524  0.7166  0.0405  0.0717
  166DOPC   H2Y20114   0.591   1.300   6.500  0.3255  0.0490  4.0705
  166DOPC   C2320115   0.799   1.887   6.524 -0.9328  0.6779 -0.1434
  166DOPC   H3R20116   0.802   1.793   6.466  1.5568 -0.1891  1.2530
  166DOPC   H3S20117   0.908   1.910   6.530 -0.5838  0.6654 -4.0251
  166DOPC   C2420118   0.730   1.996   6.441 -0.5921  0.4234  0.2376
  166DOPC   H4R20119   0.760   2.094   6.483  1.6788 -0.3237  0.4862
  166DOPC   H4S20120   0.619   1.999   6.446 -0.7169  3.0931 -2.0074
  166DOPC   C2520121   0.780   1.979   6.303 -0.0113 -0.0500  0.0838
  166DOPC   H5R20122   0.756   1.873   6.281  0.4968 -0.1616  0.0541
  166DOPC   H5S20123   0.888   2.006   6.302 -0.3967  1.7571  1.7065
  166DOPC   C2620124   0.707   2.075   6.207 -0.0354 -0.1103 -0.4118
  166DOPC   H6R20125   0.689   2.174   6.254 -3.0271 -0.1828 -1.2283
  166DOPC   H6S20126   0.605   2.035   6.193 -0.9120  1.1340  1.8869
  166DOPC   C2720127   0.784   2.111   6.076 -0.1422 -0.5718  0.1680
  166DOPC   H7R20128   0.877   2.167   6.099 -1.3694  1.4669  0.3653
  166DOPC   H7S20129   0.720   2.172   6.009 -0.0592  0.9446  1.4312
  166DOPC   C2820130   0.815   1.983   5.985  0.8633 -0.3723  0.0069
  166DOPC   H8R20131   0.881   1.925   6.053  0.2192 -2.5587 -1.1519
  166DOPC   H8S20132   0.873   2.002   5.893  1.7842  0.2333  0.6995
  166DOPC   C2920133   0.705   1.906   5.931 -0.8513  0.8186  0.2730
  166DOPC   H9R20134   0.606   1.943   5.964 -1.3402  1.4831 -1.7770
  166DOPC  C21020135   0.721   1.818   5.825  0.5289 -0.1424 -0.3938
  166DOPC  H10R20136   0.635   1.761   5.787  0.6852  0.0631 -1.0749
  166DOPC  C21120137   0.845   1.782   5.749  0.5760  0.7795 -0.4263
  166DOPC  H11R20138   0.837   1.676   5.718  0.9972  0.1156  1.5795
  166DOPC  H11S20139   0.936   1.800   5.810  0.5224  1.5787 -0.5722
  166DOPC  C21220140   0.873   1.866   5.615  0.0243 -0.2803 -0.0036
  166DOPC  H12R20141   0.983   1.857   5.604  0.2369 -0.3855  1.8509
  166DOPC  H12S20142   0.863   1.974   5.638  0.0150 -0.5623  1.4069
  166DOPC  C21320143   0.815   1.815   5.482  0.1479  0.5807 -0.0221
  166DOPC  H13R20144   0.818   1.704   5.488 -2.2673  0.5533  3.2856
  166DOPC  H13S20145   0.887   1.855   5.407  0.9624  2.2015  1.5134
  166DOPC  C21420146   0.679   1.867   5.445 -0.2488 -0.6481 -0.2878
  166DOPC  H14R20147   0.681   1.978   5.447 -1.4719 -0.4949 -3.1045
  166DOPC  H14S20148   0.607   1.845   5.527  0.3448  1.0252  0.7400
  166DOPC  C21520149   0.621   1.836   5.308  0.1638 -0.3727 -0.1040
  166DOPC  H15R20150   0.595   1.728   5.309  0.6046 -0.4797  0.6742
  166DOPC  H15S20151   0.700   1.868   5.238  0.6340  3.5418  1.9161
  166DOPC  C21620152   0.496   1.915   5.277 -0.0117 -0.0064 -0.6293
  166DOPC  H16R20153   0.537   2.018   5.269  0.6724 -0.2105  0.1783
  166DOPC  H16S20154   0.435   1.899   5.368  0.6963  3.2510  0.5446
  166DOPC  C21720155   0.421   1.877   5.147  0.1869  0.4445 -0.4887
  166DOPC  H17R20156   0.367   1.781   5.163  0.7756  0.3304  0.9676
  166DOPC  H17S20157   0.498   1.868   5.068  0.1762 -0.8213 -0.3832
  166DOPC  C21820158   0.309   1.978   5.104  0.0007 -0.0290 -0.2620
  166DOPC  H18R20159   0.263   1.949   5.007 -1.6154  1.6350 -0.0597
  166DOPC  H18S20160   0.348   2.083   5.104  1.7994 -0.6450 -1.2487
  166DOPC  H18T20161   0.226   1.965   5.176  0.1773 -0.9451 -0.2171
  166DOPC   C3320162   0.594   1.461   6.361  0.3723 -0.3413 -0.2038
  166DOPC   H3X20163   0.577   1.571   6.368  0.8373 -0.3683  2.5803
  166DOPC   H3Y20164   0.498   1.418   6.326  0.0216  1.7190 -1.9804
  166DOPC   C3420165   0.695   1.453   6.250  0.8738  0.9301  0.4489
  166DOPC   H4X20166   0.637   1.481   6.159 -1.8730 -4.5275  0.0775
  166DOPC   H4Y20167   0.719   1.346   6.231 -1.2059  0.6796 -1.2261
  166DOPC   C3520168   0.828   1.530   6.269  0.7872  0.1402 -0.5249
  166DOPC   H5X20169   0.879   1.496   6.362  0.9392  0.8451 -0.3439
  166DOPC   H5Y20170   0.803   1.633   6.302 -0.7886 -0.1800 -0.6640
  166DOPC   C3620171   0.916   1.520   6.144 -0.0753 -0.1269 -0.3215
  166DOPC   H6X20172   0.931   1.414   6.115  0.4838  0.6798 -3.2715
  166DOPC   H6Y20173   0.868   1.571   6.058  2.6591  0.7752 -1.4078
  166DOPC   C3720174   1.048   1.595   6.163  0.0808 -0.5153 -0.4207
  166DOPC   H7X20175   1.022   1.699   6.194 -0.5466 -1.2328  1.6172
  166DOPC   H7Y20176   1.104   1.553   6.249  1.3158  1.6977 -0.0533
  166DOPC   C3820177   1.140   1.583   6.042 -0.0440 -0.3921 -0.2667
  166DOPC   H8X20178   1.225   1.653   6.057  0.4332 -0.8902 -0.5751
  166DOPC   H8Y20179   1.080   1.636   5.965 -0.9435  0.7629  1.1793
  166DOPC   C3920180   1.191   1.442   6.017  0.0555  0.0018  1.3997
  166DOPC   H9X20181   1.234   1.395   6.107  2.7144 -0.3630  0.0289
  166DOPC  C31020182   1.188   1.358   5.906 -0.2810 -0.2856 -0.6663
  166DOPC  H10X20183   1.217   1.253   5.914 -1.9187 -0.7054  0.2012
  166DOPC  C31120184   1.133   1.392   5.772  0.9194 -0.3078 -0.1380
  166DOPC  H11X20185   1.026   1.422   5.781  0.5964 -1.5503  0.5317
  166DOPC  H11Y20186   1.136   1.309   5.698 -1.1948 -0.3834 -0.1993
  166DOPC  C31220187   1.195   1.518   5.706 -0.1147  1.0832 -0.1668
  166DOPC  H12X20188   1.302   1.509   5.678 -0.1803 -0.8647  0.0781
  166DOPC  H12Y20189   1.181   1.614   5.760 -2.5827  0.5257  0.3208
  166DOPC  C31320190   1.137   1.540   5.562 -0.0099  0.9370 -0.0160
  166DOPC  H13X20191   1.029   1.560   5.577  0.0907 -0.8036  4.7164
  166DOPC  H13Y20192   1.186   1.627   5.515  0.5182 -0.4475 -2.1678
  166DOPC  C31420193   1.169   1.419   5.467  0.4254  0.1750  0.1781
  166DOPC  H14X20194   1.277   1.394   5.464  0.3480 -0.0808 -0.4349
  166DOPC  H14Y20195   1.117   1.329   5.505  1.3366 -0.8649 -0.9877
  166DOPC  C31520196   1.117   1.453   5.327  0.6072  0.4491  0.0587
  166DOPC  H15X20197   1.174   1.538   5.283  0.8615 -0.9133 -2.4311
  166DOPC  H15Y20198   1.012   1.490   5.326 -0.1699 -1.5995 -1.6922
  166DOPC  C31620199   1.123   1.330   5.238  0.3418 -0.2081 -0.1918
  166DOPC  H16X20200   1.226   1.288   5.244 -0.6493 -2.5666  1.9557
  166DOPC  H16Y20201   1.047   1.261   5.280 -1.7425  2.6595  1.1492
  166DOPC  C31720202   1.102   1.348   5.094 -0.2014 -0.9199  0.7366
  166DOPC  H17X20203   1.002   1.395   5.081  0.3205  0.3637  1.1662
  166DOPC  H17Y20204   1.173   1.429   5.065 -1.7361  0.2090 -0.0235
  166DOPC  C31820205   1.127   1.239   5.000 -0.3763  0.7145 -0.0013
  166DOPC  H18X20206   1.235   1.213   5.007 -0.6817 -0.5024  0.2866
  166DOPC  H18Y20207   1.059   1.153   5.018  0.5629  0.3424  2.0513
  166DOPC  H18Z20208   1.099   1.269   4.897  0.3777  1.8523  0.1034
  167DOPC     N20209   0.081   1.024   7.172  0.2818 -0.0873 -0.2638
  167DOPC   C1220210   0.103   1.016   7.022 -0.3970  0.1824 -0.2896
  167DOPC  H12A20211   0.208   1.017   6.998 -0.2447  1.4330  0.3409
  167DOPC  H12B20212   0.078   1.110   6.975  1.1761 -0.9084 -3.6189
  167DOPC   C1320213   0.110   0.904   7.243 -0.6007 -0.3072 -0.2879
  167DOPC  H13A20214   0.203   0.866   7.206 -0.2318  0.8556 -0.6161
  167DOPC  H13B20215   0.128   0.913   7.349 -0.4543 -0.8054 -0.2721
  167DOPC  H13C20216   0.032   0.830   7.234  0.2426 -1.6025  2.2280
  167DOPC   C1420217  -0.058   1.066   7.215  0.3875 -0.5460 -0.1093
  167DOPC  H14A20218  -0.072   1.170   7.192  1.6571 -0.6862 -1.7806
  167DOPC  H14B20219  -0.129   1.008   7.157 -0.0996 -0.7004  0.6396
  167DOPC  H14C20220  -0.082   1.048   7.318 -1.2096 -0.6504 -0.4707
  167DOPC   C1520221   0.176   1.124   7.231  0.0383  0.2412 -0.3310
  167DOPC  H15A20222   0.183   1.210   7.166  0.5961  0.5068  0.0692
  167DOPC  H15B20223   0.271   1.075   7.246 -0.3954 -0.0839  1.6229
  167DOPC  H15C20224   0.150   1.151   7.332  1.6161 -1.3138  0.5503
  167DOPC   C1120225   0.026   0.903   6.941  0.3830 -0.2480  0.0502
  167DOPC  H11A20226   0.049   0.916   6.833 -3.0226 -2.4617 -1.1222
  167DOPC  H11B20227   0.066   0.804   6.971 -0.2416 -0.6646 -0.4644
  167DOPC     P20228  -0.220   1.004   6.875  0.0573  0.4166 -0.0673
  167DOPC   O1320229  -0.194   1.149   6.870 -0.5417 -0.5542  0.1392
  167DOPC   O1420230  -0.352   0.965   6.930 -0.0368 -0.0653 -0.0113
  167DOPC   O1220231  -0.119   0.924   6.966 -0.4115  0.1131  0.7675
  167DOPC   O1120232  -0.199   0.955   6.726  0.2793  0.6349 -0.1629
  167DOPC    C120233  -0.188   0.812   6.706  0.5768  0.2612 -0.1315
  167DOPC    HA20234  -0.261   0.761   6.773 -0.4395 -0.5608 -1.8106
  167DOPC    HB20235  -0.087   0.770   6.727  0.7309 -0.1773 -1.6692
  167DOPC    C220236  -0.249   0.753   6.573  0.0999  0.2390 -0.7018
  167DOPC    HS20237  -0.251   0.642   6.575  0.2130  0.2006  2.4965
  167DOPC   O2120238  -0.168   0.801   6.466 -0.1403  0.0518 -0.1202
  167DOPC   C2120239  -0.044   0.746   6.449  0.2353  0.6048 -0.7018
  167DOPC   O2220240  -0.002   0.646   6.514 -0.0443 -0.6575 -0.0624
  167DOPC   C2220241   0.024   0.824   6.334  0.1264 -0.3741  0.1524
  167DOPC   H2R20242   0.005   0.931   6.355  0.3442 -0.2578 -0.2375
  167DOPC   H2S20243  -0.032   0.795   6.242  0.0006 -0.7912  0.3556
  167DOPC    C320244  -0.397   0.805   6.561  0.0220  0.5105  0.4796
  167DOPC    HX20245  -0.403   0.916   6.559  1.0626  0.6056 -2.2069
  167DOPC    HY20246  -0.457   0.762   6.644 -3.4696  1.6800 -1.1974
  167DOPC   O3120247  -0.456   0.744   6.442 -0.1487  0.0857 -0.1451
  167DOPC   C3120248  -0.585   0.779   6.431 -0.4695  0.0110  0.0389
  167DOPC   O3220249  -0.651   0.832   6.523  0.0142  0.0346  0.4502
  167DOPC   C3220250  -0.647   0.742   6.296 -0.0760 -0.1787 -0.3058
  167DOPC   H2X20251  -0.672   0.634   6.296  2.8699 -0.9920 -2.7009
  167DOPC   H2Y20252  -0.737   0.803   6.273  0.5996  0.6463 -0.8604
  167DOPC   C2320253   0.174   0.793   6.318 -0.6696  0.1563  0.8168
  167DOPC   H3R20254   0.184   0.688   6.281 -1.6993  0.0651  0.7688
  167DOPC   H3S20255   0.229   0.794   6.415  0.3595 -3.4571  0.4300
  167DOPC   C2420256   0.237   0.894   6.224  0.0545 -0.2367 -0.0891
  167DOPC   H4R20257   0.191   0.995   6.234 -1.3678 -0.7422 -1.2851
  167DOPC   H4S20258   0.213   0.865   6.120 -1.2802  0.9223 -0.1294
  167DOPC   C2520259   0.391   0.917   6.237 -0.0170 -0.0186 -0.5380
  167DOPC   H5R20260   0.440   0.825   6.199  1.5399  0.1679  0.8740
  167DOPC   H5S20261   0.407   0.928   6.347  0.2256  0.1132 -0.5840
  167DOPC   C2620262   0.444   1.043   6.166  0.0657 -0.0409  0.1582
  167DOPC   H6R20263   0.554   1.051   6.181  0.2841 -0.3958 -1.1265
  167DOPC   H6S20264   0.400   1.139   6.200  1.1929 -0.1435  2.0648
  167DOPC   C2720265   0.438   1.034   6.016  0.0347  0.3598 -0.4267
  167DOPC   H7R20266   0.336   1.046   5.974  0.9832 -0.0077 -2.9867
  167DOPC   H7S20267   0.471   0.930   5.995  1.7529  1.0442 -1.3413
  167DOPC   C2820268   0.539   1.125   5.942  0.0063 -0.1708 -0.1238
  167DOPC   H8R20269   0.568   1.074   5.848 -0.6601 -2.1688  0.7035
  167DOPC   H8S20270   0.634   1.116   6.001  2.3103 -1.9094 -3.7575
  167DOPC   C2920271   0.488   1.262   5.926 -0.5633 -0.2696  0.4819
  167DOPC   H9R20272   0.382   1.278   5.951 -0.4111  1.7934  0.0354
  167DOPC  C21020273   0.570   1.358   5.883 -0.4513 -0.3465 -0.8544
  167DOPC  H10R20274   0.529   1.460   5.880 -3.8709 -1.5664 -0.3527
  167DOPC  C21120275   0.712   1.342   5.835 -0.5068  0.1401 -0.0358
  167DOPC  H11R20276   0.758   1.247   5.869 -0.0282  0.7429  1.0541
  167DOPC  H11S20277   0.781   1.420   5.874 -0.3863 -1.1340  2.4900
  167DOPC  C21220278   0.727   1.337   5.681  0.5436 -0.4519 -0.2248
  167DOPC  H12R20279   0.834   1.341   5.650  0.0545 -1.1158 -2.1322
  167DOPC  H12S20280   0.684   1.241   5.646 -3.3369  0.7732  0.7434
  167DOPC  C21320281   0.653   1.443   5.605 -0.1212  0.2226 -0.5125
  167DOPC  H13R20282   0.681   1.544   5.644 -0.9746  1.2064 -2.3092
  167DOPC  H13S20283   0.543   1.444   5.622 -0.2025  1.2198 -1.0316
  167DOPC  C21420284   0.692   1.453   5.460 -0.6118 -0.6453  0.1141
  167DOPC  H14R20285   0.787   1.509   5.451 -0.4833 -0.7836  0.5615
  167DOPC  H14S20286   0.622   1.518   5.403  0.1568  1.0270  1.0096
  167DOPC  C21520287   0.717   1.322   5.390  0.2760 -1.0517 -0.1554
  167DOPC  H15R20288   0.629   1.255   5.403 -0.0823 -0.2723  1.7130
  167DOPC  H15S20289   0.807   1.267   5.424 -0.2934 -2.2122 -0.4641
  167DOPC  C21620290   0.740   1.337   5.242 -0.6937 -0.0316 -0.3330
  167DOPC  H16R20291   0.831   1.400   5.226 -0.9495  0.0196 -1.7285
  167DOPC  H16S20292   0.655   1.391   5.195 -0.1825 -0.5794 -1.9611
  167DOPC  C21720293   0.745   1.202   5.162 -0.2563  1.1909 -0.9653
  167DOPC  H17R20294   0.658   1.143   5.199 -0.3132  1.6740 -0.3093
  167DOPC  H17S20295   0.842   1.160   5.195 -0.3458  2.0055  0.4075
  167DOPC  C21820296   0.737   1.222   5.011  0.1816 -0.0633 -0.3871
  167DOPC  H18R20297   0.798   1.313   4.994 -0.6635  1.0259  1.9376
  167DOPC  H18S20298   0.633   1.240   4.975 -0.1573  0.4130  0.7584
  167DOPC  H18T20299   0.778   1.134   4.958  1.8065 -0.6124  1.6457
  167DOPC   C3320300  -0.542   0.763   6.189  0.4915 -0.2454 -0.1026
  167DOPC   H3X20301  -0.461   0.837   6.202 -2.6459  3.2726  1.2325
  167DOPC   H3Y20302  -0.596   0.798   6.099  0.1851 -1.7596 -0.5303
  167DOPC   C3420303  -0.481   0.629   6.152 -0.1625  0.2070 -0.3497
  167DOPC   H4X20304  -0.557   0.575   6.092 -0.9335  2.1632 -1.2023
  167DOPC   H4Y20305  -0.473   0.580   6.252 -1.3182  0.0057 -0.3473
  167DOPC   C3520306  -0.336   0.623   6.085 -0.1267  0.5479  0.3635
  167DOPC   H5X20307  -0.274   0.689   6.149 -0.6643  0.7401  0.6911
  167DOPC   H5Y20308  -0.347   0.668   5.984  0.0471 -0.5846 -0.1762
  167DOPC   C3620309  -0.284   0.479   6.071 -0.4627  0.0815 -0.4617
  167DOPC   H6X20310  -0.341   0.418   5.997  0.4950  0.7910 -1.8298
  167DOPC   H6Y20311  -0.185   0.482   6.021 -1.0075 -0.2724 -1.6030
  167DOPC   C3720312  -0.261   0.397   6.197  0.3099  0.2102  0.3505
  167DOPC   H7X20313  -0.198   0.452   6.270 -1.2109  0.4413  1.5423
  167DOPC   H7Y20314  -0.360   0.369   6.239  0.5496 -0.0134  0.7748
  167DOPC   C3820315  -0.186   0.261   6.172 -0.7314  0.4502 -0.1900
  167DOPC   H8X20316  -0.084   0.297   6.147 -1.2651  2.0956 -0.1114
  167DOPC   H8Y20317  -0.227   0.208   6.083  0.1077 -2.4534  1.0237
  167DOPC   C3920318  -0.191   0.175   6.301  0.1689  0.6171  0.3117
  167DOPC   H9X20319  -0.142   0.227   6.385  0.7355 -2.0809  1.7620
  167DOPC  C31020320  -0.235   0.046   6.308  0.2866  0.4131  0.0394
  167DOPC  H10X20321  -0.223  -0.011   6.402 -1.2621  2.6225  1.6711
  167DOPC  C31120322  -0.296  -0.030   6.184 -1.0150 -0.5285  0.1573
  167DOPC  H11X20323  -0.262   0.012   6.086  0.3999 -1.2075  0.3281
  167DOPC  H11Y20324  -0.406  -0.035   6.199 -1.0967 -0.7131 -0.4871
  167DOPC  C31220325  -0.269  -0.184   6.162 -0.3639 -0.0579 -0.8694
  167DOPC  H12X20326  -0.281  -0.236   6.259  1.2399 -0.7426 -1.0043
  167DOPC  H12Y20327  -0.162  -0.207   6.143  0.1879  0.4967  1.3522
  167DOPC  C31320328  -0.350  -0.240   6.050  0.1815  0.0085  1.0091
  167DOPC  H13X20329  -0.455  -0.258   6.078  0.5254  1.4904  3.5019
  167DOPC  H13Y20330  -0.361  -0.158   5.976  2.0067  1.5882  2.3764
  167DOPC  C31420331  -0.300  -0.366   5.974  0.3344  0.3152 -0.1034
  167DOPC  H14X20332  -0.339  -0.370   5.871 -3.4444 -0.2733  1.1883
  167DOPC  H14Y20333  -0.189  -0.360   5.973  0.3750  0.3636  1.3766
  167DOPC  C31520334  -0.341  -0.499   6.035  0.5525  0.1057  0.0221
  167DOPC  H15X20335  -0.324  -0.588   5.972  1.8128  0.2799  0.0988
  167DOPC  H15Y20336  -0.451  -0.494   6.050  0.5930 -0.2332  0.4579
  167DOPC  C31620337  -0.289  -0.540   6.183 -0.6191  0.3649  0.2759
  167DOPC  H16X20338  -0.177  -0.537   6.184 -0.6211  0.2091  0.9101
  167DOPC  H16Y20339  -0.330  -0.450   6.233 -0.6408 -0.0932  1.0948
  167DOPC  C31720340  -0.345  -0.672   6.241 -0.1603  0.0427  0.3140
  167DOPC  H17X20341  -0.456  -0.678   6.241 -0.1057 -1.3925  0.3492
  167DOPC  H17Y20342  -0.302  -0.752   6.177 -2.7764  0.3467 -2.0311
  167DOPC  C31820343  -0.304  -0.681   6.385 -0.0238  0.4451  0.3669
  167DOPC  H18X20344  -0.351  -0.593   6.434 -1.0988  0.2834 -0.3453
  167DOPC  H18Y20345  -0.322  -0.782   6.428 -1.0100  0.0992 -0.7763
  167DOPC  H18Z20346  -0.196  -0.660   6.394 -0.0911  1.3468 -0.6946
  168DOPC     N20347   3.198   6.601   7.082  0.0922 -0.1581  0.6715
  168DOPC   C1220348   3.084   6.522   7.146 -0.2546  0.3968 -0.0630
  168DOPC  H12A20349   3.035   6.589   7.216  0.5009  0.2911  0.5831
  168DOPC  H12B20350   3.135   6.449   7.206 -0.6913 -0.4234 -0.6642
  168DOPC   C1320351   3.147   6.714   6.994  0.9813 -0.1007  0.7565
  168DOPC  H13A20352   3.235   6.766   6.959  0.9307  0.6633  1.7144
  168DOPC  H13B20353   3.078   6.685   6.916 -0.1026  0.5567  1.4446
  168DOPC  H13C20354   3.088   6.778   7.060 -1.5935 -0.6501 -0.8530
  168DOPC   C1420355   3.283   6.516   6.995  0.7762 -0.2716 -0.1869
  168DOPC  H14A20356   3.361   6.577   6.954  0.7551 -1.8606 -2.8052
  168DOPC  H14B20357   3.342   6.446   7.052  1.8661 -0.2772 -1.2836
  168DOPC  H14C20358   3.224   6.471   6.917 -1.5305  2.1592 -0.0052
  168DOPC   C1520359   3.283   6.655   7.192  0.3528 -0.0446  0.3597
  168DOPC  H15A20360   3.370   6.709   7.157 -0.0693 -0.9418 -2.2999
  168DOPC  H15B20361   3.313   6.586   7.270 -0.4789 -0.0035  0.7253
  168DOPC  H15C20362   3.224   6.730   7.243  2.0245 -0.0851  2.5081
  168DOPC   C1120363   2.978   6.465   7.052  0.0879 -0.2995  0.2136
  168DOPC  H11A20364   3.024   6.397   6.978  0.7625 -0.6837  0.9832
  168DOPC  H11B20365   2.916   6.397   7.115  1.2017 -0.8912  0.6867
  168DOPC     P20366   2.777   6.628   7.078  0.2037  0.2769 -0.4659
  168DOPC   O1320367   2.841   6.715   7.179 -0.1796 -0.2145 -0.2694
  168DOPC   O1420368   2.687   6.517   7.121 -0.0204  0.3493  0.1611
  168DOPC   O1220369   2.898   6.562   6.988 -0.1398 -0.2557 -0.5914
  168DOPC   O1120370   2.698   6.709   6.973 -0.5647  0.0170 -0.5784
  168DOPC    C120371   2.756   6.829   6.924  0.5185 -0.4588 -0.4880
  168DOPC    HA20372   2.865   6.847   6.940  0.3642 -0.6297  0.9218
  168DOPC    HB20373   2.713   6.910   6.987  2.4205  1.6016 -1.6946
  168DOPC    C220374   2.726   6.863   6.775  0.4071 -0.5666 -1.0255
  168DOPC    HS20375   2.619   6.860   6.746  0.0807 -1.7593  0.1968
  168DOPC   O2120376   2.797   6.771   6.687 -0.5820  0.5263  0.0821
  168DOPC   C2120377   2.752   6.651   6.692  0.1889  0.2116  0.4686
  168DOPC   O2220378   2.640   6.620   6.726  0.3480  0.0806  0.2385
  168DOPC   C2220379   2.854   6.558   6.623  0.8321  0.5353  0.1335
  168DOPC   H2R20380   2.860   6.472   6.694  1.2075  0.5575  0.1320
  168DOPC   H2S20381   2.956   6.597   6.640  1.0197 -0.2850  1.0191
  168DOPC    C320382   2.770   7.009   6.736  0.2669  0.2640  0.0745
  168DOPC    HX20383   2.881   7.013   6.735  0.3193 -0.0234 -2.3130
  168DOPC    HY20384   2.736   7.088   6.806 -0.0790  0.5166 -0.3681
  168DOPC   O3120385   2.731   7.039   6.606 -0.0428 -0.3561  0.6438
  168DOPC   C3120386   2.621   7.116   6.589 -0.3925  0.2962 -0.5156
  168DOPC   O3220387   2.541   7.148   6.674 -0.4270  0.2790  0.4773
  168DOPC   C3220388   2.619   7.164   6.443 -0.4015  0.6927  0.2134
  168DOPC   H2X20389   2.717   7.209   6.414 -0.9031  0.4886 -1.9550
  168DOPC   H2Y20390   2.603   7.077   6.377  0.4452  1.0516 -0.4853
  168DOPC   C2320391   2.824   6.525   6.473 -0.0959 -0.3084 -0.0148
  168DOPC   H3R20392   2.721   6.484   6.464 -0.0046 -0.4516 -0.3918
  168DOPC   H3S20393   2.898   6.448   6.445  2.4774  1.9364  0.1873
  168DOPC   C2420394   2.832   6.637   6.375 -0.5332  0.0441  0.1019
  168DOPC   H4R20395   2.860   6.578   6.285 -0.2842 -1.1447  0.9332
  168DOPC   H4S20396   2.909   6.715   6.393 -0.4609  0.3971 -1.5802
  168DOPC   C2520397   2.699   6.702   6.347  0.4556 -0.2879 -0.5819
  168DOPC   H5R20398   2.683   6.768   6.435 -1.0101 -1.0485 -0.2549
  168DOPC   H5S20399   2.615   6.629   6.353  1.5228 -1.5014  0.1315
  168DOPC   C2620400   2.694   6.783   6.219  0.1777  0.0896  0.5103
  168DOPC   H6R20401   2.791   6.837   6.216  0.8356 -1.0158  1.1222
  168DOPC   H6S20402   2.616   6.862   6.217 -1.1468 -1.1660 -1.5651
  168DOPC   C2720403   2.696   6.689   6.096 -0.6414 -0.4482 -0.3246
  168DOPC   H7R20404   2.600   6.634   6.091  0.1270 -1.9127  0.3964
  168DOPC   H7S20405   2.776   6.612   6.104 -1.0235 -0.8137  0.0230
  168DOPC   C2820406   2.718   6.761   5.960 -0.5672  0.0117  0.1927
  168DOPC   H8R20407   2.814   6.816   5.962 -1.6535  2.1224  3.3074
  168DOPC   H8S20408   2.641   6.841   5.945 -1.0922 -0.3225  1.0406
  168DOPC   C2920409   2.712   6.674   5.841 -1.2763  0.0704  0.4374
  168DOPC   H9R20410   2.798   6.605   5.837 -0.3511  1.2203 -0.0012
  168DOPC  C21020411   2.627   6.667   5.732 -0.0159  0.4834  0.0552
  168DOPC  H10R20412   2.639   6.591   5.654  0.1859  0.9308 -0.3557
  168DOPC  C21120413   2.514   6.760   5.706 -0.9252 -0.9338 -0.4387
  168DOPC  H11R20414   2.500   6.813   5.609 -1.0719 -1.1597 -0.5401
  168DOPC  H11S20415   2.512   6.847   5.775  1.4165 -0.3433 -1.0118
  168DOPC  C21220416   2.387   6.682   5.724 -0.3606 -0.3234 -0.5156
  168DOPC  H12R20417   2.381   6.602   5.647 -0.8275 -1.7563  0.9434
  168DOPC  H12S20418   2.304   6.751   5.699  1.3729  1.8897 -0.4984
  168DOPC  C21320419   2.366   6.626   5.869  0.2850 -0.6460  0.1787
  168DOPC  H13R20420   2.365   6.715   5.936 -1.1194 -1.0692  0.7444
  168DOPC  H13S20421   2.456   6.562   5.885  0.2524 -1.5818 -2.6896
  168DOPC  C21420422   2.233   6.555   5.892  0.0524  0.3100 -0.6058
  168DOPC  H14R20423   2.224   6.471   5.819  0.2130 -1.3385  1.1960
  168DOPC  H14S20424   2.139   6.610   5.870  0.1378  0.0751 -1.6159
  168DOPC  C21520425   2.237   6.508   6.044 -0.0252  0.0929 -0.0727
  168DOPC  H15R20426   2.134   6.474   6.068  0.2660 -1.5259 -0.8858
  168DOPC  H15S20427   2.270   6.590   6.110  2.2705 -2.3613  2.0233
  168DOPC  C21620428   2.329   6.389   6.071  0.3373 -0.3233 -0.2812
  168DOPC  H16R20429   2.429   6.436   6.086  1.3770 -1.9662 -1.6635
  168DOPC  H16S20430   2.328   6.313   5.989 -0.6713  1.3338 -1.8736
  168DOPC  C21720431   2.303   6.316   6.207  0.6154  0.1289  1.0481
  168DOPC  H17R20432   2.217   6.247   6.190  0.8039  0.0930  0.1726
  168DOPC  H17S20433   2.269   6.395   6.277 -0.5693 -0.0689  0.7172
  168DOPC  C21820434   2.424   6.238   6.264 -0.2462  0.6421  0.5782
  168DOPC  H18R20435   2.509   6.306   6.285  0.8394 -0.3578 -0.4332
  168DOPC  H18S20436   2.457   6.172   6.181  0.4477  0.5387  0.9315
  168DOPC  H18T20437   2.409   6.184   6.360  1.8968  0.4019  0.8247
  168DOPC   C3320438   2.517   7.280   6.423 -0.0428  0.5431  0.6903
  168DOPC   H3X20439   2.571   7.369   6.462  2.6456 -0.7915  0.2360
  168DOPC   H3Y20440   2.416   7.262   6.466 -1.6519  0.2416 -2.8571
  168DOPC   C3420441   2.486   7.308   6.276 -0.2699  0.2184  1.1485
  168DOPC   H4X20442   2.574   7.334   6.214 -0.6632 -1.0747  0.0009
  168DOPC   H4Y20443   2.419   7.397   6.279  1.8675  1.8654  3.1025
  168DOPC   C3520444   2.416   7.187   6.203  0.4017 -0.3656  0.0754
  168DOPC   H5X20445   2.344   7.146   6.278 -1.1800  0.1909 -1.0886
  168DOPC   H5Y20446   2.493   7.111   6.177  1.1268  0.7975 -1.2975
  168DOPC   C3620447   2.327   7.234   6.092  0.2954 -0.5946  0.0785
  168DOPC   H6X20448   2.251   7.154   6.077  0.6383 -0.9518  0.2060
  168DOPC   H6Y20449   2.261   7.317   6.124  1.0554  0.2431 -0.4672
  168DOPC   C3720450   2.397   7.287   5.969 -0.5287  0.4960 -0.3442
  168DOPC   H7X20451   2.330   7.344   5.902 -0.9708 -0.5629 -0.8321
  168DOPC   H7Y20452   2.474   7.359   6.001 -0.6846 -0.1956  1.7844
  168DOPC   C3820453   2.463   7.169   5.900  0.3096  0.5279  0.6063
  168DOPC   H8X20454   2.523   7.115   5.976  0.1990 -1.7869 -0.8560
  168DOPC   H8Y20455   2.538   7.210   5.829 -0.9719  1.2484 -0.3696
  168DOPC   C3920456   2.365   7.078   5.831  1.0163  0.9468 -0.1557
  168DOPC   H9X20457   2.349   6.980   5.876  0.1880  1.9979  1.9748
  168DOPC  C31020458   2.317   7.091   5.704 -0.3132  0.5221  0.7594
  168DOPC  H10X20459   2.250   7.018   5.657 -0.2578  2.7690 -3.2625
  168DOPC  C31120460   2.349   7.214   5.616  0.0833  0.3458  0.3074
  168DOPC  H11X20461   2.411   7.290   5.667  0.3294  1.2554 -1.2861
  168DOPC  H11Y20462   2.254   7.255   5.575 -0.4483 -1.2786 -0.1801
  168DOPC  C31220463   2.430   7.181   5.480 -0.3952  0.2216  0.4236
  168DOPC  H12X20464   2.437   7.275   5.421  1.1666  0.3906  0.8229
  168DOPC  H12Y20465   2.366   7.109   5.426 -0.4406  0.7576 -0.2512
  168DOPC  C31320466   2.574   7.124   5.489 -0.3492 -0.5085  0.3723
  168DOPC  H13X20467   2.641   7.169   5.564 -0.1120  0.3372 -0.3323
  168DOPC  H13Y20468   2.564   7.018   5.520  0.7600 -0.3695  1.2337
  168DOPC  C31420469   2.655   7.130   5.360  0.1764  0.1835  0.2508
  168DOPC  H14X20470   2.680   7.237   5.339  1.8790 -0.1419  0.4501
  168DOPC  H14Y20471   2.754   7.083   5.377  1.4288  2.3043 -0.7903
  168DOPC  C31520472   2.580   7.075   5.242  0.2310 -0.0300 -0.0744
  168DOPC  H15X20473   2.475   7.111   5.231  0.7957  1.4432 -0.9307
  168DOPC  H15Y20474   2.551   6.973   5.275 -1.0061  1.0148  2.3460
  168DOPC  C31620475   2.657   7.049   5.115  1.0345 -0.1759  0.3992
  168DOPC  H16X20476   2.655   7.141   5.053  1.0246 -0.1729  0.4041
  168DOPC  H16Y20477   2.762   7.020   5.132  1.4618  0.6486 -0.7255
  168DOPC  C31720478   2.586   6.950   5.013 -0.9241 -0.6711 -0.3316
  168DOPC  H17X20479   2.665   6.938   4.936  1.0833 -0.7250  1.6399
  168DOPC  H17Y20480   2.569   6.845   5.044  0.1429 -1.3427 -1.8742
  168DOPC  C31820481   2.459   7.018   4.953 -0.6536 -0.1082  0.6537
  168DOPC  H18X20482   2.406   6.972   4.868 -1.9809  1.8650  0.3682
  168DOPC  H18Y20483   2.384   7.038   5.032  1.7255 -0.9618  3.3307
  168DOPC  H18Z20484   2.498   7.116   4.919 -0.3177 -0.1623  0.8756
  169DOPC     N20485   1.049   0.876   7.355  0.2776 -0.1818  0.3217
  169DOPC   C1220486   1.165   0.863   7.258 -0.1931  0.1262 -0.0903
  169DOPC  H12A20487   1.241   0.800   7.301 -0.1149  0.7396  0.7063
  169DOPC  H12B20488   1.210   0.960   7.245 -0.2251  0.2912  0.9136
  169DOPC   C1320489   0.977   0.750   7.379 -0.0373  0.2447 -0.5119
  169DOPC  H13A20490   0.951   0.709   7.282  4.0337  1.0623 -2.1662
  169DOPC  H13B20491   1.041   0.678   7.426  0.0195  1.0707  0.7039
  169DOPC  H13C20492   0.890   0.771   7.439  0.5896  2.5640 -0.2965
  169DOPC   C1420493   0.953   0.970   7.288  0.2382 -0.4382  0.2666
  169DOPC  H14A20494   0.869   1.003   7.347 -0.3751 -1.3908 -0.0607
  169DOPC  H14B20495   1.004   1.060   7.257  0.6075 -0.4470  0.8261
  169DOPC  H14C20496   0.912   0.920   7.202  0.3034  0.1929 -0.1378
  169DOPC   C1520497   1.091   0.929   7.488  0.1492 -0.4177  0.9649
  169DOPC  H15A20498   0.998   0.949   7.538 -1.8475  0.8819 -2.8276
  169DOPC  H15B20499   1.138   1.026   7.475 -0.2593 -0.1318  1.5857
  169DOPC  H15C20500   1.160   0.862   7.537 -2.0806 -3.0362  0.7596
  169DOPC   C1120501   1.140   0.824   7.108  0.1763  0.5602 -0.3579
  169DOPC  H11A20502   1.111   0.921   7.064 -2.5874 -0.8502 -1.8803
  169DOPC  H11B20503   1.239   0.790   7.068  0.1272 -0.6914  0.5069
  169DOPC     P20504   0.921   0.746   6.978 -0.2794 -0.0091  0.2775
  169DOPC   O1320505   0.851   0.875   6.972  0.2667 -0.1062 -0.1540
  169DOPC   O1420506   0.830   0.630   6.984  0.3817  0.1240 -0.5744
  169DOPC   O1220507   1.028   0.737   7.092  0.2890  0.5274 -0.3114
  169DOPC   O1120508   1.002   0.729   6.843 -0.6936  0.8066  0.1522
  169DOPC    C120509   1.100   0.630   6.831  0.2344  0.2334 -0.7329
  169DOPC    HA20510   1.057   0.528   6.847  0.3294 -0.2512 -3.1607
  169DOPC    HB20511   1.179   0.649   6.906  1.1405  0.6464 -1.7585
  169DOPC    C220512   1.171   0.639   6.692 -0.1077  0.5996  0.3460
  169DOPC    HS20513   1.254   0.565   6.698  0.3264  1.1634  1.8225
  169DOPC   O2120514   1.222   0.770   6.665 -0.5302 -1.0002  0.2202
  169DOPC   C2120515   1.319   0.814   6.751  0.0946 -0.0150 -0.0622
  169DOPC   O2220516   1.400   0.750   6.811 -0.1070 -0.0413  0.1026
  169DOPC   C2220517   1.331   0.967   6.763  0.3441  0.3927 -0.2376
  169DOPC   H2R20518   1.410   0.983   6.840  0.7521 -0.0511 -0.5618
  169DOPC   H2S20519   1.237   1.010   6.804  1.2729  4.1237 -1.6533
  169DOPC    C320520   1.078   0.603   6.567  0.1113 -0.3107  0.0438
  169DOPC    HX20521   0.985   0.661   6.585  0.2364  0.2822 -1.1285
  169DOPC    HY20522   1.061   0.494   6.584  0.4556 -0.1057  1.8471
  169DOPC   O3120523   1.148   0.618   6.439 -0.1148 -0.6397  0.1161
  169DOPC   C3120524   1.116   0.730   6.370  0.5922 -0.1502  0.6654
  169DOPC   O3220525   1.041   0.819   6.405 -0.1906  0.1909 -0.5548
  169DOPC   C3220526   1.195   0.716   6.237 -0.3398 -0.9331 -0.7355
  169DOPC   H2X20527   1.220   0.823   6.217 -0.7775 -0.8206 -0.6866
  169DOPC   H2Y20528   1.297   0.678   6.256 -0.2056 -1.4401 -2.3044
  169DOPC   C2320529   1.346   1.033   6.623  0.1268 -0.1944  0.0558
  169DOPC   H3R20530   1.319   1.140   6.636 -0.0662 -0.3441  0.9780
  169DOPC   H3S20531   1.273   0.997   6.547 -0.0729  1.1082 -0.3924
  169DOPC   C2420532   1.483   1.027   6.555 -0.7124  0.1024 -0.5472
  169DOPC   H4R20533   1.569   1.054   6.619 -0.0807 -0.9217 -0.9545
  169DOPC   H4S20534   1.479   1.100   6.471  0.3709 -1.3607 -1.9059
  169DOPC   C2520535   1.522   0.889   6.493 -0.1107 -0.1920 -0.2012
  169DOPC   H5R20536   1.434   0.861   6.431 -2.5346  1.6838  2.1297
  169DOPC   H5S20537   1.531   0.821   6.580 -2.3016 -0.3125 -0.0084
  169DOPC   C2620538   1.663   0.884   6.431 -0.9707  0.0135  0.6667
  169DOPC   H6R20539   1.712   0.784   6.427  0.8319  0.8548  0.4580
  169DOPC   H6S20540   1.715   0.955   6.499 -1.8973  1.1500  0.1997
  169DOPC   C2720541   1.670   0.958   6.301  0.3054  0.4408  0.6925
  169DOPC   H7R20542   1.778   0.983   6.293  0.5298 -0.4919  0.6387
  169DOPC   H7S20543   1.612   1.052   6.308  0.2116  0.5267 -0.8310
  169DOPC   C2820544   1.640   0.866   6.176 -0.5125 -0.5415 -0.0579
  169DOPC   H8R20545   1.553   0.807   6.210 -0.4578  0.5477  2.1602
  169DOPC   H8S20546   1.725   0.794   6.172 -0.2287 -0.7414  4.4794
  169DOPC   C2920547   1.612   0.946   6.053  0.1711  0.3976 -0.2834
  169DOPC   H9R20548   1.593   1.053   6.074 -0.1587  0.4653 -0.9181
  169DOPC  C21020549   1.617   0.911   5.928  0.5091 -0.3742 -0.3370
  169DOPC  H10R20550   1.603   0.991   5.854 -1.9950 -0.0973  0.3422
  169DOPC  C21120551   1.633   0.767   5.877 -0.3317 -0.4024 -0.2567
  169DOPC  H11R20552   1.532   0.728   5.851 -1.2244  0.4204  1.7729
  169DOPC  H11S20553   1.674   0.699   5.954 -2.3186  0.2763  1.4818
  169DOPC  C21220554   1.720   0.766   5.752 -0.6216  0.6060 -0.6574
  169DOPC  H12R20555   1.758   0.663   5.734 -0.3368  0.9665 -2.2901
  169DOPC  H12S20556   1.813   0.823   5.773 -0.8487  0.2755  1.4438
  169DOPC  C21320557   1.644   0.824   5.630 -0.1844 -0.3503 -0.0148
  169DOPC  H13R20558   1.643   0.935   5.630 -2.8980 -0.3047  0.4058
  169DOPC  H13S20559   1.541   0.783   5.622 -0.1475 -0.7334  1.2669
  169DOPC  C21420560   1.708   0.788   5.492 -0.4655  0.2033 -0.3250
  169DOPC  H14R20561   1.817   0.805   5.492 -0.5028  0.8589 -3.0104
  169DOPC  H14S20562   1.675   0.849   5.405  2.3881  2.9973  0.3727
  169DOPC  C21520563   1.693   0.631   5.465 -0.6084  1.0043 -0.5119
  169DOPC  H15R20564   1.584   0.617   5.452 -0.7646  2.2833 -0.6891
  169DOPC  H15S20565   1.733   0.585   5.558 -1.9843 -2.0462 -1.2837
  169DOPC  C21620566   1.778   0.600   5.344 -0.8477  0.1764 -0.2366
  169DOPC  H16R20567   1.813   0.495   5.352  1.3640  0.9873  2.0804
  169DOPC  H16S20568   1.866   0.668   5.344  0.1216 -1.0419 -0.0403
  169DOPC  C21720569   1.714   0.616   5.210  0.9620 -0.9864  0.4386
  169DOPC  H17R20570   1.677   0.721   5.203  0.1985 -0.9846  3.2771
  169DOPC  H17S20571   1.629   0.546   5.215 -0.0402  0.1485 -0.1842
  169DOPC  C21820572   1.802   0.585   5.092  0.2567 -0.5282  0.2069
  169DOPC  H18R20573   1.893   0.648   5.088  0.8657 -1.2753  1.6700
  169DOPC  H18S20574   1.749   0.612   4.998  0.6951  3.6706  0.9724
  169DOPC  H18T20575   1.823   0.476   5.095  1.1305 -0.5023 -2.6185
  169DOPC   C3320576   1.121   0.652   6.120  0.4510 -0.2311  0.0616
  169DOPC   H3X20577   1.019   0.695   6.111 -0.2283 -2.0847 -1.7177
  169DOPC   H3Y20578   1.100   0.543   6.129  0.8252 -0.8853 -4.4502
  169DOPC   C3420579   1.200   0.673   5.989 -0.0885  0.4068  0.3884
  169DOPC   H4X20580   1.304   0.635   5.992 -0.8335 -1.8477  0.1478
  169DOPC   H4Y20581   1.208   0.783   5.974 -1.8044  0.3994 -0.9131
  169DOPC   C3520582   1.129   0.599   5.881  0.1799  0.3860  0.5228
  169DOPC   H5X20583   1.028   0.643   5.874 -0.7596 -1.7004  0.3168
  169DOPC   H5Y20584   1.116   0.490   5.895 -0.3910  0.2746 -0.7179
  169DOPC   C3620585   1.199   0.604   5.734 -0.0013 -0.5534 -0.7536
  169DOPC   H6X20586   1.222   0.706   5.698  1.3111 -1.1972 -1.8777
  169DOPC   H6Y20587   1.299   0.556   5.738  0.9776  1.3695 -1.3039
  169DOPC   C3720588   1.124   0.541   5.626 -0.2151  0.7965  0.2440
  169DOPC   H7X20589   1.115   0.431   5.637  2.4342  0.4861 -0.0714
  169DOPC   H7Y20590   1.020   0.581   5.625 -0.3875  0.3598 -0.3833
  169DOPC   C3820591   1.181   0.565   5.486 -0.3196  0.2733  0.4841
  169DOPC   H8X20592   1.191   0.676   5.480  0.3664  0.1310 -2.6335
  169DOPC   H8Y20593   1.092   0.552   5.421 -1.8452  0.3934  2.4512
  169DOPC   C3920594   1.310   0.499   5.461 -0.3493  0.5345  0.1264
  169DOPC   H9X20595   1.391   0.527   5.530 -0.7351 -0.7058  1.1112
  169DOPC  C31020596   1.326   0.404   5.358  0.9795 -1.2919 -0.0221
  169DOPC  H10X20597   1.413   0.337   5.360  1.6472 -0.4897 -1.2695
  169DOPC  C31120598   1.219   0.358   5.253 -0.4781  0.2141 -1.0574
  169DOPC  H11X20599   1.119   0.397   5.281 -0.3754  1.3838 -2.2111
  169DOPC  H11Y20600   1.188   0.252   5.262  2.0345 -0.3981  1.9592
  169DOPC  C31220601   1.242   0.417   5.116  0.4495 -0.2448 -0.5122
  169DOPC  H12X20602   1.233   0.528   5.116  0.5539 -0.1783  1.8905
  169DOPC  H12Y20603   1.155   0.390   5.054 -1.2510  2.7091  0.3814
  169DOPC  C31320604   1.374   0.369   5.051 -0.9755  0.1594 -0.0229
  169DOPC  H13X20605   1.459   0.438   5.074  0.1209 -1.6392  1.6213
  169DOPC  H13Y20606   1.415   0.267   5.067 -0.9993 -0.1981 -2.0110
  169DOPC  C31420607   1.339   0.352   4.898 -0.4620  0.4145  0.0967
  169DOPC  H14X20608   1.270   0.266   4.885  1.0372 -0.6827 -0.9490
  169DOPC  H14Y20609   1.284   0.441   4.862  0.0013 -0.4149 -2.9450
  169DOPC  C31520610   1.472   0.321   4.824  0.0466 -0.0826 -0.3430
  169DOPC  H15X20611   1.459   0.315   4.713  2.7320 -0.6196 -0.7076
  169DOPC  H15Y20612   1.512   0.219   4.843  0.5968  0.1881 -0.0187
  169DOPC  C31620613   1.593   0.414   4.840  0.0483  0.6730 -0.1845
  169DOPC  H16X20614   1.561   0.519   4.858  0.1880  0.6081  0.4655
  169DOPC  H16Y20615   1.651   0.376   4.927  2.1252  3.7820 -0.0151
  169DOPC  C31720616   1.691   0.414   4.720  0.0316 -0.1729 -0.0570
  169DOPC  H17X20617   1.630   0.429   4.629 -2.0142  0.0293  1.2939
  169DOPC  H17Y20618   1.761   0.500   4.718  0.0624 -0.1579  0.9745
  169DOPC  C31820619   1.767   0.280   4.691 -0.0565  0.0638  0.6420
  169DOPC  H18X20620   1.849   0.286   4.616 -0.6861 -0.4750 -0.1046
  169DOPC  H18Y20621   1.815   0.253   4.787 -0.2858 -1.5261  0.3367
  169DOPC  H18Z20622   1.689   0.204   4.670  0.5140 -0.4410  0.3230
  170DOPC     N20623   7.600   5.909   7.174 -0.1708 -0.0762  0.1944
  170DOPC   C1220624   7.752   5.912   7.174 -0.3115 -0.2987  0.0733
  170DOPC  H12A20625   7.786   5.857   7.088 -2.1917  0.6928 -1.3653
  170DOPC  H12B20626   7.789   5.867   7.265  0.9405  0.5328  0.0107
  170DOPC   C1320627   7.541   5.991   7.069  0.7250 -0.5461 -0.2294
  170DOPC  H13A20628   7.580   5.961   6.973 -0.3783 -0.3669 -0.7505
  170DOPC  H13B20629   7.433   5.982   7.076  0.7869  0.0483  1.9953
  170DOPC  H13C20630   7.572   6.094   7.080 -0.0419 -0.5098  2.1303
  170DOPC   C1420631   7.550   5.958   7.304  0.4949 -0.2708  0.2464
  170DOPC  H14A20632   7.595   6.054   7.326  0.0227 -0.1697  0.8008
  170DOPC  H14B20633   7.443   5.970   7.293  0.1231 -3.2075 -0.2204
  170DOPC  H14C20634   7.569   5.885   7.381  2.1594 -2.2083 -1.8434
  170DOPC   C1520635   7.549   5.767   7.157 -0.3299  0.0319 -0.2758
  170DOPC  H15A20636   7.585   5.720   7.067 -2.8867 -0.0925 -1.3142
  170DOPC  H15B20637   7.444   5.776   7.134 -0.8308  1.4372  2.1852
  170DOPC  H15C20638   7.566   5.706   7.245 -0.6810 -1.3143 -1.1107
  170DOPC   C1120639   7.820   6.051   7.156 -0.5239  0.0030 -0.7389
  170DOPC  H11A20640   7.929   6.029   7.163 -0.5839  0.2689  3.1983
  170DOPC  H11B20641   7.795   6.088   7.055 -0.5519 -0.5964 -0.9547
  170DOPC     P20642   7.861   6.252   7.316  0.4398  0.1671  0.1469
  170DOPC   O1320643   7.991   6.205   7.372  0.1439  0.1880 -0.2404
  170DOPC   O1420644   7.776   6.324   7.407 -0.2966  0.3419  0.2382
  170DOPC   O1220645   7.769   6.138   7.260 -0.4753  0.7327  0.0053
  170DOPC   O1120646   7.891   6.340   7.192 -0.2711  0.3991  0.0184
  170DOPC    C120647   7.778   6.374   7.099  0.3953 -0.0182  0.6247
  170DOPC    HA20648   7.722   6.456   7.150  1.6764 -0.2272  2.4848
  170DOPC    HB20649   7.705   6.291   7.089  0.8135 -0.2841 -0.3674
  170DOPC    C220650   7.815   6.420   6.954 -0.1908  0.4002 -0.7917
  170DOPC    HS20651   7.715   6.428   6.906 -1.9398 -1.1233  2.2381
  170DOPC   O2120652   7.901   6.319   6.904 -0.4887 -0.0598 -0.1558
  170DOPC   C2120653   7.907   6.306   6.769 -0.8716  0.2338  1.2163
  170DOPC   O2220654   7.818   6.331   6.689 -0.1190 -0.0443 -0.1519
  170DOPC   C2220655   8.050   6.256   6.724 -0.5170 -0.4158 -0.3630
  170DOPC   H2R20656   8.048   6.153   6.767  0.3905 -0.0296  0.6374
  170DOPC   H2S20657   8.126   6.306   6.787 -0.3568  0.0298 -0.9077
  170DOPC    C320658   7.897   6.556   6.951 -0.2742  0.1266  0.2988
  170DOPC    HX20659   7.990   6.545   7.012 -0.8887  0.5947  1.3633
  170DOPC    HY20660   7.843   6.635   7.009 -1.6022 -0.3838 -0.2055
  170DOPC   O3120661   7.926   6.598   6.821 -0.5073 -0.4527 -0.2647
  170DOPC   C3120662   7.817   6.648   6.757  0.2138  0.0613 -0.0057
  170DOPC   O3220663   7.712   6.676   6.808  0.4700 -0.1251  0.7741
  170DOPC   C3220664   7.859   6.683   6.619 -0.5626 -0.5065  0.1892
  170DOPC   H2X20665   7.847   6.793   6.612  1.5299 -0.3124 -1.5021
  170DOPC   H2Y20666   7.966   6.671   6.592 -0.4751 -0.2433  0.4209
  170DOPC   C2320667   8.097   6.262   6.576  0.3549 -1.4836 -0.1643
  170DOPC   H3R20668   8.023   6.215   6.509 -1.1466 -1.3926  1.3693
  170DOPC   H3S20669   8.190   6.202   6.576  1.3342 -0.0323  0.1015
  170DOPC   C2420670   8.146   6.400   6.518  0.7635 -0.5358  0.0287
  170DOPC   H4R20671   8.053   6.455   6.495  0.4350 -0.2573  1.8896
  170DOPC   H4S20672   8.199   6.393   6.421 -0.4185 -0.0763 -0.6595
  170DOPC   C2520673   8.213   6.496   6.618 -0.1072  0.2989  0.4306
  170DOPC   H5R20674   8.306   6.450   6.659  0.3623  0.3658 -0.5131
  170DOPC   H5S20675   8.153   6.514   6.709  0.6844  0.5811  0.9043
  170DOPC   C2620676   8.250   6.639   6.561  0.1351  0.5504  0.4514
  170DOPC   H6R20677   8.294   6.694   6.646  0.6219 -0.2885  0.7599
  170DOPC   H6S20678   8.166   6.702   6.525  0.9092  1.2869 -0.1133
  170DOPC   C2720679   8.359   6.631   6.444 -0.0274  0.2563 -0.7081
  170DOPC   H7R20680   8.322   6.572   6.357  0.9478  1.6472 -2.1204
  170DOPC   H7S20681   8.445   6.573   6.483 -1.0294  0.0722  1.3283
  170DOPC   C2820682   8.398   6.769   6.395  0.7518 -0.3770 -0.3801
  170DOPC   H8R20683   8.430   6.825   6.486  0.7967  0.5205 -0.9369
  170DOPC   H8S20684   8.316   6.833   6.356  1.4178  0.4714 -0.4272
  170DOPC   C2920685   8.514   6.761   6.302 -0.3721 -0.8240 -0.7992
  170DOPC   H9R20686   8.616   6.769   6.342 -0.6080  1.8300 -0.5699
  170DOPC  C21020687   8.512   6.741   6.171  0.3848  0.1055  0.5117
  170DOPC  H10R20688   8.609   6.740   6.118  1.2087 -3.3834  1.7638
  170DOPC  C21120689   8.390   6.703   6.088 -0.4885 -0.2472 -0.5674
  170DOPC  H11R20690   8.316   6.652   6.153 -0.8686  0.2487 -0.6125
  170DOPC  H11S20691   8.401   6.634   6.002  0.7195 -0.6296 -0.1278
  170DOPC  C21220692   8.330   6.832   6.029  0.3887 -0.0250  0.6730
  170DOPC  H12R20693   8.402   6.881   5.960 -0.4477 -0.0121 -0.2189
  170DOPC  H12S20694   8.284   6.893   6.109  0.7505 -0.5156  1.2552
  170DOPC  C21320695   8.211   6.802   5.934 -0.1402 -0.5981  0.1373
  170DOPC  H13R20696   8.134   6.753   5.996  0.0398 -1.0867 -0.0167
  170DOPC  H13S20697   8.238   6.728   5.855 -1.4930  0.8605 -1.7951
  170DOPC  C21420698   8.168   6.932   5.863  0.1588 -0.3480  0.1421
  170DOPC  H14R20699   8.258   6.982   5.821  0.2293 -0.7507 -0.1841
  170DOPC  H14S20700   8.121   7.001   5.938 -0.9908 -0.2196 -0.6753
  170DOPC  C21520701   8.075   6.909   5.738 -0.1727 -0.2360 -0.6533
  170DOPC  H15R20702   8.046   7.009   5.701  0.5725  0.2740  0.1085
  170DOPC  H15S20703   7.989   6.847   5.771  0.6040 -0.5832  0.8306
  170DOPC  C21620704   8.153   6.824   5.629 -0.6009 -0.3641  0.0946
  170DOPC  H16R20705   8.131   6.716   5.633 -0.2126 -0.4815 -0.6247
  170DOPC  H16S20706   8.261   6.841   5.652  0.1201  0.8945 -3.5212
  170DOPC  C21720707   8.117   6.867   5.489 -0.7299 -0.3743 -0.7672
  170DOPC  H17R20708   8.007   6.854   5.479 -1.2507  2.1381  0.9264
  170DOPC  H17S20709   8.156   6.788   5.421  0.3648 -0.6703  0.1780
  170DOPC  C21820710   8.165   7.009   5.447  0.6972  0.0840 -0.8359
  170DOPC  H18R20711   8.271   7.033   5.468  1.0615 -1.1163 -1.2136
  170DOPC  H18S20712   8.097   7.080   5.498  1.3142  0.0947 -0.0122
  170DOPC  H18T20713   8.142   7.020   5.338 -1.0360 -1.8860 -0.7387
  170DOPC   C3320714   7.769   6.632   6.506  0.8893  0.1914 -0.4609
  170DOPC   H3X20715   7.734   6.530   6.536 -0.5428  1.4024  2.4100
  170DOPC   H3Y20716   7.832   6.604   6.419  0.9078  0.1306 -0.4289
  170DOPC   C3420717   7.665   6.736   6.454  0.5583  0.7027  0.2467
  170DOPC   H4X20718   7.728   6.821   6.422 -0.4902  1.4043 -0.0023
  170DOPC   H4Y20719   7.595   6.779   6.530  0.1015 -0.8926  0.7744
  170DOPC   C3520720   7.591   6.686   6.329  0.0323 -0.1172 -0.4469
  170DOPC   H5X20721   7.514   6.762   6.302 -0.0024  0.1231  0.2962
  170DOPC   H5Y20722   7.538   6.594   6.360  0.7190  0.1397  1.6327
  170DOPC   C3620723   7.680   6.665   6.200 -0.8337  0.5624 -0.1324
  170DOPC   H6X20724   7.768   6.733   6.204  0.3469 -0.9207  0.2780
  170DOPC   H6Y20725   7.721   6.561   6.202  1.8823  1.5597 -0.4248
  170DOPC   C3720726   7.610   6.679   6.059 -0.0450  0.4586 -0.0970
  170DOPC   H7X20727   7.515   6.621   6.056  0.0695  0.3000 -1.5928
  170DOPC   H7Y20728   7.599   6.787   6.036 -1.5544 -0.1948 -2.8643
  170DOPC   C3820729   7.687   6.628   5.937 -0.1873 -0.5362  0.1267
  170DOPC   H8X20730   7.734   6.533   5.970  0.8343  0.1656  0.7406
  170DOPC   H8Y20731   7.772   6.697   5.920 -0.5584 -0.5215 -2.0794
  170DOPC   C3920732   7.604   6.599   5.812  0.1367 -0.1614 -0.2778
  170DOPC   H9X20733   7.500   6.581   5.841 -0.3158  2.6617  0.1015
  170DOPC  C31020734   7.654   6.587   5.682  0.4968 -0.6013 -0.8042
  170DOPC  H10X20735   7.594   6.522   5.616 -0.4735  1.1369 -1.6938
  170DOPC  C31120736   7.795   6.604   5.647  0.3139  0.6263 -0.0290
  170DOPC  H11X20737   7.860   6.662   5.716  2.8083 -0.4234 -1.3458
  170DOPC  H11Y20738   7.802   6.657   5.549 -0.2395  3.4726  1.3710
  170DOPC  C31220739   7.870   6.467   5.650 -0.2227 -0.1283 -0.6120
  170DOPC  H12X20740   7.861   6.408   5.743  0.1849  1.1227  0.2332
  170DOPC  H12Y20741   7.979   6.483   5.642 -0.3597 -0.0874 -3.6782
  170DOPC  C31320742   7.831   6.379   5.536 -0.4820 -0.0212 -0.0918
  170DOPC  H13X20743   7.732   6.336   5.559 -1.0503  1.3169  0.0543
  170DOPC  H13Y20744   7.814   6.439   5.444  0.7354 -1.1922 -1.1391
  170DOPC  C31420745   7.940   6.270   5.507  0.1117 -0.2229  0.0241
  170DOPC  H14X20746   8.028   6.326   5.467 -1.5711  2.3733 -0.3089
  170DOPC  H14Y20747   7.972   6.215   5.599  0.1700 -0.8679 -0.3770
  170DOPC  C31520748   7.890   6.174   5.400 -0.4383  0.5089  0.5142
  170DOPC  H15X20749   7.858   6.222   5.305  1.1952  2.2421  0.7630
  170DOPC  H15Y20750   7.797   6.125   5.434 -0.2035 -0.5639 -0.3320
  170DOPC  C31620751   7.985   6.053   5.370  0.2537  0.6666 -0.0571
  170DOPC  H16X20752   8.089   6.082   5.345  1.7920 -1.1425  3.5592
  170DOPC  H16Y20753   8.006   6.003   5.467  0.3431 -0.6524 -0.7286
  170DOPC  C31720754   7.925   5.943   5.278 -0.1145 -0.1536  0.6155
  170DOPC  H17X20755   7.982   5.853   5.310 -0.3696 -0.4873  0.1293
  170DOPC  H17Y20756   7.815   5.942   5.287 -0.0988 -0.3854  0.7930
  170DOPC  C31820757   7.941   5.968   5.132  0.4839 -0.2850  0.9393
  170DOPC  H18X20758   7.882   5.896   5.072 -1.8050  1.1063  1.4040
  170DOPC  H18Y20759   7.899   6.068   5.107  2.7466  0.5528  0.1695
  170DOPC  H18Z20760   8.045   5.964   5.094 -0.2107 -1.1161 -1.0175
  171DOPC     N20761   6.269   3.948   2.692  1.0299  0.2131  0.2116
  171DOPC   C1220762   6.281   3.799   2.681 -0.2503 -0.1793  0.5764
  171DOPC  H12A20763   6.387   3.776   2.679 -0.6547 -2.1736 -0.6737
  171DOPC  H12B20764   6.238   3.770   2.586 -4.0855  2.8563  1.1324
  171DOPC   C1320765   6.133   3.998   2.724 -0.0973  0.3674 -0.7677
  171DOPC  H13A20766   6.137   4.106   2.712  1.0601  0.3357 -0.8126
  171DOPC  H13B20767   6.049   3.959   2.669 -0.2033 -0.5146  0.0015
  171DOPC  H13C20768   6.109   3.971   2.826 -0.4039 -0.2887 -1.0133
  171DOPC   C1420769   6.291   4.001   2.555  0.0411  0.7406  0.0368
  171DOPC  H14A20770   6.265   4.103   2.532 -0.9022 -0.0327 -2.8479
  171DOPC  H14B20771   6.393   3.980   2.526  0.5577  2.4099  0.5671
  171DOPC  H14C20772   6.230   3.947   2.484 -0.4066  0.1523  0.8536
  171DOPC   C1520773   6.364   4.008   2.788  0.1075 -0.5155  0.7588
  171DOPC  H15A20774   6.467   4.018   2.757 -0.1016  3.8528  0.8689
  171DOPC  H15B20775   6.377   3.932   2.864  0.1727 -0.8084  0.4562
  171DOPC  H15C20776   6.326   4.102   2.825 -2.0106 -0.7333 -0.7005
  171DOPC   C1120777   6.230   3.714   2.797  0.5251 -0.3051 -0.2544
  171DOPC  H11A20778   6.120   3.728   2.798  0.3297 -1.6228 -0.6478
  171DOPC  H11B20779   6.254   3.609   2.769  1.5643 -0.3139  0.5759
  171DOPC     P20780   6.432   3.686   2.959  0.3510  0.0768 -0.0157
  171DOPC   O1320781   6.523   3.783   3.020 -0.4333  0.0444  0.1635
  171DOPC   O1420782   6.474   3.620   2.835 -0.5674  0.0789  0.0457
  171DOPC   O1220783   6.287   3.753   2.923  0.3393  0.2630 -0.0954
  171DOPC   O1120784   6.402   3.570   3.064 -0.2994  0.4931  0.8464
  171DOPC    C120785   6.307   3.573   3.172 -0.4243  0.0576 -0.0156
  171DOPC    HA20786   6.269   3.469   3.184 -2.5797  0.8424  0.4025
  171DOPC    HB20787   6.223   3.639   3.144  1.0131  1.8790 -0.1783
  171DOPC    C220788   6.360   3.617   3.302  0.0143 -0.8116 -0.6820
  171DOPC    HS20789   6.384   3.725   3.295  0.1341 -0.7918 -0.0342
  171DOPC   O2120790   6.482   3.543   3.328  0.4022  0.3076 -0.4806
  171DOPC   C2120791   6.575   3.601   3.404  0.6491 -0.4583  0.5131
  171DOPC   O2220792   6.572   3.710   3.456 -0.1104  0.2992  0.0485
  171DOPC   C2220793   6.686   3.502   3.408  0.3166  0.3587 -0.9932
  171DOPC   H2R20794   6.746   3.534   3.320  2.1309  0.0895  0.0992
  171DOPC   H2S20795   6.652   3.401   3.378  3.2756 -1.2287  0.5585
  171DOPC    C320796   6.257   3.598   3.420 -0.0861  0.1214 -0.0317
  171DOPC    HX20797   6.235   3.490   3.429  1.3789 -0.0624  1.9432
  171DOPC    HY20798   6.166   3.659   3.400  0.4167  0.9473  0.1371
  171DOPC   O3120799   6.322   3.628   3.548  0.2076 -0.6493  0.2069
  171DOPC   C3120800   6.302   3.754   3.583 -0.5143 -0.6050 -0.2871
  171DOPC   O3220801   6.262   3.840   3.507  0.2597  0.0670 -0.3921
  171DOPC   C3220802   6.335   3.787   3.726  0.5693 -0.0842 -0.1962
  171DOPC   H2X20803   6.352   3.684   3.764  3.2368 -0.0888 -1.2002
  171DOPC   H2Y20804   6.428   3.847   3.732  0.4816  0.0087  0.2275
  171DOPC   C2320805   6.781   3.509   3.526  0.0694 -1.2987 -0.2268
  171DOPC   H3R20806   6.795   3.617   3.548  0.0305 -1.1358 -0.9663
  171DOPC   H3S20807   6.882   3.465   3.511  0.6261 -0.3092  0.5445
  171DOPC   C2420808   6.721   3.445   3.647 -0.3779 -0.4576 -0.2668
  171DOPC   H4R20809   6.685   3.343   3.623  1.1345 -1.0950  0.0904
  171DOPC   H4S20810   6.636   3.514   3.669  0.7467  1.0071 -0.3249
  171DOPC   C2520811   6.818   3.443   3.764 -0.6617  0.4769  0.2776
  171DOPC   H5R20812   6.923   3.430   3.729 -0.4264 -1.7242  1.6533
  171DOPC   H5S20813   6.797   3.360   3.834  1.0313 -0.5204 -0.3257
  171DOPC   C2620814   6.813   3.578   3.839 -0.0501 -0.5907 -0.5711
  171DOPC   H6R20815   6.711   3.602   3.875  0.2341 -1.7421  1.1138
  171DOPC   H6S20816   6.842   3.660   3.770 -1.9224  1.6135  1.1070
  171DOPC   C2720817   6.915   3.585   3.962  0.4778  0.0287 -0.1007
  171DOPC   H7R20818   7.018   3.574   3.923  0.4714 -0.4991  0.0290
  171DOPC   H7S20819   6.888   3.509   4.038  1.4966  0.3999  0.6608
  171DOPC   C2820820   6.911   3.728   4.035 -0.3075  0.1532 -0.2411
  171DOPC   H8R20821   6.909   3.797   3.948 -2.0765  0.7688  0.2509
  171DOPC   H8S20822   7.003   3.732   4.098 -0.5953 -1.5449  0.3395
  171DOPC   C2920823   6.781   3.740   4.116 -0.9206  0.5540 -0.2084
  171DOPC   H9R20824   6.688   3.742   4.059 -2.1575 -2.8888  1.4111
  171DOPC  C21020825   6.769   3.752   4.246 -0.0638 -0.8370  0.5077
  171DOPC  H10R20826   6.666   3.761   4.284 -0.0870 -0.0540  0.2727
  171DOPC  C21120827   6.882   3.759   4.349  0.4010  0.3318 -0.4377
  171DOPC  H11R20828   6.974   3.813   4.319 -0.6742  2.9384  0.6405
  171DOPC  H11S20829   6.921   3.657   4.369  1.1265  0.6466 -0.2381
  171DOPC  C21220830   6.847   3.820   4.486  0.1048 -0.3271 -0.0688
  171DOPC  H12R20831   6.929   3.808   4.560 -1.0113  1.2286  1.4812
  171DOPC  H12S20832   6.758   3.773   4.532 -1.0863  2.2968  0.4393
  171DOPC  C21320833   6.815   3.969   4.478  0.0900  0.1719 -0.2008
  171DOPC  H13R20834   6.706   3.980   4.459  0.0189 -2.0320 -1.4547
  171DOPC  H13S20835   6.880   4.029   4.411  1.1637 -0.0817  0.5831
  171DOPC  C21420836   6.823   4.033   4.617  0.1964  0.8829  0.2814
  171DOPC  H14R20837   6.776   4.130   4.589 -0.9966  0.5761  1.1194
  171DOPC  H14S20838   6.931   4.041   4.639  0.8640 -1.9707 -1.4105
  171DOPC  C21520839   6.747   3.961   4.729  0.3339 -0.4903  0.7918
  171DOPC  H15R20840   6.803   3.877   4.777  0.9662  0.2544  1.3796
  171DOPC  H15S20841   6.649   3.930   4.686  0.4460 -0.3199  0.4014
  171DOPC  C21620842   6.724   4.049   4.855 -0.2852 -0.8345  0.4461
  171DOPC  H16R20843   6.633   4.110   4.836  1.8607  1.8312 -2.1393
  171DOPC  H16S20844   6.812   4.113   4.873 -0.9888  0.2343  0.2179
  171DOPC  C21720845   6.705   3.961   4.982  0.6403 -0.1540 -0.2678
  171DOPC  H17R20846   6.751   3.862   4.962  1.8692  0.3590 -0.1057
  171DOPC  H17S20847   6.599   3.933   4.998  0.7464  0.4641  1.9255
  171DOPC  C21820848   6.765   4.024   5.111 -0.1772 -0.6944  0.6857
  171DOPC  H18R20849   6.746   3.952   5.193  0.5628 -1.0242  0.5758
  171DOPC  H18S20850   6.715   4.122   5.130 -0.7040 -0.4219 -1.7708
  171DOPC  H18T20851   6.873   4.043   5.092 -0.4410 -0.2146 -0.4465
  171DOPC   C3320852   6.216   3.853   3.806 -0.3697 -0.7244  0.3331
  171DOPC   H3X20853   6.120   3.797   3.807  0.4811 -2.2580  0.6868
  171DOPC   H3Y20854   6.183   3.951   3.766 -1.3877 -0.9263  0.6429
  171DOPC   C3420855   6.256   3.877   3.957  0.3276  0.6542 -0.3877
  171DOPC   H4X20856   6.188   3.957   3.995 -0.4484  0.7648 -1.9538
  171DOPC   H4Y20857   6.358   3.922   3.963  0.3106  1.2339 -3.3160
  171DOPC   C3520858   6.263   3.748   4.041  0.4169 -0.3389 -0.2374
  171DOPC   H5X20859   6.361   3.701   4.015  0.5275  0.5715 -1.6056
  171DOPC   H5Y20860   6.182   3.683   4.003  1.2503 -0.9077 -1.1011
  171DOPC   C3620861   6.249   3.781   4.185 -0.2663  0.0727  0.0147
  171DOPC   H6X20862   6.333   3.844   4.221  0.6705 -2.6773  3.0286
  171DOPC   H6Y20863   6.146   3.823   4.195 -0.3330 -0.3524  1.1936
  171DOPC   C3720864   6.275   3.646   4.264  0.6955  1.0400 -0.3166
  171DOPC   H7X20865   6.182   3.590   4.289  0.4685  1.7700  0.5407
  171DOPC   H7Y20866   6.348   3.585   4.207  0.2747 -0.8401  1.0625
  171DOPC   C3820867   6.342   3.668   4.402 -0.1589 -0.1973 -0.0070
  171DOPC   H8X20868   6.431   3.730   4.380 -0.3916 -0.3617 -1.5184
  171DOPC   H8Y20869   6.370   3.567   4.439 -0.0287  0.9349  3.3069
  171DOPC   C3920870   6.256   3.753   4.495 -0.1109  0.2911 -0.2516
  171DOPC   H9X20871   6.187   3.825   4.449 -2.3953 -1.0237  0.9364
  171DOPC  C31020872   6.250   3.732   4.628  0.0708  0.8921 -0.1403
  171DOPC  H10X20873   6.183   3.792   4.692 -0.6352  1.0401 -0.9973
  171DOPC  C31120874   6.330   3.622   4.705  0.0656  0.2736  0.0563
  171DOPC  H11X20875   6.362   3.653   4.807  1.1625 -1.7994  0.4123
  171DOPC  H11Y20876   6.429   3.610   4.654 -0.3417 -1.7152 -0.3753
  171DOPC  C31220877   6.255   3.485   4.707  0.2899 -0.2832  0.6670
  171DOPC  H12X20878   6.328   3.408   4.742  2.0901  1.0243 -0.0516
  171DOPC  H12Y20879   6.238   3.473   4.598  1.0033 -0.4132  0.5623
  171DOPC  C31320880   6.125   3.485   4.783 -0.3401  0.2130  0.1352
  171DOPC  H13X20881   6.054   3.560   4.743 -2.5967 -2.2933 -0.8831
  171DOPC  H13Y20882   6.082   3.383   4.773 -0.1337  0.2046 -0.7652
  171DOPC  C31420883   6.145   3.512   4.935  0.6290  0.1471 -0.2855
  171DOPC  H14X20884   6.195   3.420   4.973 -1.8629 -0.9468  0.5615
  171DOPC  H14Y20885   6.190   3.610   4.960 -2.3238  1.2246  1.3498
  171DOPC  C31520886   6.006   3.519   4.999 -0.1637  0.0545 -0.0251
  171DOPC  H15X20887   5.959   3.420   4.977 -0.2582 -0.2001  1.2493
  171DOPC  H15Y20888   5.950   3.603   4.953 -0.2056  0.4694  0.7754
  171DOPC  C31620889   6.016   3.524   5.151 -0.4507  0.1079  0.6727
  171DOPC  H16X20890   6.089   3.446   5.181 -0.3232  0.5786  1.6531
  171DOPC  H16Y20891   6.061   3.620   5.184  2.4634 -0.5365 -1.1025
  171DOPC  C31720892   5.878   3.503   5.208  0.1718  0.3029  0.3204
  171DOPC  H17X20893   5.808   3.579   5.167 -0.3739  0.4393  1.4413
  171DOPC  H17Y20894   5.840   3.403   5.178 -1.4905  1.1507 -0.5412
  171DOPC  C31820895   5.880   3.530   5.357 -0.2083 -0.2101 -1.3418
  171DOPC  H18X20896   5.788   3.495   5.409  0.2647  1.3481  0.6725
  171DOPC  H18Y20897   5.963   3.466   5.395  0.1958  0.6625 -0.7309
  171DOPC  H18Z20898   5.888   3.640   5.369  0.0328 -0.3034 -0.6043
  172DOPC     N20899   2.869   4.418   3.075  0.0068 -0.0071  0.4688
  172DOPC   C1220900   2.945   4.419   3.205 -0.2787 -0.0201 -0.1089
  172DOPC  H12A20901   2.874   4.420   3.286 -0.3992  1.4167 -0.1897
  172DOPC  H12B20902   2.990   4.518   3.206 -0.1484 -0.0743 -0.4818
  172DOPC   C1320903   2.777   4.540   3.067 -0.0964  0.1728 -0.3049
  172DOPC  H13A20904   2.713   4.521   2.982 -0.9982 -3.5749  1.0061
  172DOPC  H13B20905   2.712   4.540   3.153  1.5468  0.4738  0.9753
  172DOPC  H13C20906   2.825   4.635   3.050 -0.5054  0.4342 -0.0022
  172DOPC   C1420907   2.790   4.288   3.075 -0.4283 -0.5112  0.2215
  172DOPC  H14A20908   2.713   4.269   3.148  1.2281  0.5230  2.3444
  172DOPC  H14B20909   2.756   4.261   2.976 -0.1327  0.1253 -0.0578
  172DOPC  H14C20910   2.860   4.211   3.104 -0.9320 -1.7989 -1.7525
  172DOPC   C1520911   2.954   4.424   2.958  0.3641 -0.1567  0.6002
  172DOPC  H15A20912   3.005   4.330   2.941 -1.0518 -0.7142 -0.8181
  172DOPC  H15B20913   3.025   4.505   2.957  2.0665 -1.5567 -0.8905
  172DOPC  H15C20914   2.897   4.431   2.867 -1.2806 -0.7300  1.5494
  172DOPC   C1120915   3.047   4.309   3.239 -0.5744  0.2998  0.0254
  172DOPC  H11A20916   3.131   4.303   3.166  1.0120 -1.2189  1.8747
  172DOPC  H11B20917   3.098   4.336   3.334  1.9990 -0.7567 -0.9501
  172DOPC     P20918   2.932   4.122   3.379  0.2593 -0.0670  0.2678
  172DOPC   O1320919   2.921   3.976   3.371  0.1190  0.4654  0.4145
  172DOPC   O1420920   2.813   4.203   3.406 -0.2163  0.0367 -0.3837
  172DOPC   O1220921   2.994   4.177   3.243 -0.3255 -0.2788  0.6369
  172DOPC   O1120922   3.036   4.160   3.485  1.1590  0.1327  0.3746
  172DOPC    C120923   3.164   4.103   3.489  0.4022 -0.2890 -0.4608
  172DOPC    HA20924   3.218   4.122   3.394 -1.0376  1.2615 -1.0264
  172DOPC    HB20925   3.154   3.995   3.511  0.5540  0.3382  3.4929
  172DOPC    C220926   3.258   4.158   3.597  0.3940  0.0010  0.3990
  172DOPC    HS20927   3.232   4.109   3.693  2.0027 -0.5457  0.5715
  172DOPC   O2120928   3.251   4.294   3.589  0.2310 -0.4748 -0.5959
  172DOPC   C2120929   3.154   4.348   3.666 -0.4181  0.0118 -0.6195
  172DOPC   O2220930   3.089   4.284   3.753 -0.0408 -0.0704  0.3386
  172DOPC   C2220931   3.139   4.499   3.653  0.1883 -0.2391  0.2964
  172DOPC   H2R20932   3.030   4.513   3.636  0.3438 -1.7690 -2.4677
  172DOPC   H2S20933   3.196   4.521   3.560 -0.1455 -0.9228 -0.0761
  172DOPC    C320934   3.409   4.134   3.563  0.3401 -0.3330 -0.4168
  172DOPC    HX20935   3.428   4.176   3.462  1.3214 -1.0959 -0.5599
  172DOPC    HY20936   3.439   4.027   3.561 -1.0799 -0.9322  3.0635
  172DOPC   O3120937   3.494   4.204   3.654 -0.3522 -0.0560  0.2359
  172DOPC   C3120938   3.535   4.140   3.766 -0.3052 -1.3166  0.2333
  172DOPC   O3220939   3.502   4.033   3.805 -0.2701 -0.2647  0.5529
  172DOPC   C3220940   3.630   4.239   3.830 -0.3434  0.1032 -0.4142
  172DOPC   H2X20941   3.699   4.286   3.756  0.4900  1.1592  0.9638
  172DOPC   H2Y20942   3.578   4.334   3.857  1.0981  0.1011  2.8632
  172DOPC   C2320943   3.187   4.573   3.776 -0.5156  0.4498  0.2011
  172DOPC   H3R20944   3.133   4.534   3.865 -1.2332 -0.8336 -0.7758
  172DOPC   H3S20945   3.170   4.681   3.758  2.9122  1.1062  0.0826
  172DOPC   C2420946   3.340   4.568   3.788 -0.0114  0.9782 -0.3966
  172DOPC   H4R20947   3.378   4.622   3.699 -0.0316 -0.2181 -1.1500
  172DOPC   H4S20948   3.374   4.463   3.777 -2.0137  0.3350 -0.8505
  172DOPC   C2520949   3.405   4.643   3.899 -0.0850  0.3410 -0.3175
  172DOPC   H5R20950   3.361   4.744   3.913  1.4923  0.7915  1.7615
  172DOPC   H5S20951   3.514   4.660   3.890  0.6053 -2.3778  1.5675
  172DOPC   C2620952   3.397   4.555   4.030 -0.5876 -0.0524 -0.0689
  172DOPC   H6R20953   3.452   4.460   4.013  0.4826  0.1932  1.7143
  172DOPC   H6S20954   3.297   4.520   4.062  0.2422 -1.3859  1.1935
  172DOPC   C2720955   3.465   4.630   4.149 -0.2500 -0.7366 -0.9186
  172DOPC   H7R20956   3.563   4.667   4.111 -1.3523  1.1991 -2.0537
  172DOPC   H7S20957   3.494   4.551   4.223  2.2559  0.1563 -0.8363
  172DOPC   C2820958   3.386   4.748   4.218 -0.6015 -0.0822 -0.7457
  172DOPC   H8R20959   3.369   4.818   4.134 -1.9392  1.5763  0.8231
  172DOPC   H8S20960   3.445   4.808   4.291 -1.1765 -1.6609  1.1325
  172DOPC   C2920961   3.258   4.697   4.281  0.0282 -0.4840 -0.7443
  172DOPC   H9R20962   3.203   4.614   4.234 -2.3473  0.1315  0.7371
  172DOPC  C21020963   3.199   4.723   4.396  0.0997  0.3354  0.2284
  172DOPC  H10R20964   3.111   4.670   4.436 -0.2085  1.6339  1.3375
  172DOPC  C21120965   3.247   4.823   4.491 -0.1655  0.5893  0.1399
  172DOPC  H11R20966   3.166   4.900   4.491 -0.2742  0.5186 -2.1036
  172DOPC  H11S20967   3.333   4.880   4.451  0.1400 -0.2663 -0.4269
  172DOPC  C21220968   3.276   4.780   4.634  0.2226  0.0808 -0.1686
  172DOPC  H12R20969   3.190   4.717   4.665 -1.5493  1.5130 -1.8502
  172DOPC  H12S20970   3.281   4.874   4.693 -1.6883  0.1876 -0.1040
  172DOPC  C21320971   3.407   4.717   4.649 -0.7901  0.1644 -0.2941
  172DOPC  H13R20972   3.479   4.790   4.606 -2.0701  1.9111  0.3739
  172DOPC  H13S20973   3.405   4.615   4.605 -0.1332 -0.5616  1.2892
  172DOPC  C21420974   3.470   4.699   4.787 -0.3712 -0.4338 -0.6558
  172DOPC  H14R20975   3.525   4.602   4.792 -0.8569 -0.8106 -2.0025
  172DOPC  H14S20976   3.382   4.678   4.851  0.3749 -0.6699  0.3147
  172DOPC  C21520977   3.565   4.807   4.838 -0.4854  0.4670  0.1106
  172DOPC  H15R20978   3.515   4.906   4.844 -1.1845  0.0867  0.7462
  172DOPC  H15S20979   3.658   4.819   4.778 -0.5066 -0.7384 -0.1750
  172DOPC  C21620980   3.614   4.769   4.982 -0.2146  0.2981  1.0347
  172DOPC  H16R20981   3.632   4.659   4.982  0.4892  0.3932  2.1586
  172DOPC  H16S20982   3.531   4.791   5.053  0.1645 -1.3908  2.0603
  172DOPC  C21720983   3.733   4.855   5.034  0.6634  0.6236  0.5545
  172DOPC  H17R20984   3.720   4.962   5.008 -0.2975  0.0954 -1.4017
  172DOPC  H17S20985   3.812   4.833   4.959 -1.2874  3.7061 -2.7400
  172DOPC  C21820986   3.765   4.830   5.182 -0.0365  0.0247  0.0650
  172DOPC  H18R20987   3.837   4.909   5.213  0.3885 -0.4536  0.3213
  172DOPC  H18S20988   3.805   4.730   5.211 -1.1561  0.3492  3.0856
  172DOPC  H18T20989   3.679   4.842   5.252 -1.9224 -2.9493 -1.5368
  172DOPC   C3320990   3.703   4.187   3.959  0.5720 -0.3490  0.5620
  172DOPC   H3X20991   3.621   4.148   4.023 -0.3636  0.7630  0.0844
  172DOPC   H3Y20992   3.766   4.265   4.007 -0.1038  2.4870 -2.7395
  172DOPC   C3420993   3.792   4.065   3.931 -0.6316  0.3220  0.5098
  172DOPC   H4X20994   3.871   4.100   3.862 -1.0054  1.4308  0.6330
  172DOPC   H4Y20995   3.747   3.977   3.880  0.0625  0.8411 -1.0331
  172DOPC   C3520996   3.869   4.014   4.057 -0.2087 -0.1254  0.0204
  172DOPC   H5X20997   3.938   3.930   4.037  0.1494 -0.1813  1.4371
  172DOPC   H5Y20998   3.795   3.983   4.134 -1.8755  0.1519 -1.3963
  172DOPC   C3620999   3.975   4.112   4.108 -0.6396  0.0742  0.3717
  172DOPC   H6X21000   4.040   4.143   4.023 -0.8095  1.8724  0.8603
  172DOPC   H6Y21001   3.930   4.202   4.155 -1.3783 -0.2082  0.2347
  172DOPC   C3721002   4.061   4.036   4.211 -0.2193  0.0731 -0.2476
  172DOPC   H7X21003   3.998   3.969   4.273  0.7326 -0.4788  0.1461
  172DOPC   H7Y21004   4.127   3.965   4.158 -1.1970  0.2446 -1.7509
  172DOPC   C3821005   4.146   4.129   4.302 -0.0109  0.6016 -0.1093
  172DOPC   H8X21006   4.211   4.193   4.237  0.2676  1.3138  0.8419
  172DOPC   H8Y21007   4.219   4.071   4.361  0.8854  2.8921  1.1438
  172DOPC   C3921008   4.061   4.212   4.388 -0.3884 -0.5163 -1.0783
  172DOPC   H9X21009   3.956   4.229   4.358  0.2670  1.6091 -2.3436
  172DOPC  C31021010   4.109   4.284   4.496 -0.8582  1.2808 -0.2741
  172DOPC  H10X21011   4.054   4.348   4.567  1.0289  0.4106  2.1312
  172DOPC  C31121012   4.256   4.284   4.536  0.7811  1.0669  0.1920
  172DOPC  H11X21013   4.289   4.388   4.558  1.9085  0.5167  1.2561
  172DOPC  H11Y21014   4.316   4.264   4.445 -0.1447  1.1815 -0.4632
  172DOPC  C31221015   4.293   4.187   4.647 -0.6262  0.3260  0.2119
  172DOPC  H12X21016   4.286   4.081   4.613  2.1781 -0.3445  1.4390
  172DOPC  H12Y21017   4.247   4.205   4.747 -1.5536  3.2549 -0.6686
  172DOPC  C31321018   4.446   4.188   4.669 -0.0111 -0.0723 -0.1925
  172DOPC  H13X21019   4.480   4.111   4.740  1.7893  2.1300  1.4647
  172DOPC  H13Y21020   4.492   4.169   4.570 -0.8525 -0.4491 -0.5237
  172DOPC  C31421021   4.508   4.316   4.733  0.1578 -0.0055  0.4122
  172DOPC  H14X21022   4.506   4.404   4.665 -0.8871 -1.4462 -1.5242
  172DOPC  H14Y21023   4.452   4.345   4.824  1.5176  0.5831  1.0767
  172DOPC  C31521024   4.657   4.310   4.771  0.0318  0.1268  0.6708
  172DOPC  H15X21025   4.716   4.297   4.677 -1.4922 -0.9865 -0.1751
  172DOPC  H15Y21026   4.652   4.213   4.824  1.4933 -0.1510  0.3595
  172DOPC  C31621027   4.711   4.429   4.855 -0.5393  0.2247 -0.1596
  172DOPC  H16X21028   4.673   4.529   4.825 -0.7868  0.7258  1.7159
  172DOPC  H16Y21029   4.662   4.415   4.954 -1.5337 -1.8768 -0.8816
  172DOPC  C31721030   4.860   4.425   4.863 -0.2243  0.8769  0.0172
  172DOPC  H17X21031   4.895   4.420   4.757  1.6481  0.9637  0.5964
  172DOPC  H17Y21032   4.913   4.515   4.899 -1.6310  1.3660  0.9367
  172DOPC  C31821033   4.914   4.315   4.950  0.4930 -0.1301  0.1311
  172DOPC  H18X21034   4.883   4.341   5.053 -0.8658 -0.9601 -0.0382
  172DOPC  H18Y21035   4.861   4.220   4.928 -0.1711  0.4286 -0.7414
  172DOPC  H18Z21036   5.025   4.312   4.949  0.6071  2.1016  0.6413
  173DOPC     N21037   4.809   3.044   2.147  0.2143  0.1904  0.5110
  173DOPC   C1221038   4.901   3.145   2.199 -0.1027  0.5254 -0.1588
  173DOPC  H12A21039   4.958   3.173   2.111 -1.2827 -3.1052 -2.2899
  173DOPC  H12B21040   4.957   3.096   2.277 -1.9490  0.2775  1.0822
  173DOPC   C1321041   4.709   3.106   2.052  0.6841 -0.1044  0.8445
  173DOPC  H13A21042   4.757   3.160   1.972 -2.3620  0.0169 -1.0413
  173DOPC  H13B21043   4.663   3.024   2.001  1.2472 -0.1504  0.4057
  173DOPC  H13C21044   4.644   3.175   2.104 -1.6398 -2.6560  1.5795
  173DOPC   C1421045   4.721   2.989   2.258 -0.3280  0.3583 -0.8098
  173DOPC  H14A21046   4.677   3.074   2.308 -0.4856  0.0858 -0.4871
  173DOPC  H14B21047   4.645   2.926   2.213 -0.9847  1.6148 -1.5244
  173DOPC  H14C21048   4.775   2.938   2.336 -1.3605  1.0850  0.3995
  173DOPC   C1521049   4.886   2.934   2.096 -0.3437 -0.2177  0.1918
  173DOPC  H15A21050   4.946   2.962   2.011  2.0867  0.3123  1.9436
  173DOPC  H15B21051   4.824   2.852   2.064  2.8650 -1.9058 -2.3191
  173DOPC  H15C21052   4.945   2.894   2.178 -3.0646 -0.9965  1.9079
  173DOPC   C1121053   4.838   3.276   2.259  0.0577 -0.9481  0.1218
  173DOPC  H11A21054   4.921   3.336   2.302  0.2045 -0.8419 -0.3118
  173DOPC  H11B21055   4.793   3.322   2.168  0.2120 -0.0496  0.4848
  173DOPC     P21056   4.745   3.249   2.499  0.6754 -0.2377 -0.0605
  173DOPC   O1321057   4.691   3.119   2.543 -0.4973 -0.0829 -0.0217
  173DOPC   O1421058   4.681   3.370   2.554 -0.4250  0.0296 -0.5067
  173DOPC   O1221059   4.732   3.258   2.344 -0.7524 -0.1959  0.0615
  173DOPC   O1121060   4.896   3.264   2.527 -0.0935  0.3716  0.5505
  173DOPC    C121061   4.969   3.156   2.589  0.3368 -0.0149 -0.9020
  173DOPC    HA21062   5.076   3.184   2.595 -0.0869  1.3296  1.3823
  173DOPC    HB21063   4.963   3.063   2.527 -0.8346 -0.1691 -0.5756
  173DOPC    C221064   4.930   3.114   2.737 -0.2929 -0.6457  0.6072
  173DOPC    HS21065   4.864   3.026   2.726  0.1783 -1.0340  0.8353
  173DOPC   O2121066   4.864   3.228   2.799  0.3638 -0.4634 -0.8212
  173DOPC   C2121067   4.778   3.199   2.897  0.2343  0.4922 -0.2142
  173DOPC   O2221068   4.751   3.083   2.931  0.8849 -0.0329  0.0253
  173DOPC   C2221069   4.724   3.327   2.965 -0.3111 -0.0033  0.8179
  173DOPC   H2R21070   4.718   3.395   2.876 -0.0319  0.1682  0.9282
  173DOPC   H2S21071   4.790   3.362   3.047 -1.9503  2.4827  1.2022
  173DOPC    C321072   5.054   3.075   2.822 -0.6524  0.5565 -0.7651
  173DOPC    HX21073   5.122   3.162   2.814  1.1840 -0.9120 -2.3956
  173DOPC    HY21074   5.106   2.988   2.776 -2.4114 -1.4682  0.8405
  173DOPC   O3121075   5.030   3.055   2.966  0.2413  0.5364  0.3691
  173DOPC   C3121076   5.003   2.931   2.997 -0.2311  0.5144 -0.2423
  173DOPC   O3221077   5.020   2.833   2.920  0.3358  0.1559 -0.5525
  173DOPC   C3221078   4.970   2.930   3.140  0.5397  0.3633  0.4818
  173DOPC   H2X21079   5.054   2.980   3.192  1.4128 -1.1855  0.6140
  173DOPC   H2Y21080   4.877   2.988   3.155 -0.4942 -1.2543  0.6235
  173DOPC   C2321081   4.581   3.312   3.025 -0.1679  0.0713 -0.1567
  173DOPC   H3R21082   4.544   3.211   2.996  1.7161 -1.1627  1.5202
  173DOPC   H3S21083   4.520   3.393   2.980 -0.4501 -0.3827 -0.6064
  173DOPC   C2421084   4.563   3.331   3.178  0.9659  0.0964  0.6263
  173DOPC   H4R21085   4.456   3.318   3.204  1.6426 -4.2200  2.0678
  173DOPC   H4S21086   4.601   3.429   3.214 -1.6514  1.5506 -0.3346
  173DOPC   C2521087   4.638   3.219   3.243 -0.4065 -0.0602 -0.5238
  173DOPC   H5R21088   4.745   3.211   3.214  0.8709 -0.1404  3.6276
  173DOPC   H5S21089   4.588   3.127   3.206  0.1303 -0.1257 -1.1184
  173DOPC   C2621090   4.649   3.240   3.389  0.7791  0.2182 -0.3349
  173DOPC   H6R21091   4.557   3.264   3.446  1.5555 -0.5016  1.2897
  173DOPC   H6S21092   4.722   3.319   3.415 -0.9732  1.3049  1.5563
  173DOPC   C2721093   4.703   3.118   3.465 -0.2643  0.0233  0.5591
  173DOPC   H7R21094   4.730   3.154   3.566 -2.2825 -1.7682  1.8349
  173DOPC   H7S21095   4.799   3.086   3.419 -1.0676 -0.0434 -1.1702
  173DOPC   C2821096   4.610   2.994   3.483  0.8002 -0.4458 -0.3962
  173DOPC   H8R21097   4.662   2.914   3.541 -1.3527 -0.1425  2.1455
  173DOPC   H8S21098   4.598   2.957   3.379 -0.8389  2.6311 -1.4021
  173DOPC   C2921099   4.479   3.018   3.552 -0.2200  0.5856  0.2970
  173DOPC   H9R21100   4.408   3.051   3.474 -1.2572 -2.0998  0.0027
  173DOPC  C21021101   4.436   2.982   3.678 -0.2345  0.4528 -0.2648
  173DOPC  H10R21102   4.334   3.011   3.708 -1.0955 -1.5086 -1.1593
  173DOPC  C21121103   4.515   2.912   3.784 -0.1304  0.1341  0.2155
  173DOPC  H11R21104   4.557   2.980   3.861 -1.3634  0.8272  0.2951
  173DOPC  H11S21105   4.606   2.865   3.740  0.3224  0.2705  0.9875
  173DOPC  C21221106   4.431   2.805   3.861  0.4668  0.1095 -0.5597
  173DOPC  H12R21107   4.497   2.736   3.918 -0.3826 -1.8659 -1.8461
  173DOPC  H12S21108   4.370   2.750   3.786 -0.3576  1.0857 -0.6190
  173DOPC  C21321109   4.329   2.857   3.967 -0.2746  0.4372  0.4936
  173DOPC  H13R21110   4.250   2.901   3.903 -0.9933 -3.2395 -1.4259
  173DOPC  H13S21111   4.367   2.939   4.033 -2.1885  0.8920  1.0837
  173DOPC  C21421112   4.281   2.740   4.052  0.2511 -0.8799 -0.8241
  173DOPC  H14R21113   4.370   2.700   4.106 -0.8892  0.0821  1.9400
  173DOPC  H14S21114   4.258   2.650   3.992 -2.0124 -0.9349  0.0243
  173DOPC  C21521115   4.171   2.771   4.157  0.3690 -0.4372  0.2261
  173DOPC  H15R21116   4.079   2.789   4.096  1.3100  1.0870 -0.8219
  173DOPC  H15S21117   4.186   2.869   4.207  1.2030 -0.9056  0.9177
  173DOPC  C21621118   4.159   2.668   4.262  0.3398 -0.4471  0.3390
  173DOPC  H16R21119   4.254   2.642   4.314  0.6657 -1.3460 -0.6923
  173DOPC  H16S21120   4.119   2.579   4.210  2.5193 -0.6847 -1.0250
  173DOPC  C21721121   4.050   2.704   4.359 -0.0136  0.1260 -0.2491
  173DOPC  H17R21122   3.975   2.758   4.297 -0.4958  0.3983  0.5589
  173DOPC  H17S21123   4.083   2.779   4.434 -1.0666 -0.7231  1.1119
  173DOPC  C21821124   3.992   2.580   4.430 -0.2434  0.1486 -0.7243
  173DOPC  H18R21125   3.914   2.525   4.373  0.3096  0.4525 -1.7865
  173DOPC  H18S21126   3.948   2.610   4.528 -1.0678  0.8136 -1.2871
  173DOPC  H18T21127   4.076   2.509   4.444 -0.3503  0.1465 -0.0314
  173DOPC   C3321128   4.948   2.795   3.200  0.0861  0.2644 -0.4799
  173DOPC   H3X21129   5.049   2.750   3.201 -1.0421 -2.5562 -1.8741
  173DOPC   H3Y21130   4.878   2.727   3.146  0.4175  0.0117 -0.5926
  173DOPC   C3421131   4.902   2.797   3.349  0.1184 -0.0839  0.0465
  173DOPC   H4X21132   4.801   2.844   3.359  1.0137  1.8172  0.6018
  173DOPC   H4Y21133   4.972   2.873   3.390  0.4989 -0.2110 -0.3729
  173DOPC   C3521134   4.913   2.662   3.413  0.3208 -0.1426 -0.4786
  173DOPC   H5X21135   5.011   2.610   3.411 -1.5118 -4.0470  0.5196
  173DOPC   H5Y21136   4.843   2.604   3.349  0.5477  0.8626 -1.6784
  173DOPC   C3621137   4.850   2.660   3.557 -0.3845  0.2766  0.5934
  173DOPC   H6X21138   4.762   2.727   3.570 -0.0246  0.4382  2.5088
  173DOPC   H6Y21139   4.819   2.555   3.573  3.4118 -1.1861 -0.4563
  173DOPC   C3721140   4.958   2.695   3.654 -0.1345 -0.9737  0.5431
  173DOPC   H7X21141   5.047   2.630   3.644  2.2921  2.3001 -1.1297
  173DOPC   H7Y21142   4.986   2.800   3.631  0.9229 -1.3372  0.0885
  173DOPC   C3821143   4.900   2.685   3.800 -0.3156  0.0595 -0.3904
  173DOPC   H8X21144   4.987   2.665   3.867 -2.5524  1.0164  3.0870
  173DOPC   H8Y21145   4.838   2.592   3.804  1.4711 -1.3239 -2.5144
  173DOPC   C3921146   4.836   2.817   3.844  0.4455  0.4697 -0.5487
  173DOPC   H9X21147   4.790   2.892   3.778  0.9429  2.4384  1.2377
  173DOPC  C31021148   4.816   2.843   3.973  0.8277  0.0670 -0.2243
  173DOPC  H10X21149   4.752   2.928   4.002 -0.6071 -1.4884  1.4181
  173DOPC  C31121150   4.848   2.760   4.098  0.2329 -0.3347 -0.2520
  173DOPC  H11X21151   4.922   2.810   4.165 -0.9194 -0.2274  0.9869
  173DOPC  H11Y21152   4.896   2.664   4.070 -2.7892 -2.0283 -0.0566
  173DOPC  C31221153   4.723   2.736   4.196  0.0501 -0.0181 -0.1184
  173DOPC  H12X21154   4.746   2.669   4.282 -2.3814 -2.4673 -1.2199
  173DOPC  H12Y21155   4.640   2.688   4.140  0.4317 -1.6337  0.6320
  173DOPC  C31321156   4.664   2.868   4.256  0.0762 -0.3589  0.4849
  173DOPC  H13X21157   4.749   2.915   4.309 -0.7935  0.1386  1.5013
  173DOPC  H13Y21158   4.626   2.931   4.173  2.1726  0.1932 -0.1149
  173DOPC  C31421159   4.553   2.821   4.356 -0.0338 -0.8397 -0.6975
  173DOPC  H14X21160   4.485   2.754   4.299 -0.6546  0.4788 -1.5628
  173DOPC  H14Y21161   4.590   2.755   4.437  0.1607 -0.4427 -0.4585
  173DOPC  C31521162   4.495   2.941   4.423  0.1451  0.0356 -0.0909
  173DOPC  H15X21163   4.395   2.921   4.467  0.3323  0.0028  0.3251
  173DOPC  H15Y21164   4.485   3.018   4.344  0.8533 -0.1314 -0.3480
  173DOPC  C31621165   4.588   2.994   4.538 -0.2728 -0.2000  0.5020
  173DOPC  H16X21166   4.609   2.916   4.615  0.2071 -0.6731 -0.0953
  173DOPC  H16Y21167   4.682   3.023   4.487 -0.3872  0.4825  0.6733
  173DOPC  C31721168   4.533   3.114   4.609  0.0288 -0.5449 -0.2065
  173DOPC  H17X21169   4.512   3.198   4.539  1.5308 -0.1374 -0.2054
  173DOPC  H17Y21170   4.433   3.085   4.649 -0.0541  1.0266  0.7991
  173DOPC  C31821171   4.619   3.169   4.724 -0.4883  0.3193 -0.7693
  173DOPC  H18X21172   4.656   3.087   4.789  0.3653  0.0488 -1.5880
  173DOPC  H18Y21173   4.705   3.224   4.681  0.5811 -0.1330  0.7054
  173DOPC  H18Z21174   4.565   3.239   4.791  0.0948 -1.9301  2.2594
  174DOPC     N21175   5.582   2.582   2.636  0.9475 -0.1783  0.0170
  174DOPC   C1221176   5.670   2.485   2.714  0.1146 -0.3659 -0.6080
  174DOPC  H12A21177   5.738   2.436   2.645 -1.4500 -1.2450 -1.5893
  174DOPC  H12B21178   5.614   2.404   2.758  1.5922 -0.7659  0.6367
  174DOPC   C1321179   5.508   2.505   2.543  0.4444  0.7508  0.2741
  174DOPC  H13A21180   5.566   2.435   2.485 -0.6726  0.4850 -0.5547
  174DOPC  H13B21181   5.441   2.440   2.597  0.6023 -0.0155 -0.4436
  174DOPC  H13C21182   5.455   2.560   2.467  0.2696  0.0947 -0.0857
  174DOPC   C1421183   5.668   2.691   2.577  0.2584 -0.5524  0.3108
  174DOPC  H14A21184   5.741   2.646   2.511  1.4388  0.2807  1.0149
  174DOPC  H14B21185   5.608   2.769   2.532  2.5188  1.2927  0.3030
  174DOPC  H14C21186   5.713   2.744   2.659 -2.0778  3.9131 -0.9629
  174DOPC   C1521187   5.495   2.659   2.731 -0.3639  0.2878  0.2678
  174DOPC  H15A21188   5.434   2.591   2.788  0.5950  2.1771  3.8950
  174DOPC  H15B21189   5.424   2.727   2.686  0.1778  1.5723  1.2588
  174DOPC  H15C21190   5.553   2.710   2.807 -0.7929 -2.3577  2.5121
  174DOPC   C1121191   5.755   2.552   2.834  0.6772  0.9946  0.3018
  174DOPC  H11A21192   5.680   2.580   2.911  1.5245 -2.3357  2.5040
  174DOPC  H11B21193   5.819   2.467   2.864  0.0556  1.3573  2.8492
  174DOPC     P21194   5.982   2.641   2.751  0.4783  0.0876 -0.2267
  174DOPC   O1321195   6.044   2.767   2.717 -0.0280  0.4500  0.2872
  174DOPC   O1421196   5.984   2.532   2.647  0.1388  0.1271  0.0471
  174DOPC   O1221197   5.835   2.665   2.790  0.3929 -0.0200 -0.0262
  174DOPC   O1121198   6.035   2.587   2.892 -0.6557  0.0210 -0.0165
  174DOPC    C121199   6.026   2.673   3.012  0.2181 -0.0135 -0.3468
  174DOPC    HA21200   5.921   2.676   3.049 -0.0730  0.7133 -1.2072
  174DOPC    HB21201   6.036   2.779   2.980 -0.0082 -0.3155 -1.4560
  174DOPC    C221202   6.131   2.638   3.114  0.5291  0.8815  0.3186
  174DOPC    HS21203   6.224   2.633   3.055 -0.6410  2.1289 -1.7482
  174DOPC   O2121204   6.078   2.515   3.174  0.0406  0.3501 -0.8745
  174DOPC   C2121205   6.178   2.438   3.219 -0.3065  0.2766 -0.2245
  174DOPC   O2221206   6.300   2.462   3.206  0.2463 -0.0033 -0.0786
  174DOPC   C2221207   6.112   2.320   3.291 -0.3356  0.7588 -0.4384
  174DOPC   H2R21208   6.058   2.254   3.220  1.6563 -1.7458  0.2357
  174DOPC   H2S21209   6.047   2.361   3.371  2.2797  1.8546  1.2626
  174DOPC    C321210   6.158   2.744   3.221 -0.7312 -0.1365  0.2929
  174DOPC    HX21211   6.203   2.834   3.175 -0.3982 -0.5696 -0.2480
  174DOPC    HY21212   6.229   2.696   3.293  0.5416  1.2026 -0.0048
  174DOPC   O3121213   6.042   2.771   3.300 -0.5006  0.1701 -0.4118
  174DOPC   C3121214   6.048   2.861   3.398 -1.1426  0.5693 -0.1655
  174DOPC   O3221215   6.152   2.919   3.426  0.1422 -0.0933 -0.2042
  174DOPC   C3221216   5.915   2.879   3.465 -0.0417 -0.2435  0.1681
  174DOPC   H2X21217   5.841   2.915   3.391  1.1565  0.3862 -0.7516
  174DOPC   H2Y21218   5.882   2.783   3.511 -2.0707  0.5687  0.5166
  174DOPC   C2321219   6.222   2.232   3.351  0.0555  0.9505  0.2260
  174DOPC   H3R21220   6.294   2.283   3.418 -0.2404  2.6274 -0.6671
  174DOPC   H3S21221   6.291   2.190   3.274 -0.1567  1.2071 -0.1088
  174DOPC   C2421222   6.162   2.116   3.425 -0.2590 -0.0236 -0.4929
  174DOPC   H4R21223   6.106   2.057   3.349 -1.4675 -0.3684  0.6351
  174DOPC   H4S21224   6.088   2.166   3.491  1.2241 -1.5755  2.5436
  174DOPC   C2521225   6.262   2.021   3.494 -0.1441 -0.2050  0.6013
  174DOPC   H5R21226   6.200   1.949   3.551 -0.1416  0.6641  1.7392
  174DOPC   H5S21227   6.319   2.084   3.566  2.6397  0.7226 -2.1784
  174DOPC   C2621228   6.369   1.955   3.393 -0.1684 -0.1635 -0.6069
  174DOPC   H6R21229   6.429   2.031   3.340  0.2876 -1.8457 -2.6520
  174DOPC   H6S21230   6.324   1.886   3.318  0.3326 -0.7446 -0.3804
  174DOPC   C2721231   6.473   1.868   3.460 -0.4991  0.0383 -0.0407
  174DOPC   H7R21232   6.546   1.948   3.483 -0.9689  0.0941  1.3241
  174DOPC   H7S21233   6.516   1.808   3.376 -2.7609  0.0303 -1.2519
  174DOPC   C2821234   6.426   1.776   3.580  0.0675  0.0654 -0.9094
  174DOPC   H8R21235   6.363   1.695   3.538 -0.2501  1.0176 -2.3399
  174DOPC   H8S21236   6.362   1.838   3.647  1.4234 -1.9540  2.5123
  174DOPC   C2921237   6.549   1.713   3.645  0.5267  0.2452  0.2504
  174DOPC   H9R21238   6.621   1.667   3.576  0.3992 -0.9638  0.8887
  174DOPC  C21021239   6.578   1.712   3.775  0.6354 -0.7568 -0.4436
  174DOPC  H10R21240   6.676   1.669   3.801  1.2226  0.7241 -0.0859
  174DOPC  C21121241   6.485   1.758   3.888  0.2677  0.3747 -0.5053
  174DOPC  H11R21242   6.437   1.660   3.910 -0.8734  0.6671 -1.5617
  174DOPC  H11S21243   6.409   1.831   3.853 -1.7539 -0.7470  1.2946
  174DOPC  C21221244   6.562   1.799   4.012  0.6324  0.0687  0.2999
  174DOPC  H12R21245   6.616   1.893   3.985 -2.1013  1.2187 -1.6283
  174DOPC  H12S21246   6.622   1.718   4.058  0.7365  0.9206  1.7429
  174DOPC  C21321247   6.460   1.831   4.134 -0.1909 -0.0141  0.0563
  174DOPC  H13R21248   6.427   1.730   4.168  0.8599  0.2967  2.1395
  174DOPC  H13S21249   6.384   1.891   4.079  0.4142  0.6265 -0.0894
  174DOPC  C21421250   6.525   1.915   4.240  0.2420 -0.3770 -0.0037
  174DOPC  H14R21251   6.446   1.953   4.309  0.8071  1.4197 -0.3013
  174DOPC  H14S21252   6.569   2.006   4.194 -0.0670 -0.4114 -0.3700
  174DOPC  C21521253   6.643   1.846   4.314  0.0241  0.1896  0.2693
  174DOPC  H15R21254   6.707   1.919   4.367  1.6514  0.0827 -1.4506
  174DOPC  H15S21255   6.716   1.787   4.254 -0.1226  0.0313  0.2436
  174DOPC  C21621256   6.593   1.729   4.406 -0.5692 -0.7344  0.0999
  174DOPC  H16R21257   6.568   1.649   4.333  1.4935 -0.3870 -1.1022
  174DOPC  H16S21258   6.500   1.763   4.456  0.7112  1.3281  1.1965
  174DOPC  C21721259   6.688   1.652   4.498  0.1175  0.0625 -0.1371
  174DOPC  H17R21260   6.783   1.632   4.443  0.2151  0.0329  0.0424
  174DOPC  H17S21261   6.640   1.554   4.518 -0.7189  0.4151 -0.3675
  174DOPC  C21821262   6.700   1.728   4.627 -0.2354 -0.4771 -0.7537
  174DOPC  H18R21263   6.607   1.714   4.685 -0.7112 -0.7796 -1.5790
  174DOPC  H18S21264   6.708   1.837   4.606 -1.5331 -0.3959 -0.9081
  174DOPC  H18T21265   6.784   1.694   4.691 -1.0046  1.0869  1.1662
  174DOPC   C3321266   5.918   2.990   3.572  0.2808  0.1959  0.3689
  174DOPC   H3X21267   5.922   3.090   3.523 -2.0235 -0.2914 -0.9249
  174DOPC   H3Y21268   5.999   2.985   3.648  0.3413  2.4618  0.5441
  174DOPC   C3421269   5.787   2.996   3.653 -0.1776  0.1933 -0.3636
  174DOPC   H4X21270   5.697   2.991   3.588 -0.0832 -2.4741 -0.3949
  174DOPC   H4Y21271   5.793   3.093   3.708 -1.0355 -0.3067  0.6475
  174DOPC   C3521272   5.772   2.880   3.760  0.3970  0.1422  0.3716
  174DOPC   H5X21273   5.778   2.777   3.720 -2.4463 -0.2104  0.6408
  174DOPC   H5Y21274   5.669   2.895   3.799  1.0304  0.0029  2.2088
  174DOPC   C3621275   5.874   2.883   3.874 -0.5961 -0.2018 -0.1360
  174DOPC   H6X21276   5.963   2.820   3.853  3.0164  4.7353 -1.2977
  174DOPC   H6Y21277   5.924   2.981   3.859  2.0303 -1.6421 -1.6713
  174DOPC   C3721278   5.804   2.875   4.017  0.0217  0.2348 -0.6006
  174DOPC   H7X21279   5.738   2.964   4.027  1.4152  1.6465 -2.9621
  174DOPC   H7Y21280   5.753   2.777   4.028  0.6425  0.0578  0.9448
  174DOPC   C3821281   5.917   2.874   4.132  0.1460 -1.1209  0.0229
  174DOPC   H8X21282   5.865   2.888   4.228 -0.1428  2.3897 -0.5352
  174DOPC   H8Y21283   5.983   2.961   4.110 -1.4058  0.2104  0.4846
  174DOPC   C3921284   5.998   2.749   4.144 -0.3118  0.2645  0.0117
  174DOPC   H9X21285   6.015   2.694   4.051  0.4638  0.6427 -0.0792
  174DOPC  C31021286   6.055   2.695   4.257 -1.1221  0.1099 -0.1089
  174DOPC  H10X21287   6.106   2.600   4.236  0.1207  0.2925  1.9223
  174DOPC  C31121288   6.039   2.730   4.404  0.5588  0.1539  0.0067
  174DOPC  H11X21289   5.984   2.826   4.412 -1.0926 -0.5643 -1.9649
  174DOPC  H11Y21290   6.138   2.729   4.455 -0.0779  2.0972  1.4081
  174DOPC  C31221291   5.952   2.627   4.481 -0.1980 -0.0833 -0.1105
  174DOPC  H12X21292   5.855   2.620   4.426  0.3098 -0.5859 -0.9564
  174DOPC  H12Y21293   5.918   2.657   4.582 -0.6491 -0.3029 -0.1935
  174DOPC  C31321294   6.002   2.485   4.484  0.1142  0.4283 -0.9514
  174DOPC  H13X21295   6.043   2.461   4.383  0.5066 -1.5579 -0.3610
  174DOPC  H13Y21296   6.095   2.502   4.542  0.9556  1.8626 -2.6019
  174DOPC  C31421297   5.903   2.393   4.548 -0.4528 -0.3794  0.0951
  174DOPC  H14X21298   5.884   2.433   4.650 -0.2902  1.4830 -0.5800
  174DOPC  H14Y21299   5.807   2.370   4.498 -0.2772 -1.2318  0.1172
  174DOPC  C31521300   5.973   2.253   4.577 -0.1064 -0.3472 -0.3303
  174DOPC  H15X21301   6.063   2.272   4.639 -1.3441  0.4195  1.3032
  174DOPC  H15Y21302   6.002   2.226   4.473  0.3713  2.1029 -0.8969
  174DOPC  C31621303   5.877   2.172   4.664 -0.3045 -0.1083  0.6317
  174DOPC  H16X21304   5.772   2.190   4.631 -0.0547  1.4109  0.5911
  174DOPC  H16Y21305   5.903   2.064   4.670 -0.4533 -0.0805  2.0380
  174DOPC  C31721306   5.886   2.199   4.818 -0.0583 -0.0396  0.7605
  174DOPC  H17X21307   5.984   2.170   4.861  1.6008  1.9317 -1.4511
  174DOPC  H17Y21308   5.892   2.309   4.831 -0.5005  0.2511 -1.1279
  174DOPC  C31821309   5.759   2.141   4.896  0.3365 -0.2283 -0.2045
  174DOPC  H18X21310   5.748   2.031   4.883 -2.6063  0.0316 -0.4175
  174DOPC  H18Y21311   5.775   2.167   5.003 -1.0910 -1.5260  0.3613
  174DOPC  H18Z21312   5.671   2.187   4.848  1.1225 -0.4311 -1.9324
  175DOPC     N21313   4.010   4.905   2.502 -0.0085  0.1437 -0.4508
  175DOPC   C1221314   4.007   4.857   2.645  0.3032  0.3640 -0.7246
  175DOPC  H12A21315   4.071   4.772   2.663  0.3544  0.3366 -1.0368
  175DOPC  H12B21316   3.907   4.828   2.676 -0.4587  0.7458 -2.7072
  175DOPC   C1321317   3.967   4.787   2.409  0.7839 -0.0626 -0.7494
  175DOPC  H13A21318   3.948   4.825   2.310 -1.5432 -0.2673 -0.4493
  175DOPC  H13B21319   4.042   4.709   2.406  0.4440 -0.3720 -1.3260
  175DOPC  H13C21320   3.875   4.741   2.445  1.1207 -1.7484 -1.9033
  175DOPC   C1421321   4.150   4.943   2.467 -0.1053 -0.0641  0.4782
  175DOPC  H14A21322   4.225   4.873   2.501  1.6564  0.6970 -1.6249
  175DOPC  H14B21323   4.162   4.956   2.361  1.0015  1.3724  0.7571
  175DOPC  H14C21324   4.177   5.036   2.515 -1.0866  0.8826 -0.7276
  175DOPC   C1521325   3.914   5.021   2.476 -0.0924  0.4700  0.1005
  175DOPC  H15A21326   3.934   5.066   2.380  2.2828  0.1402  0.3794
  175DOPC  H15B21327   3.917   5.089   2.560 -5.0233  0.2892  0.7512
  175DOPC  H15C21328   3.811   4.988   2.468 -0.5634  2.2858 -2.8056
  175DOPC   C1121329   4.051   4.958   2.755 -0.1037  0.6373 -0.4096
  175DOPC  H11A21330   3.984   5.046   2.746 -0.2344  0.9272  2.4521
  175DOPC  H11B21331   4.021   4.911   2.851 -0.7300  2.4939  0.3401
  175DOPC     P21332   4.303   4.914   2.811 -0.1125  0.2020 -0.2252
  175DOPC   O1321333   4.432   4.985   2.819  0.3565  0.0542 -0.2068
  175DOPC   O1421334   4.302   4.785   2.736 -0.6847 -0.0461 -0.0851
  175DOPC   O1221335   4.189   5.001   2.749 -0.0131  0.4487 -0.8098
  175DOPC   O1121336   4.257   4.896   2.962  0.4685  0.1475  0.1288
  175DOPC    C121337   4.191   4.987   3.037 -0.3917 -0.3070  0.6563
  175DOPC    HA21338   4.085   4.958   3.051 -0.3945  0.2790  1.9357
  175DOPC    HB21339   4.194   5.086   2.988  1.4495 -0.3472  0.5942
  175DOPC    C221340   4.252   4.989   3.175 -0.3983 -0.1772 -0.1579
  175DOPC    HS21341   4.359   5.019   3.180 -0.7317  1.1954 -0.6453
  175DOPC   O2121342   4.240   4.858   3.236  0.1936 -0.0032 -0.0606
  175DOPC   C2121343   4.313   4.832   3.348 -0.2562  0.3489  0.1726
  175DOPC   O2221344   4.399   4.902   3.390  0.2420 -0.1252 -0.0514
  175DOPC   C2221345   4.277   4.697   3.408 -0.2752  0.4179 -0.3138
  175DOPC   H2R21346   4.282   4.615   3.332 -1.0250  0.7233 -0.7020
  175DOPC   H2S21347   4.171   4.691   3.443  0.5500 -2.5794  2.1611
  175DOPC    C321348   4.167   5.096   3.258 -0.3275 -0.7958  0.6294
  175DOPC    HX21349   4.068   5.052   3.281 -0.4904 -0.2009  1.1052
  175DOPC    HY21350   4.149   5.190   3.202  0.0676 -1.0912 -0.0025
  175DOPC   O3121351   4.236   5.108   3.378  0.1756  0.2867 -0.4968
  175DOPC   C3121352   4.319   5.213   3.387  0.1852  0.0724 -0.0263
  175DOPC   O3221353   4.346   5.289   3.300 -0.6035 -0.4300  0.0333
  175DOPC   C3221354   4.379   5.221   3.529 -0.2261 -0.2531  0.2574
  175DOPC   H2X21355   4.303   5.193   3.605 -1.1681  0.1040 -0.5378
  175DOPC   H2Y21356   4.474   5.164   3.516  2.0853  3.4642 -0.5107
  175DOPC   C2321357   4.373   4.671   3.524  0.8154  1.0365  0.3997
  175DOPC   H3R21358   4.358   4.732   3.615 -0.2058 -0.1953  1.0827
  175DOPC   H3S21359   4.477   4.671   3.483  1.2551 -1.6273  1.3093
  175DOPC   C2421360   4.360   4.527   3.590 -0.5264 -0.0745 -0.3239
  175DOPC   H4R21361   4.375   4.440   3.523 -1.2054 -0.5088  0.0820
  175DOPC   H4S21362   4.260   4.512   3.636  0.1982  0.1233  1.4068
  175DOPC   C2521363   4.466   4.508   3.704 -0.4725  0.3091  0.1457
  175DOPC   H5R21364   4.466   4.595   3.773  1.4483  0.4081  0.0691
  175DOPC   H5S21365   4.566   4.500   3.658 -0.4502 -0.9670  0.3720
  175DOPC   C2621366   4.451   4.380   3.789 -0.2974  0.5660 -0.3598
  175DOPC   H6R21367   4.540   4.364   3.854 -0.1823 -1.8786 -1.0399
  175DOPC   H6S21368   4.455   4.300   3.712 -1.8537  1.7517 -1.7354
  175DOPC   C2721369   4.330   4.370   3.882 -0.5911 -0.1169 -0.3444
  175DOPC   H7R21370   4.308   4.264   3.907  1.2717 -0.8446 -1.6165
  175DOPC   H7S21371   4.246   4.428   3.837  1.3867  2.3531 -1.0536
  175DOPC   C2821372   4.355   4.441   4.021 -0.0993  0.4734 -0.0422
  175DOPC   H8R21373   4.393   4.544   4.001  1.5036  0.3216  1.9387
  175DOPC   H8S21374   4.423   4.378   4.082  0.0303  0.8831  0.2422
  175DOPC   C2921375   4.227   4.469   4.102 -0.1740  0.1312 -0.4013
  175DOPC   H9R21376   4.134   4.416   4.076  0.8381 -1.0319 -1.7647
  175DOPC  C21021377   4.229   4.541   4.211 -0.0779  0.5870  0.6577
  175DOPC  H10R21378   4.142   4.534   4.278 -1.3675 -0.7834 -1.0445
  175DOPC  C21121379   4.344   4.620   4.267  0.0098  0.9517  0.0179
  175DOPC  H11R21380   4.433   4.619   4.200  1.5068 -1.4674  1.8576
  175DOPC  H11S21381   4.384   4.576   4.361  2.9662 -0.2682 -1.6793
  175DOPC  C21221382   4.310   4.764   4.299  0.4299  0.3507  0.0581
  175DOPC  H12R21383   4.221   4.781   4.363  0.1617 -1.9863  0.3692
  175DOPC  H12S21384   4.298   4.816   4.201  0.9833  1.5038  0.5738
  175DOPC  C21321385   4.420   4.844   4.370 -0.4511 -1.0544  0.2003
  175DOPC  H13R21386   4.402   4.953   4.365 -0.8288 -1.1055  0.4157
  175DOPC  H13S21387   4.516   4.825   4.318 -1.0476 -0.2689 -1.2547
  175DOPC  C21421388   4.411   4.813   4.517 -0.3063 -0.1537 -0.0762
  175DOPC  H14R21389   4.382   4.710   4.546  2.5132 -0.6724  1.3239
  175DOPC  H14S21390   4.339   4.879   4.570 -0.3779  0.0839 -0.4669
  175DOPC  C21521391   4.545   4.841   4.574 -0.9770 -0.3215 -0.7375
  175DOPC  H15R21392   4.583   4.944   4.560  0.0761 -0.3277  1.6735
  175DOPC  H15S21393   4.623   4.773   4.532  0.0763 -1.5052  2.7708
  175DOPC  C21621394   4.546   4.815   4.726 -0.2514  0.3678 -0.2369
  175DOPC  H16R21395   4.501   4.715   4.739 -0.4118  0.6174  1.3236
  175DOPC  H16S21396   4.470   4.875   4.780  0.1877 -0.2723  1.1305
  175DOPC  C21721397   4.673   4.832   4.797 -0.3862 -0.4168  0.2626
  175DOPC  H17R21398   4.705   4.930   4.756  1.3668 -1.2321 -0.4182
  175DOPC  H17S21399   4.748   4.755   4.770 -0.0741  0.4131 -1.3339
  175DOPC  C21821400   4.668   4.840   4.954 -0.1766 -0.5550  0.1684
  175DOPC  H18R21401   4.754   4.907   4.977  0.2070 -1.1314  0.4285
  175DOPC  H18S21402   4.687   4.740   4.998  0.3083 -1.0749 -1.1954
  175DOPC  H18T21403   4.583   4.891   5.005  0.5501  2.0707 -1.0851
  175DOPC   C3321404   4.432   5.364   3.558 -0.3406  0.5376 -0.1061
  175DOPC   H3X21405   4.504   5.400   3.482 -1.2990 -0.8594 -1.7280
  175DOPC   H3Y21406   4.494   5.342   3.648  0.6369 -0.1695 -0.9380
  175DOPC   C3421407   4.325   5.463   3.561  0.5391  0.4358 -0.1340
  175DOPC   H4X21408   4.250   5.439   3.483 -0.8023  2.0284  0.5908
  175DOPC   H4Y21409   4.373   5.562   3.545  1.4101  0.0434  0.0177
  175DOPC   C3521410   4.247   5.468   3.698  0.4298  0.2142  0.5652
  175DOPC   H5X21411   4.211   5.364   3.716 -0.8947  0.6787  0.6796
  175DOPC   H5Y21412   4.154   5.527   3.680 -0.0173 -0.7022 -0.2291
  175DOPC   C3621413   4.320   5.515   3.823 -0.0843  0.2523  0.2947
  175DOPC   H6X21414   4.413   5.457   3.838 -0.5134 -0.3410  0.7104
  175DOPC   H6Y21415   4.361   5.612   3.788  0.6787 -0.9859 -2.5129
  175DOPC   C3721416   4.239   5.514   3.950  1.2249 -0.1174 -0.1183
  175DOPC   H7X21417   4.139   5.556   3.929  1.4591  0.3003 -0.4275
  175DOPC   H7Y21418   4.227   5.412   3.993  1.1188 -0.9393 -2.0150
  175DOPC   C3821419   4.284   5.596   4.073  0.7993  0.1787 -0.3210
  175DOPC   H8X21420   4.209   5.570   4.151 -0.2969 -0.7315 -1.6201
  175DOPC   H8Y21421   4.276   5.701   4.039 -2.1018  0.2624  0.3116
  175DOPC   C3921422   4.421   5.565   4.113  0.1436 -0.2468  0.1250
  175DOPC   H9X21423   4.489   5.567   4.027  0.2281 -3.5189 -0.0315
  175DOPC  C31021424   4.476   5.562   4.235 -0.5043 -0.2782  0.2591
  175DOPC  H10X21425   4.586   5.558   4.226 -0.4357  3.5114 -4.0383
  175DOPC  C31121426   4.423   5.571   4.373  0.0493 -0.6801 -0.4027
  175DOPC  H11X21427   4.398   5.480   4.431  0.7103  0.3996  1.6741
  175DOPC  H11Y21428   4.339   5.644   4.381  0.2693 -0.5661  1.4291
  175DOPC  C31221429   4.536   5.637   4.463  0.5907 -0.1728  0.5906
  175DOPC  H12X21430   4.562   5.723   4.398  0.1918 -0.2469  0.3271
  175DOPC  H12Y21431   4.621   5.566   4.471  0.2787 -0.5269  0.7766
  175DOPC  C31321432   4.497   5.688   4.596  0.0917  0.2915 -0.3077
  175DOPC  H13X21433   4.592   5.725   4.640 -0.0526  1.1522 -0.6865
  175DOPC  H13Y21434   4.442   5.783   4.578 -0.3434  0.3256  1.0929
  175DOPC  C31421435   4.428   5.587   4.683  0.5332  0.3866 -0.1009
  175DOPC  H14X21436   4.318   5.582   4.671  0.5622 -4.5763 -0.6865
  175DOPC  H14Y21437   4.457   5.482   4.660  1.6882  0.6132  0.2417
  175DOPC  C31521438   4.453   5.609   4.833  0.0372  0.3748  0.0574
  175DOPC  H15X21439   4.561   5.622   4.857  1.0522  0.4303 -3.8697
  175DOPC  H15Y21440   4.418   5.520   4.890 -1.7622  1.2677  0.4276
  175DOPC  C31621441   4.372   5.737   4.883  0.4398 -0.7985 -1.1776
  175DOPC  H16X21442   4.408   5.818   4.817  1.0225  0.6337  0.7842
  175DOPC  H16Y21443   4.264   5.728   4.862  0.0055  1.5491 -0.2720
  175DOPC  C31721444   4.382   5.775   5.032 -0.3161  0.1004  0.1892
  175DOPC  H17X21445   4.328   5.695   5.087 -0.0548 -0.4798 -0.3820
  175DOPC  H17Y21446   4.488   5.771   5.066 -0.5493  1.2418  1.0949
  175DOPC  C31821447   4.318   5.909   5.063 -0.6078  0.2155 -0.2425
  175DOPC  H18X21448   4.301   5.926   5.171  0.3777  2.0378 -0.3326
  175DOPC  H18Y21449   4.382   5.988   5.019  2.0301 -1.8833 -0.4547
  175DOPC  H18Z21450   4.225   5.926   5.006 -1.7320  2.5104  2.0985
  176DOPC     N21451   4.023   1.051   2.451  0.3215 -0.4842  0.2329
  176DOPC   C1221452   3.961   1.150   2.556 -0.4810  0.1028 -0.5112
  176DOPC  H12A21453   3.954   1.246   2.508 -0.3510 -0.0916 -0.9308
  176DOPC  H12B21454   4.025   1.165   2.642 -0.4627  0.6728 -0.6210
  176DOPC   C1321455   4.040   0.925   2.529 -0.1452  0.1114  0.6281
  176DOPC  H13A21456   4.080   0.937   2.629 -0.2513 -0.5997  0.7614
  176DOPC  H13B21457   3.951   0.864   2.534 -2.7659  3.6563  1.0263
  176DOPC  H13C21458   4.118   0.869   2.479 -1.3288 -0.1972 -0.9350
  176DOPC   C1421459   4.158   1.111   2.406  0.1732  0.1904  0.5424
  176DOPC  H14A21460   4.233   1.106   2.484  0.1301  1.1647  0.6670
  176DOPC  H14B21461   4.194   1.048   2.326  0.0595  1.9219 -0.9672
  176DOPC  H14C21462   4.145   1.212   2.370 -0.1972 -0.8242 -2.4504
  176DOPC   C1521463   3.932   1.030   2.334  0.2311 -0.2989  0.0616
  176DOPC  H15A21464   3.844   0.978   2.367  0.9187 -1.0240  0.8163
  176DOPC  H15B21465   3.987   0.979   2.256 -1.1830 -1.2331 -0.3636
  176DOPC  H15C21466   3.905   1.125   2.291  1.6098  0.7688  1.4446
  176DOPC   C1121467   3.819   1.122   2.596 -0.2291  0.5393 -0.9731
  176DOPC  H11A21468   3.749   1.086   2.517 -1.0216 -0.4986  0.1581
  176DOPC  H11B21469   3.823   1.043   2.673 -0.3014  2.1473  0.7333
  176DOPC     P21470   3.641   1.246   2.730  0.3740  0.0095 -0.4087
  176DOPC   O1321471   3.529   1.185   2.649 -0.6745  0.2625 -0.0290
  176DOPC   O1421472   3.615   1.381   2.794 -0.1484  0.3602 -0.3824
  176DOPC   O1221473   3.769   1.249   2.645 -0.0544  0.8038  0.1534
  176DOPC   O1121474   3.671   1.146   2.845 -0.0393  1.1795  0.2052
  176DOPC    C121475   3.786   1.162   2.929  0.3173 -0.5669 -0.4732
  176DOPC    HA21476   3.761   1.245   2.999 -0.0651 -1.6935  0.7663
  176DOPC    HB21477   3.878   1.188   2.874  0.2369 -0.8731 -0.7572
  176DOPC    C221478   3.820   1.024   2.993 -0.2322 -0.0342 -0.2782
  176DOPC    HS21479   3.832   0.959   2.903 -0.2926  2.0053 -1.8409
  176DOPC   O2121480   3.706   0.975   3.064  0.4411 -0.0582 -0.0091
  176DOPC   C2121481   3.710   0.844   3.086  0.0959 -0.5610  0.2625
  176DOPC   O2221482   3.790   0.763   3.042  0.1793  0.0588 -0.1208
  176DOPC   C2221483   3.581   0.810   3.175 -0.1571  0.4539  0.0813
  176DOPC   H2R21484   3.503   0.756   3.116 -0.3330 -0.0382  0.7588
  176DOPC   H2S21485   3.536   0.907   3.205 -0.5524  0.6480 -1.0927
  176DOPC    C321486   3.944   1.023   3.089 -0.1640  0.2195  0.4825
  176DOPC    HX21487   4.032   1.058   3.030 -1.0571  0.8551 -0.5124
  176DOPC    HY21488   3.988   0.922   3.107  0.8198  0.6925  0.7859
  176DOPC   O3121489   3.916   1.087   3.218 -0.1606 -0.1220  0.0585
  176DOPC   C3121490   3.950   1.214   3.229 -0.7296 -0.1691  0.0439
  176DOPC   O3221491   4.017   1.276   3.147  0.2039 -0.1596  0.3477
  176DOPC   C3221492   3.905   1.278   3.363 -0.4870  0.3180  0.4031
  176DOPC   H2X21493   3.794   1.289   3.364 -0.4125  1.1384  1.0431
  176DOPC   H2Y21494   3.937   1.214   3.448 -1.1412  0.6816  0.9362
  176DOPC   C2321495   3.621   0.733   3.304  0.6212 -0.2225 -0.2037
  176DOPC   H3R21496   3.665   0.632   3.295  1.6785  0.3619 -2.1287
  176DOPC   H3S21497   3.524   0.715   3.357  1.3012  2.1487  2.0780
  176DOPC   C2421498   3.711   0.814   3.394 -0.2111 -0.4994  0.1778
  176DOPC   H4R21499   3.782   0.866   3.327 -2.1334 -0.2894 -1.8020
  176DOPC   H4S21500   3.766   0.747   3.464  0.2887 -0.5192 -0.2231
  176DOPC   C2521501   3.627   0.913   3.484 -0.2062 -0.6734  0.8310
  176DOPC   H5R21502   3.548   0.853   3.534  0.2052 -1.3131  0.7266
  176DOPC   H5S21503   3.576   0.986   3.418 -1.7391 -2.5695 -0.1972
  176DOPC   C2621504   3.708   0.993   3.589 -0.7757  0.1245  0.1992
  176DOPC   H6R21505   3.648   1.076   3.632 -1.2963 -0.9042  1.5564
  176DOPC   H6S21506   3.798   1.027   3.535 -1.2251 -1.4698 -1.6908
  176DOPC   C2721507   3.749   0.900   3.704  0.2322 -0.1776 -0.6942
  176DOPC   H7R21508   3.795   0.818   3.645 -0.6061  0.0915 -1.7546
  176DOPC   H7S21509   3.655   0.869   3.755 -1.2208  3.1931 -1.0662
  176DOPC   C2821510   3.850   0.963   3.800  0.1769  0.7853  0.6521
  176DOPC   H8R21511   3.943   1.004   3.756  3.1441 -0.6141  4.8898
  176DOPC   H8S21512   3.888   0.886   3.871 -0.4330 -1.1950 -1.0995
  176DOPC   C2921513   3.792   1.074   3.883 -0.8562 -0.0904  0.5615
  176DOPC   H9R21514   3.807   1.175   3.843  0.4322  0.1020  1.4818
  176DOPC  C21021515   3.726   1.051   4.000  0.0291  0.2184  0.3343
  176DOPC  H10R21516   3.687   1.140   4.051 -1.3008  0.7291 -1.5023
  176DOPC  C21121517   3.688   0.917   4.054  0.0248 -0.3253 -0.1849
  176DOPC  H11R21518   3.707   0.837   3.980  0.5035 -0.6687  0.3106
  176DOPC  H11S21519   3.578   0.923   4.069  0.1067  0.6821  0.1035
  176DOPC  C21221520   3.778   0.893   4.182  0.7225 -0.6003  0.4263
  176DOPC  H12R21521   3.883   0.896   4.147  0.4651 -0.2727 -0.3442
  176DOPC  H12S21522   3.761   0.793   4.228 -1.1071 -1.0994 -1.1888
  176DOPC  C21321523   3.755   1.013   4.281  0.6706  0.0656  0.4526
  176DOPC  H13R21524   3.650   1.048   4.289  0.1399 -1.5183  0.7137
  176DOPC  H13S21525   3.807   1.100   4.235  1.9131 -0.7694  0.2188
  176DOPC  C21421526   3.815   0.987   4.424  0.6333 -0.3866  0.6032
  176DOPC  H14R21527   3.920   0.956   4.411  0.8546  0.5862  0.0098
  176DOPC  H14S21528   3.761   0.900   4.468  0.8419 -1.6088 -1.4484
  176DOPC  C21521529   3.821   1.102   4.521 -0.1209  0.0290  0.4916
  176DOPC  H15R21530   3.894   1.178   4.484  1.2226 -1.3415  0.2165
  176DOPC  H15S21531   3.862   1.065   4.618 -0.2876 -1.3941  0.0279
  176DOPC  C21621532   3.679   1.172   4.536  0.2171 -0.0164 -0.0706
  176DOPC  H16R21533   3.603   1.098   4.569  1.9449 -0.2161  4.0472
  176DOPC  H16S21534   3.638   1.211   4.441 -0.7878 -0.6661  0.0797
  176DOPC  C21721535   3.671   1.297   4.636 -0.8049 -0.4838 -0.3059
  176DOPC  H17R21536   3.594   1.277   4.714  0.5256 -1.2261  0.8707
  176DOPC  H17S21537   3.647   1.387   4.575 -2.4141 -0.4966  0.2676
  176DOPC  C21821538   3.794   1.319   4.722  0.6730 -0.6970 -0.4215
  176DOPC  H18R21539   3.816   1.229   4.784  0.9607 -0.8207 -0.6952
  176DOPC  H18S21540   3.765   1.391   4.802 -0.4224 -0.3581 -1.1105
  176DOPC  H18T21541   3.886   1.344   4.664  0.6195 -0.4236 -0.3882
  176DOPC   C3321542   3.982   1.413   3.374 -1.1179 -0.2277 -0.5728
  176DOPC   H3X21543   3.969   1.490   3.295  0.1386  1.9734  1.2410
  176DOPC   H3Y21544   4.087   1.377   3.378 -0.5337  1.4578  0.6693
  176DOPC   C3421545   3.972   1.496   3.513 -0.2772  0.9040 -0.1848
  176DOPC   H4X21546   3.880   1.558   3.507  0.8071  2.8386  1.8344
  176DOPC   H4Y21547   4.056   1.568   3.525 -1.3390  2.1770 -0.2326
  176DOPC   C3521548   3.970   1.414   3.647 -0.4388  0.7727 -0.3362
  176DOPC   H5X21549   4.054   1.345   3.627 -1.7857 -0.6670 -1.2193
  176DOPC   H5Y21550   3.880   1.350   3.657  1.0269 -1.3133  0.2989
  176DOPC   C3621551   4.002   1.496   3.771  0.1464  0.2323 -0.2852
  176DOPC   H6X21552   4.068   1.434   3.836  0.0444 -2.0590 -2.2134
  176DOPC   H6Y21553   4.068   1.582   3.746 -1.2406  1.5022  0.2543
  176DOPC   C3721554   3.874   1.556   3.832 -0.0247  0.6631  0.2150
  176DOPC   H7X21555   3.857   1.654   3.783 -0.4265 -0.0758 -1.1949
  176DOPC   H7Y21556   3.782   1.499   3.807 -0.7790  1.5753  0.8821
  176DOPC   C3821557   3.892   1.577   3.990  0.0407  0.1780  0.6037
  176DOPC   H8X21558   3.817   1.655   4.012 -0.1628 -0.6721  3.2774
  176DOPC   H8Y21559   3.987   1.629   4.011 -0.1549  1.5826 -1.6603
  176DOPC   C3921560   3.877   1.449   4.081 -0.4422 -0.2269  0.6819
  176DOPC   H9X21561   3.936   1.362   4.048 -0.8315 -0.2202 -0.0575
  176DOPC  C31021562   3.823   1.445   4.201 -0.1459 -0.0912 -0.3440
  176DOPC  H10X21563   3.811   1.349   4.254  0.4933  0.0153 -0.0036
  176DOPC  C31121564   3.765   1.562   4.277  0.0149 -0.2240  0.1321
  176DOPC  H11X21565   3.698   1.526   4.358 -0.9432  0.7938 -0.1745
  176DOPC  H11Y21566   3.696   1.622   4.213 -2.5511 -1.9479  1.1174
  176DOPC  C31221567   3.859   1.654   4.343 -0.3658 -0.1485 -0.4286
  176DOPC  H12X21568   3.801   1.719   4.412  0.6093 -2.2404  2.5619
  176DOPC  H12Y21569   3.918   1.722   4.278  1.0547  2.5577  3.3476
  176DOPC  C31321570   3.962   1.586   4.436 -0.1791 -0.4055 -0.1737
  176DOPC  H13X21571   3.906   1.514   4.500 -3.4891 -0.5253 -2.9167
  176DOPC  H13Y21572   4.027   1.528   4.368 -0.5931 -0.9355 -0.1271
  176DOPC  C31421573   4.043   1.682   4.517 -0.3896  0.2334 -0.1476
  176DOPC  H14X21574   4.085   1.753   4.443 -4.7136 -0.1661 -3.3280
  176DOPC  H14Y21575   3.976   1.741   4.583 -0.0585  0.3799  0.0607
  176DOPC  C31521576   4.160   1.637   4.610 -0.7704 -0.1584 -0.4216
  176DOPC  H15X21577   4.243   1.591   4.554  0.4592  0.5576  0.7352
  176DOPC  H15Y21578   4.115   1.561   4.678  0.0779  1.1714  1.7701
  176DOPC  C31621579   4.218   1.759   4.686  0.8670  0.6655  0.6679
  176DOPC  H16X21580   4.274   1.810   4.605  1.7479 -0.2108  0.7084
  176DOPC  H16Y21581   4.127   1.804   4.731  0.0203 -1.8345  1.6118
  176DOPC  C31721582   4.296   1.712   4.805 -0.2451 -0.5239  0.2164
  176DOPC  H17X21583   4.226   1.652   4.868  1.9998 -2.1830  1.2326
  176DOPC  H17Y21584   4.382   1.651   4.771 -0.5197  0.5136 -2.5628
  176DOPC  C31821585   4.345   1.826   4.900  0.2084 -0.3161  0.5156
  176DOPC  H18X21586   4.374   1.771   4.993 -0.0827 -1.3192  0.0211
  176DOPC  H18Y21587   4.434   1.878   4.858  0.3854 -0.6237  0.5083
  176DOPC  H18Z21588   4.274   1.904   4.935  0.5129  0.9585 -1.5645
  177DOPC     N21589   6.191   6.278   2.665 -0.1544  0.3193  0.0337
  177DOPC   C1221590   6.115   6.174   2.585 -0.1725  0.3545 -0.0178
  177DOPC  H12A21591   6.163   6.166   2.489 -1.9005  0.8818 -0.9830
  177DOPC  H12B21592   6.016   6.214   2.565 -0.5166 -0.6744 -0.4537
  177DOPC   C1321593   6.324   6.226   2.721 -0.1806 -0.3428 -0.4706
  177DOPC  H13A21594   6.374   6.174   2.640  2.3353  1.8197 -0.4381
  177DOPC  H13B21595   6.390   6.300   2.765 -1.1630  1.4344 -1.8396
  177DOPC  H13C21596   6.300   6.150   2.794 -0.8137 -0.1539 -0.4739
  177DOPC   C1421597   6.115   6.339   2.781 -0.1207  0.5733 -0.7978
  177DOPC  H14A21598   6.010   6.349   2.757 -0.7718 -1.0064  1.1305
  177DOPC  H14B21599   6.107   6.273   2.865 -1.2599  0.4933 -0.9526
  177DOPC  H14C21600   6.166   6.432   2.801 -0.1261  0.9864 -2.5428
  177DOPC   C1521601   6.227   6.383   2.561  0.2704 -0.1770  0.4574
  177DOPC  H15A21602   6.293   6.458   2.603  1.3579 -0.7559 -0.1529
  177DOPC  H15B21603   6.143   6.433   2.515  1.6637  0.2181 -1.8790
  177DOPC  H15C21604   6.280   6.338   2.478 -1.4618 -0.7073 -0.3942
  177DOPC   C1121605   6.090   6.041   2.657  0.1307  0.4669  0.5007
  177DOPC  H11A21606   6.034   5.974   2.588  1.4320  0.9341 -1.0981
  177DOPC  H11B21607   6.190   5.999   2.678 -0.6231 -1.8389 -0.2440
  177DOPC     P21608   6.045   5.998   2.902  0.4461 -0.2423  0.3643
  177DOPC   O1321609   6.022   5.856   2.897 -0.1936  1.1147 -0.0675
  177DOPC   O1421610   5.969   6.078   3.004  0.2513  0.2217 -0.2075
  177DOPC   O1221611   6.008   6.059   2.768 -0.0238 -0.4417  0.8608
  177DOPC   O1121612   6.198   6.017   2.913 -0.0923  0.2788  0.6092
  177DOPC    C121613   6.288   5.957   3.009 -0.1294 -0.9773 -0.9370
  177DOPC    HA21614   6.391   5.960   2.968 -0.1535 -1.2649 -1.0210
  177DOPC    HB21615   6.259   5.851   3.027 -1.9960 -0.8052 -2.5756
  177DOPC    C221616   6.296   6.031   3.151 -0.2777  0.6415  0.0084
  177DOPC    HS21617   6.386   5.991   3.201 -1.7025  0.5256  2.6711
  177DOPC   O2121618   6.172   5.997   3.223  0.3167 -0.1264 -0.4721
  177DOPC   C2121619   6.156   5.875   3.271 -0.5473 -0.0623  0.0416
  177DOPC   O2221620   6.246   5.791   3.279  0.6671  0.1725 -0.1485
  177DOPC   C2221621   6.012   5.849   3.298  0.0917 -0.5588  0.4518
  177DOPC   H2R21622   5.962   5.851   3.199 -1.3387 -1.6155  1.1124
  177DOPC   H2S21623   5.967   5.936   3.352  1.5667 -0.2388  1.1990
  177DOPC    C321624   6.311   6.180   3.136  0.2771  0.0649 -0.4909
  177DOPC    HX21625   6.218   6.230   3.101  0.1346  0.2141  0.0887
  177DOPC    HY21626   6.397   6.218   3.076  2.4534  0.2033  2.5170
  177DOPC   O3121627   6.322   6.240   3.263  0.3681 -0.2263 -0.5210
  177DOPC   C3121628   6.438   6.223   3.327  0.0738 -0.3296  0.3367
  177DOPC   O3221629   6.537   6.165   3.279  0.3351 -0.5234  0.5223
  177DOPC   C3221630   6.424   6.297   3.464 -0.4168  0.0687 -0.6310
  177DOPC   H2X21631   6.333   6.359   3.451 -0.7975  0.1741  1.9507
  177DOPC   H2Y21632   6.412   6.216   3.539  1.2767  0.6714  0.3410
  177DOPC   C2321633   5.985   5.722   3.379 -0.5995 -0.0228  0.1320
  177DOPC   H3R21634   6.067   5.693   3.448 -1.6752  0.6915  1.8036
  177DOPC   H3S21635   5.967   5.639   3.307  2.2338 -1.0643  0.5187
  177DOPC   C2421636   5.861   5.738   3.465 -0.7966  0.0251 -0.3942
  177DOPC   H4R21637   5.777   5.792   3.417  0.0464  1.3261 -0.4816
  177DOPC   H4S21638   5.885   5.801   3.553 -0.4747  1.3480 -1.3959
  177DOPC   C2521639   5.786   5.607   3.510 -0.1131  0.5667 -0.1558
  177DOPC   H5R21640   5.854   5.534   3.557 -1.1036 -0.0354  0.3823
  177DOPC   H5S21641   5.738   5.555   3.425  1.1590 -0.1443 -0.4496
  177DOPC   C2621642   5.677   5.639   3.617 -0.4095  0.3905  0.0403
  177DOPC   H6R21643   5.615   5.548   3.631 -1.1810  0.7690 -0.8087
  177DOPC   H6S21644   5.605   5.710   3.571 -1.2528 -0.4897 -0.0219
  177DOPC   C2721645   5.717   5.678   3.763 -0.1920  0.3411 -0.4752
  177DOPC   H7R21646   5.771   5.775   3.763 -2.5906  1.7534  0.0694
  177DOPC   H7S21647   5.781   5.596   3.803 -3.4849 -1.3700  1.8452
  177DOPC   C2821648   5.590   5.679   3.850  0.9940 -0.3314 -0.6173
  177DOPC   H8R21649   5.498   5.728   3.811  2.1548  2.2392 -0.3940
  177DOPC   H8S21650   5.620   5.735   3.942  1.7902  0.2231 -1.2010
  177DOPC   C2921651   5.546   5.535   3.880 -0.7828  0.3764 -0.2399
  177DOPC   H9R21652   5.468   5.489   3.817  0.2277 -2.1566  0.2351
  177DOPC  C21021653   5.594   5.453   3.974 -0.2695 -0.2002 -0.4414
  177DOPC  H10R21654   5.535   5.361   3.986  0.0430 -0.3749 -0.2321
  177DOPC  C21121655   5.692   5.494   4.082  0.5952  0.9495 -0.6861
  177DOPC  H11R21656   5.731   5.596   4.062  1.4039  0.2221 -3.1831
  177DOPC  H11S21657   5.786   5.436   4.068  0.2893  0.8257 -2.5191
  177DOPC  C21221658   5.651   5.453   4.224  0.0220  0.4264  0.4776
  177DOPC  H12R21659   5.741   5.472   4.287  0.2312 -0.4678  0.4589
  177DOPC  H12S21660   5.645   5.343   4.211 -0.7817  0.6303 -1.1318
  177DOPC  C21321661   5.517   5.512   4.268 -0.2511  0.4135  0.6943
  177DOPC  H13R21662   5.441   5.448   4.219  1.0649 -0.8478  0.2206
  177DOPC  H13S21663   5.512   5.615   4.225  1.8450  0.3950  0.3173
  177DOPC  C21421664   5.496   5.502   4.419 -0.0389  0.0413 -0.2825
  177DOPC  H14R21665   5.573   5.576   4.451 -0.1739  0.7369 -1.4962
  177DOPC  H14S21666   5.518   5.396   4.444 -0.4537 -0.1076 -0.5369
  177DOPC  C21521667   5.351   5.523   4.459  0.1606 -0.7217 -0.1179
  177DOPC  H15R21668   5.287   5.446   4.412 -2.2790  1.3668 -0.3873
  177DOPC  H15S21669   5.322   5.622   4.419 -0.8843 -0.6943  0.6748
  177DOPC  C21621670   5.331   5.515   4.611  0.5699  0.4272 -0.2129
  177DOPC  H16R21671   5.231   5.553   4.638  0.9656  0.5463  1.1552
  177DOPC  H16S21672   5.396   5.590   4.662  0.0081  0.4780  0.4416
  177DOPC  C21721673   5.336   5.378   4.690  0.0839  0.2663 -0.2530
  177DOPC  H17R21674   5.429   5.325   4.660 -0.2212 -0.6377  0.3656
  177DOPC  H17S21675   5.248   5.318   4.656  1.3128 -1.6133 -0.2998
  177DOPC  C21821676   5.339   5.400   4.842 -0.1335 -0.2846 -0.6617
  177DOPC  H18R21677   5.343   5.296   4.881  1.0790 -0.0010  0.0182
  177DOPC  H18S21678   5.253   5.464   4.874  0.1129  0.7890 -2.0653
  177DOPC  H18T21679   5.423   5.464   4.877 -0.9068  2.6528 -3.6597
  177DOPC   C3321680   6.558   6.378   3.474  0.0421 -0.0289  0.1624
  177DOPC   H3X21681   6.564   6.454   3.393  0.5396  3.0348  2.8672
  177DOPC   H3Y21682   6.649   6.314   3.478 -0.0209 -0.2519 -1.3655
  177DOPC   C3421683   6.544   6.472   3.595  0.2876  0.0917 -0.0997
  177DOPC   H4X21684   6.506   6.407   3.676  0.0318  1.5271  0.9494
  177DOPC   H4Y21685   6.476   6.558   3.578  2.5784  1.8685 -0.8179
  177DOPC   C3521686   6.677   6.537   3.638  0.6642  0.4853 -0.2241
  177DOPC   H5X21687   6.687   6.631   3.579  1.6225  1.0564  0.8270
  177DOPC   H5Y21688   6.763   6.468   3.623 -0.8107 -1.5745  0.3682
  177DOPC   C3621689   6.668   6.578   3.788 -0.1258  0.8034  0.4280
  177DOPC   H6X21690   6.584   6.650   3.796  0.2469  1.2488  0.3770
  177DOPC   H6Y21691   6.649   6.488   3.850 -0.3458 -0.3821 -1.2657
  177DOPC   C3721692   6.801   6.643   3.835 -0.0150  1.0651  0.1563
  177DOPC   H7X21693   6.876   6.562   3.823  0.5243  1.0984  2.6860
  177DOPC   H7Y21694   6.825   6.735   3.777  1.3647  1.3810  1.1477
  177DOPC   C3821695   6.800   6.675   3.985  0.1484  0.4286 -0.1748
  177DOPC   H8X21696   6.758   6.591   4.044  0.1861  1.4406  1.3537
  177DOPC   H8Y21697   6.728   6.758   4.002 -0.4784 -0.5504  2.3593
  177DOPC   C3921698   6.934   6.728   4.034 -0.0272  0.3442  0.9523
  177DOPC   H9X21699   6.978   6.809   3.975  0.8678 -1.6739 -1.3140
  177DOPC  C31021700   6.993   6.683   4.147 -0.4001 -0.7472 -0.6935
  177DOPC  H10X21701   7.072   6.742   4.195 -1.3377  0.9045 -1.1233
  177DOPC  C31121702   6.935   6.577   4.235 -0.6560  0.0088  0.8725
  177DOPC  H11X21703   6.826   6.556   4.226  0.0379 -3.5548 -0.7561
  177DOPC  H11Y21704   6.948   6.618   4.338  0.2882  0.2026  0.6798
  177DOPC  C31221705   7.012   6.440   4.222 -0.1550 -0.8018  0.5329
  177DOPC  H12X21706   7.122   6.444   4.206 -0.0363 -0.7164  1.3466
  177DOPC  H12Y21707   6.966   6.390   4.134 -1.4343 -0.0642  0.7567
  177DOPC  C31321708   6.994   6.357   4.347  0.5571  0.1409 -0.0167
  177DOPC  H13X21709   7.068   6.385   4.425  0.7796 -0.9775  0.2038
  177DOPC  H13Y21710   6.896   6.374   4.396 -0.2147 -1.8844 -0.7374
  177DOPC  C31421711   7.010   6.203   4.318 -0.2107 -1.0724 -0.3043
  177DOPC  H14X21712   7.003   6.145   4.413  0.0686 -1.8097 -0.7338
  177DOPC  H14Y21713   6.924   6.165   4.260 -0.6968 -2.8236  1.4594
  177DOPC  C31521714   7.147   6.150   4.266  0.2649 -0.0140 -0.2764
  177DOPC  H15X21715   7.168   6.199   4.169 -1.8260  0.7233 -0.4192
  177DOPC  H15Y21716   7.140   6.040   4.250 -0.8751  0.1828 -1.2597
  177DOPC  C31621717   7.270   6.175   4.351 -0.1214 -0.5896 -0.7491
  177DOPC  H16X21718   7.296   6.283   4.359  0.2081 -0.8018  1.7742
  177DOPC  H16Y21719   7.247   6.156   4.458  0.4085 -0.9842 -0.7050
  177DOPC  C31721720   7.404   6.098   4.314 -0.0640 -0.5114 -0.1817
  177DOPC  H17X21721   7.377   5.990   4.315 -2.4252 -0.0636 -2.8111
  177DOPC  H17Y21722   7.435   6.130   4.213 -1.2916 -2.4769 -1.2531
  177DOPC  C31821723   7.520   6.100   4.413 -0.3797  0.1893 -0.3649
  177DOPC  H18X21724   7.509   6.045   4.509  0.5222  1.1083  0.2908
  177DOPC  H18Y21725   7.601   6.045   4.362  0.9429 -0.5344  2.3166
  177DOPC  H18Z21726   7.559   6.200   4.443 -1.1942 -0.0783  1.7783
  178DOPC     N21727   3.955   5.667   2.749 -0.0598 -0.5039  0.2655
  178DOPC   C1221728   3.811   5.693   2.784 -0.6271  0.3838 -0.1233
  178DOPC  H12A21729   3.778   5.769   2.715  1.9000  1.5699 -0.1336
  178DOPC  H12B21730   3.805   5.751   2.875  0.9948 -0.5300  0.5899
  178DOPC   C1321731   4.030   5.794   2.778  0.1946 -0.2256  0.3884
  178DOPC  H13A21732   3.998   5.832   2.873 -0.7670  0.8838 -0.3455
  178DOPC  H13B21733   4.136   5.785   2.759  0.3439 -0.0023  1.1096
  178DOPC  H13C21734   3.996   5.870   2.709 -0.3535 -0.8003  0.0062
  178DOPC   C1421735   3.973   5.614   2.613  0.0084  0.8000 -0.9952
  178DOPC  H14A21736   4.078   5.614   2.587  0.4447 -0.6593  0.6008
  178DOPC  H14B21737   3.937   5.512   2.615  0.4020  0.6659 -0.7301
  178DOPC  H14C21738   3.937   5.673   2.530  0.0218  1.4539 -0.5458
  178DOPC   C1521739   4.019   5.568   2.842 -0.1930 -0.2671  0.0383
  178DOPC  H15A21740   4.120   5.551   2.807 -0.2035 -3.0937  1.0624
  178DOPC  H15B21741   3.965   5.474   2.851 -0.2618 -0.2947 -0.6023
  178DOPC  H15C21742   4.020   5.607   2.943 -1.0754 -0.9980  0.3454
  178DOPC   C1121743   3.700   5.579   2.773  0.2407  0.8665 -0.2703
  178DOPC  H11A21744   3.605   5.637   2.777  0.8896  1.9883 -0.5764
  178DOPC  H11B21745   3.703   5.525   2.676 -0.2838 -0.1549  0.2690
  178DOPC     P21746   3.594   5.452   2.986 -0.3227  0.3488  0.0967
  178DOPC   O1321747   3.652   5.375   3.099  1.0939 -0.5021  0.5071
  178DOPC   O1421748   3.480   5.387   2.915  0.0706 -0.5015 -0.4382
  178DOPC   O1221749   3.712   5.487   2.883 -0.1123  0.0411  0.1664
  178DOPC   O1121750   3.540   5.596   3.035 -0.0503 -0.0020  0.2264
  178DOPC    C121751   3.634   5.696   3.082 -0.0085  0.1052  0.0774
  178DOPC    HA21752   3.621   5.788   3.021  3.2639  0.1160 -0.7649
  178DOPC    HB21753   3.741   5.683   3.056  0.1000  2.3304 -0.7881
  178DOPC    C221754   3.619   5.738   3.234  0.6853  0.2748  0.1489
  178DOPC    HS21755   3.702   5.801   3.273  0.4739  0.0729  0.9441
  178DOPC   O2121756   3.618   5.623   3.313  0.4081 -0.1221  0.0847
  178DOPC   C2121757   3.728   5.550   3.320  0.3686 -0.2230 -0.1020
  178DOPC   O2221758   3.836   5.578   3.279 -0.0702 -0.2120  0.6003
  178DOPC   C2221759   3.694   5.432   3.419  0.1996 -0.1474  0.0821
  178DOPC   H2R21760   3.616   5.376   3.363 -1.7818  0.1541  2.3679
  178DOPC   H2S21761   3.647   5.481   3.507 -1.3505 -0.0608 -0.7523
  178DOPC    C321762   3.484   5.813   3.259 -0.3232 -0.0158  0.2908
  178DOPC    HX21763   3.410   5.730   3.258  0.6291 -0.9591  2.2412
  178DOPC    HY21764   3.469   5.898   3.189  0.7095 -0.6127 -0.6802
  178DOPC   O3121765   3.496   5.863   3.392  0.3622 -0.2264 -1.0271
  178DOPC   C3121766   3.415   5.971   3.413 -0.1084  0.1114 -0.8574
  178DOPC   O3221767   3.339   6.018   3.335  0.0932  0.0261  0.3062
  178DOPC   C3221768   3.430   6.031   3.554  0.0750 -1.4304 -0.4523
  178DOPC   H2X21769   3.528   6.084   3.555 -1.0414  0.7929 -1.1389
  178DOPC   H2Y21770   3.347   6.104   3.566  1.9039  0.5458  0.8301
  178DOPC   C2321771   3.807   5.341   3.456 -0.0593  0.1322 -0.4901
  178DOPC   H3R21772   3.884   5.386   3.522 -0.9154  2.9082 -1.2225
  178DOPC   H3S21773   3.854   5.300   3.364  0.5125 -0.3858  0.0369
  178DOPC   C2421774   3.761   5.230   3.553 -0.7705  0.1129  0.5649
  178DOPC   H4R21775   3.660   5.188   3.537 -1.5832  2.0000  0.5064
  178DOPC   H4S21776   3.740   5.278   3.651 -1.0757 -3.0624  2.1868
  178DOPC   C2521777   3.872   5.122   3.570  0.7652  0.0075  0.4109
  178DOPC   H5R21778   3.922   5.112   3.471 -1.7342  4.8136 -1.6650
  178DOPC   H5S21779   3.826   5.024   3.594 -0.6968  0.4949 -0.2768
  178DOPC   C2621780   3.972   5.167   3.681  0.3534 -0.4687 -0.2009
  178DOPC   H6R21781   3.911   5.184   3.772  1.3560  0.8999  0.2558
  178DOPC   H6S21782   4.024   5.259   3.646  2.1344 -0.6493  1.7243
  178DOPC   C2721783   4.068   5.055   3.712 -0.6902 -0.5608 -0.2714
  178DOPC   H7R21784   4.150   5.053   3.637  1.8456  1.1151  2.2422
  178DOPC   H7S21785   4.010   4.960   3.720 -0.2591 -0.6874  2.0442
  178DOPC   C2821786   4.130   5.073   3.860  0.4120  0.0816 -0.1633
  178DOPC   H8R21787   4.047   5.077   3.933  0.3668  2.0164 -0.2693
  178DOPC   H8S21788   4.166   5.178   3.864  1.4460 -0.1229 -2.4411
  178DOPC   C2921789   4.241   4.973   3.898  0.0047  0.4132  0.2174
  178DOPC   H9R21790   4.194   4.880   3.935  1.2625 -0.1977  0.3494
  178DOPC  C21021791   4.377   4.982   3.886 -0.0896 -0.1172  0.0207
  178DOPC  H10R21792   4.442   4.894   3.894  0.0319 -0.1069 -0.8049
  178DOPC  C21121793   4.454   5.111   3.842  0.3235  0.3896  0.4805
  178DOPC  H11R21794   4.382   5.182   3.795  1.3268  0.4250 -1.0714
  178DOPC  H11S21795   4.531   5.087   3.766 -0.6715  0.8074 -0.6861
  178DOPC  C21221796   4.523   5.191   3.955 -0.0595  0.1863 -0.6141
  178DOPC  H12R21797   4.440   5.215   4.026  1.3616 -0.2395  1.2533
  178DOPC  H12S21798   4.560   5.291   3.923  1.6298  0.4098  1.7678
  178DOPC  C21321799   4.634   5.116   4.032 -0.0362 -0.5339  0.1513
  178DOPC  H13R21800   4.722   5.111   3.964 -0.5429 -1.4027 -0.4543
  178DOPC  H13S21801   4.607   5.011   4.052  2.4812 -1.6070 -1.5368
  178DOPC  C21421802   4.675   5.189   4.160  0.5742 -0.5111 -0.6004
  178DOPC  H14R21803   4.579   5.197   4.215  0.9007  1.1250 -0.1970
  178DOPC  H14S21804   4.694   5.297   4.142 -0.5852  0.2344  2.1680
  178DOPC  C21521805   4.775   5.119   4.255 -0.0565 -0.2612 -0.4620
  178DOPC  H15R21806   4.878   5.154   4.228 -0.5667  1.6615 -0.0892
  178DOPC  H15S21807   4.770   5.009   4.250  0.3483 -0.4994  2.4341
  178DOPC  C21621808   4.757   5.154   4.404 -0.1371 -0.2739  0.4310
  178DOPC  H16R21809   4.841   5.109   4.461  0.0797 -1.3598 -0.6796
  178DOPC  H16S21810   4.655   5.124   4.437 -0.3499  0.1197  0.1363
  178DOPC  C21721811   4.785   5.303   4.433 -0.3535  0.1154  0.1577
  178DOPC  H17R21812   4.763   5.328   4.539 -0.9420  1.2876 -0.2208
  178DOPC  H17S21813   4.717   5.365   4.371  0.7279 -0.6205 -1.8180
  178DOPC  C21821814   4.929   5.360   4.419  0.0334 -0.0899  0.1688
  178DOPC  H18R21815   4.939   5.456   4.474 -0.1339 -0.6066  1.1294
  178DOPC  H18S21816   4.958   5.379   4.313  2.7355  0.3506  0.9328
  178DOPC  H18T21817   4.997   5.296   4.478 -1.6158 -0.7163  1.4595
  178DOPC   C3321818   3.409   5.916   3.649  0.1007  0.2790  0.6711
  178DOPC   H3X21819   3.493   5.843   3.650  0.6134  0.8566 -0.0915
  178DOPC   H3Y21820   3.324   5.850   3.621  1.9884 -2.5032  1.0175
  178DOPC   C3421821   3.386   5.962   3.795 -0.1074  0.4762  0.2266
  178DOPC   H4X21822   3.329   6.056   3.809 -1.8311 -0.7768  2.2976
  178DOPC   H4Y21823   3.490   5.981   3.830 -0.4504  0.4934  1.2687
  178DOPC   C3521824   3.319   5.851   3.879  0.3944  0.1890  0.5433
  178DOPC   H5X21825   3.384   5.761   3.887 -0.6701 -0.4289  2.9813
  178DOPC   H5Y21826   3.225   5.816   3.832  0.8674 -0.1406 -0.1911
  178DOPC   C3621827   3.288   5.908   4.023 -0.4802 -0.0135  0.6765
  178DOPC   H6X21828   3.388   5.949   4.051 -0.2586  0.7725 -1.1112
  178DOPC   H6Y21829   3.217   5.993   4.021  0.3364  0.6793  0.2420
  178DOPC   C3721830   3.245   5.803   4.127  0.6192 -0.9089  0.1156
  178DOPC   H7X21831   3.137   5.784   4.109  0.7667 -0.1815 -1.7669
  178DOPC   H7Y21832   3.292   5.706   4.099  1.7884 -0.7359  1.3480
  178DOPC   C3821833   3.276   5.836   4.281 -0.0944 -0.2954  0.0987
  178DOPC   H8X21834   3.194   5.907   4.308 -2.5251 -3.1003  0.6677
  178DOPC   H8Y21835   3.376   5.879   4.304  0.2804 -1.8937  1.6189
  178DOPC   C3921836   3.239   5.711   4.353  0.3221 -0.6296 -0.3852
  178DOPC   H9X21837   3.166   5.641   4.309 -0.5182 -0.1673  0.2203
  178DOPC  C31021838   3.258   5.704   4.483  0.3862  0.1968 -0.6443
  178DOPC  H10X21839   3.227   5.613   4.537  3.7607 -0.1754  0.9231
  178DOPC  C31121840   3.321   5.795   4.578  0.2397 -0.5109  0.4157
  178DOPC  H11X21841   3.253   5.876   4.614 -1.9494 -2.0458 -0.0413
  178DOPC  H11Y21842   3.407   5.833   4.519 -0.4307 -2.4482 -1.9888
  178DOPC  C31221843   3.374   5.718   4.703 -0.2760  0.1151 -0.3429
  178DOPC  H12X21844   3.434   5.788   4.765  1.7740 -1.5086 -0.3726
  178DOPC  H12Y21845   3.441   5.638   4.664  0.8756  1.3171 -0.9356
  178DOPC  C31321846   3.258   5.674   4.790  0.1089  0.1162  0.6174
  178DOPC  H13X21847   3.183   5.755   4.777 -0.0325 -0.1629 -0.3803
  178DOPC  H13Y21848   3.215   5.580   4.749  0.0667  0.8680 -1.1608
  178DOPC  C31421849   3.304   5.644   4.935 -0.6426 -0.5125  0.2887
  178DOPC  H14X21850   3.324   5.745   4.977  1.2486 -0.5766 -0.3647
  178DOPC  H14Y21851   3.229   5.588   4.994  1.8831 -2.4924  1.8420
  178DOPC  C31521852   3.439   5.561   4.939  0.6066  0.4542  0.2394
  178DOPC  H15X21853   3.518   5.608   4.876 -0.4102  0.9487 -0.7085
  178DOPC  H15Y21854   3.423   5.470   4.878 -0.1232  0.9538 -0.3374
  178DOPC  C31621855   3.502   5.529   5.074  0.7788 -0.3835 -0.0046
  178DOPC  H16X21856   3.601   5.484   5.054  2.3567  1.9143  2.0832
  178DOPC  H16Y21857   3.529   5.623   5.127  1.3652 -0.2529 -0.5344
  178DOPC  C31721858   3.431   5.418   5.144  0.5165 -0.0668  0.0899
  178DOPC  H17X21859   3.321   5.426   5.157  0.7010  0.1808  1.6998
  178DOPC  H17Y21860   3.451   5.336   5.072  1.7325  0.4665 -0.1980
  178DOPC  C31821861   3.482   5.394   5.289 -0.3885 -0.7165 -0.0888
  178DOPC  H18X21862   3.450   5.491   5.335 -0.4534 -1.5647  1.7425
  178DOPC  H18Y21863   3.443   5.304   5.340 -0.9991 -3.0980 -4.3310
  178DOPC  H18Z21864   3.592   5.405   5.300 -0.5710 -0.3512  1.6856
  179DOPC     N21865   7.222   4.919   3.022  0.4650 -0.2207  0.2845
  179DOPC   C1221866   7.312   4.949   3.149  0.1408  0.1667  0.5578
  179DOPC  H12A21867   7.398   5.002   3.110  0.2237  0.8874  1.6795
  179DOPC  H12B21868   7.342   4.855   3.193  2.0240  0.3538 -0.1968
  179DOPC   C1321869   7.289   4.837   2.921 -0.3580  0.6601  0.1884
  179DOPC  H13A21870   7.307   4.740   2.964 -1.0697 -0.4907 -1.9677
  179DOPC  H13B21871   7.222   4.820   2.839  0.7000  1.2704 -0.8320
  179DOPC  H13C21872   7.384   4.880   2.890 -0.7246  0.9472 -0.5612
  179DOPC   C1421873   7.180   5.050   2.958 -0.4988  0.4016 -0.5132
  179DOPC  H14A21874   7.265   5.097   2.910 -1.5098  2.1624 -0.6609
  179DOPC  H14B21875   7.102   5.035   2.885 -1.0612 -1.4937  0.4165
  179DOPC  H14C21876   7.136   5.107   3.038  0.0318 -0.9589  0.8140
  179DOPC   C1521877   7.109   4.835   3.061  0.8205  0.6636 -0.1856
  179DOPC  H15A21878   7.034   4.893   3.114  1.0217  0.2240  0.5869
  179DOPC  H15B21879   7.144   4.763   3.133  0.8709  2.7876  2.0780
  179DOPC  H15C21880   7.062   4.793   2.973 -1.1284  2.1680  0.0462
  179DOPC   C1121881   7.246   5.032   3.264 -0.3078 -0.6565  0.3726
  179DOPC  H11A21882   7.153   4.980   3.295 -1.2420 -1.1899 -2.8897
  179DOPC  H11B21883   7.312   5.018   3.352 -0.1656 -0.5960  0.2742
  179DOPC     P21884   7.333   5.275   3.238  0.0045 -0.1277  0.3343
  179DOPC   O1321885   7.285   5.407   3.188  0.0939  0.4770 -0.7464
  179DOPC   O1421886   7.449   5.216   3.176 -0.0195 -0.2480 -0.2805
  179DOPC   O1221887   7.214   5.169   3.237 -0.5996 -0.3632  0.0548
  179DOPC   O1121888   7.365   5.298   3.387 -0.2270 -0.3090  0.1948
  179DOPC    C121889   7.266   5.361   3.480 -0.4505 -0.0416  0.5002
  179DOPC    HA21890   7.161   5.331   3.460 -0.6080  0.7127  0.1872
  179DOPC    HB21891   7.280   5.470   3.468  2.8441 -0.3097  0.8352
  179DOPC    C221892   7.304   5.322   3.633  0.6221 -0.1517  0.3396
  179DOPC    HS21893   7.232   5.379   3.695  1.1040  2.0953 -1.0637
  179DOPC   O2121894   7.434   5.368   3.655 -0.4002  0.2693 -0.0792
  179DOPC   C2121895   7.462   5.398   3.780  0.1242 -0.0125 -0.1633
  179DOPC   O2221896   7.382   5.406   3.870  0.0959 -0.0735 -0.0871
  179DOPC   C2221897   7.607   5.404   3.797 -0.3944 -0.0106  0.0362
  179DOPC   H2R21898   7.662   5.371   3.706 -1.0946  1.3701 -0.9171
  179DOPC   H2S21899   7.626   5.322   3.870 -3.3615 -1.1559 -0.3474
  179DOPC    C321900   7.298   5.172   3.645  0.6564  0.2170  0.1221
  179DOPC    HX21901   7.369   5.128   3.572  0.6175 -1.6210  1.1270
  179DOPC    HY21902   7.195   5.142   3.615  0.2181  1.5875  0.2184
  179DOPC   O3121903   7.325   5.119   3.781 -0.9411 -0.2202 -0.2349
  179DOPC   C3121904   7.228   5.147   3.865  0.0761 -0.8851  0.4338
  179DOPC   O3221905   7.125   5.209   3.834 -0.3446 -0.2377  0.6936
  179DOPC   C3221906   7.275   5.113   4.005  0.9607 -0.4990 -0.4623
  179DOPC   H2X21907   7.332   5.018   4.001 -0.1830 -1.1725 -1.2234
  179DOPC   H2Y21908   7.343   5.194   4.041  0.4392  0.3206 -1.2779
  179DOPC   C2321909   7.650   5.538   3.850 -0.3440  0.2090  0.0772
  179DOPC   H3R21910   7.576   5.620   3.842 -1.9853 -1.3049 -1.0314
  179DOPC   H3S21911   7.737   5.572   3.790 -1.3570  0.0873 -1.5247
  179DOPC   C2421912   7.678   5.527   3.998  0.2462 -0.9704  0.1935
  179DOPC   H4R21913   7.763   5.458   4.015  1.3428 -0.5159 -2.8371
  179DOPC   H4S21914   7.590   5.477   4.044  0.7951 -1.4416  0.7429
  179DOPC   C2521915   7.702   5.667   4.053 -0.1930  0.1786  0.4275
  179DOPC   H5R21916   7.607   5.722   4.033 -1.3478 -1.3929  1.3632
  179DOPC   H5S21917   7.790   5.703   3.995 -2.5894  0.9586 -3.0529
  179DOPC   C2621918   7.735   5.664   4.202  0.2711  0.0167 -0.1481
  179DOPC   H6R21919   7.834   5.617   4.220 -0.1080 -1.1405 -0.9842
  179DOPC   H6S21920   7.652   5.616   4.257  1.2618  0.0519  1.4188
  179DOPC   C2721921   7.738   5.807   4.257 -0.5505 -0.5739 -0.6201
  179DOPC   H7R21922   7.644   5.864   4.243 -0.8021 -1.0091 -0.7375
  179DOPC   H7S21923   7.825   5.857   4.209 -0.9523  1.7211  0.8934
  179DOPC   C2821924   7.777   5.802   4.405  0.0447 -0.0331 -1.1527
  179DOPC   H8R21925   7.818   5.902   4.429 -0.9797  0.0876  0.2578
  179DOPC   H8S21926   7.859   5.729   4.421 -0.3279  0.0213  1.4979
  179DOPC   C2921927   7.663   5.767   4.499  0.8218  0.9480  0.0937
  179DOPC   H9R21928   7.571   5.726   4.456  1.6167  0.1415 -0.8966
  179DOPC  C21021929   7.664   5.777   4.635  0.3259  0.4386  0.3341
  179DOPC  H10R21930   7.569   5.750   4.684  0.9055 -0.6378  0.8950
  179DOPC  C21121931   7.769   5.827   4.728 -0.9329 -0.2807  0.0419
  179DOPC  H11R21932   7.864   5.800   4.677 -1.2824  0.1940 -0.8899
  179DOPC  H11S21933   7.758   5.778   4.826 -2.1079 -3.3160 -1.4830
  179DOPC  C21221934   7.756   5.982   4.731 -0.5372 -0.1175 -0.8846
  179DOPC  H12R21935   7.721   6.013   4.631 -2.4723 -0.2566 -0.2951
  179DOPC  H12S21936   7.851   6.028   4.765 -1.8305  2.5218 -0.6270
  179DOPC  C21321937   7.650   6.034   4.836  0.0013 -0.3552  0.5012
  179DOPC  H13R21938   7.670   5.997   4.939  0.7121 -0.3224  0.3786
  179DOPC  H13S21939   7.553   5.983   4.817 -1.7311  2.4527  1.2331
  179DOPC  C21421940   7.632   6.185   4.829  0.8116  0.7461  0.2845
  179DOPC  H14R21941   7.525   6.203   4.851  0.2524 -0.8811 -0.9779
  179DOPC  H14S21942   7.643   6.206   4.720  0.8328 -2.0184 -0.3123
  179DOPC  C21521943   7.735   6.263   4.908  0.7260  0.0117  0.7184
  179DOPC  H15R21944   7.834   6.240   4.862 -0.0708 -1.6954 -0.2567
  179DOPC  H15S21945   7.726   6.219   5.010 -1.5903 -1.2063  0.0554
  179DOPC  C21621946   7.712   6.408   4.912 -0.1980  0.9825 -0.5945
  179DOPC  H16R21947   7.706   6.448   4.809  1.5047  0.0731 -1.0998
  179DOPC  H16S21948   7.800   6.459   4.957 -0.5389  2.1241 -1.1996
  179DOPC  C21721949   7.581   6.448   4.984  0.2496  0.4603 -0.4724
  179DOPC  H17R21950   7.576   6.403   5.086 -3.6113  2.6220  0.4933
  179DOPC  H17S21951   7.495   6.408   4.928  1.4532  1.0021 -2.8149
  179DOPC  C21821952   7.553   6.598   4.987  0.3291  0.7652 -0.7332
  179DOPC  H18R21953   7.632   6.644   5.050  0.0844 -1.3013  1.1798
  179DOPC  H18S21954   7.466   6.623   5.051  0.0911  0.5958 -0.9878
  179DOPC  H18T21955   7.547   6.644   4.885 -1.1534  1.0730 -0.5273
  179DOPC   C3321956   7.148   5.097   4.097 -0.2048 -1.0848  0.7537
  179DOPC   H3X21957   7.092   5.005   4.071  0.8960 -1.5504 -0.0202
  179DOPC   H3Y21958   7.079   5.183   4.083  0.2641 -0.9578 -1.0032
  179DOPC   C3421959   7.179   5.088   4.250 -0.3489 -0.1431  0.5875
  179DOPC   H4X21960   7.269   5.148   4.271  0.4099  0.0973 -2.8037
  179DOPC   H4Y21961   7.208   4.981   4.248 -1.2972 -0.4064  0.4306
  179DOPC   C3521962   7.061   5.122   4.335 -0.4112 -0.2264  0.2200
  179DOPC   H5X21963   6.976   5.079   4.276  1.9522 -1.0194 -2.8890
  179DOPC   H5Y21964   7.056   5.233   4.336 -0.3217 -0.2226  0.2318
  179DOPC   C3621965   7.062   5.081   4.477  0.1250  0.0972 -0.0541
  179DOPC   H6X21966   7.097   4.976   4.488  1.3636  0.5623  0.7552
  179DOPC   H6Y21967   7.134   5.144   4.534  0.9400 -0.6200 -0.2518
  179DOPC   C3721968   6.925   5.089   4.539  0.8032 -0.1258 -0.5317
  179DOPC   H7X21969   6.888   5.193   4.556 -0.4425 -0.8214  1.2018
  179DOPC   H7Y21970   6.849   5.045   4.471  0.0419  0.4185 -0.0545
  179DOPC   C3821971   6.921   5.010   4.677 -0.0395 -0.4166  0.3487
  179DOPC   H8X21972   6.976   5.081   4.743 -0.5668 -1.2147  1.6739
  179DOPC   H8Y21973   6.982   4.918   4.683  0.5639 -0.0584 -0.1546
  179DOPC   C3921974   6.782   4.982   4.716 -0.1156  0.2923  0.4248
  179DOPC   H9X21975   6.731   4.902   4.660  2.3869 -0.5669 -0.7724
  179DOPC  C31021976   6.726   5.033   4.826 -0.0386 -0.7237 -0.7314
  179DOPC  H10X21977   6.622   5.009   4.854 -0.7562  1.4981 -1.2044
  179DOPC  C31121978   6.792   5.126   4.930 -0.6876  0.3032 -0.0405
  179DOPC  H11X21979   6.842   5.212   4.881  0.0954 -0.6963 -1.0359
  179DOPC  H11Y21980   6.863   5.061   4.984 -1.3048  1.3845  2.1772
  179DOPC  C31221981   6.690   5.171   5.035 -0.3041 -0.4018  0.4455
  179DOPC  H12X21982   6.766   5.202   5.110  0.5496  0.0455 -0.5648
  179DOPC  H12Y21983   6.627   5.090   5.075 -0.1525 -1.4107 -1.2465
  179DOPC  C31321984   6.598   5.289   4.980  0.0061 -0.1833  0.7849
  179DOPC  H13X21985   6.656   5.376   4.943 -0.7317 -0.2688 -0.6533
  179DOPC  H13Y21986   6.533   5.262   4.894  0.0599  2.4760 -0.1843
  179DOPC  C31421987   6.512   5.356   5.098 -0.4099  0.0543  0.3143
  179DOPC  H14X21988   6.580   5.403   5.172 -0.9535  1.8840 -0.3128
  179DOPC  H14Y21989   6.447   5.431   5.048 -0.2697  0.5125  0.8055
  179DOPC  C31521990   6.432   5.248   5.167  0.3192 -0.2683 -0.0750
  179DOPC  H15X21991   6.508   5.175   5.204 -0.7356 -0.6836  1.3416
  179DOPC  H15Y21992   6.371   5.206   5.084  1.3087 -1.0712 -0.4294
  179DOPC  C31621993   6.345   5.301   5.276 -0.2711  0.1960  0.0501
  179DOPC  H16X21994   6.289   5.380   5.222  2.3049  1.2112 -1.3023
  179DOPC  H16Y21995   6.277   5.218   5.307 -0.0574 -0.9749 -2.3536
  179DOPC  C31721996   6.419   5.352   5.392  0.0566 -0.3487 -0.2578
  179DOPC  H17X21997   6.489   5.433   5.363  1.1786 -1.5788 -1.1022
  179DOPC  H17Y21998   6.349   5.384   5.472 -1.4071 -2.7148 -0.4628
  179DOPC  C31821999   6.503   5.239   5.459 -0.6959 -0.6133  0.2528
  179DOPC  H18X22000   6.587   5.227   5.388  0.4533  0.2657  1.4041
  179DOPC  H18Y22001   6.537   5.264   5.562  1.4122 -0.8747 -0.3338
  179DOPC  H18Z22002   6.443   5.147   5.471  0.0856 -1.1848 -0.1325
  180DOPC     N22003   7.239   1.838   2.924  0.4861 -0.0702  0.7511
  180DOPC   C1222004   7.092   1.787   2.927  0.9676  0.2698  0.2871
  180DOPC  H12A22005   7.082   1.708   2.853 -0.3130  1.8375 -1.3111
  180DOPC  H12B22006   7.038   1.878   2.904  1.4502  0.7109  0.8780
  180DOPC   C1322007   7.325   1.734   3.001  0.4756  0.4032 -0.6487
  180DOPC  H13A22008   7.332   1.647   2.937  1.1827 -1.5998  2.0046
  180DOPC  H13B22009   7.428   1.766   3.011 -0.5461  3.4720  1.3687
  180DOPC  H13C22010   7.284   1.714   3.098  0.4984  2.1343 -0.2553
  180DOPC   C1422011   7.236   1.975   2.991 -0.3556 -0.3274  0.2032
  180DOPC  H14A22012   7.173   2.046   2.939 -0.1649 -0.2103  0.1321
  180DOPC  H14B22013   7.197   1.960   3.090 -1.5610 -0.8113 -0.3153
  180DOPC  H14C22014   7.331   2.023   2.972 -1.3885  1.5294 -0.5660
  180DOPC   C1522015   7.281   1.852   2.785 -0.6316  0.0728  0.1570
  180DOPC  H15A22016   7.385   1.870   2.766 -0.3893 -2.2135 -1.0762
  180DOPC  H15B22017   7.224   1.930   2.738  0.1669  0.2936 -0.4635
  180DOPC  H15C22018   7.243   1.768   2.728 -0.1449 -1.1115  1.5044
  180DOPC   C1122019   7.030   1.747   3.058 -0.1339  0.1247 -0.4682
  180DOPC  H11A22020   6.924   1.724   3.034  0.6007 -0.4715 -3.5929
  180DOPC  H11B22021   7.067   1.648   3.091 -0.7960 -0.8245 -2.4066
  180DOPC     P22022   7.080   1.847   3.298 -0.4426  0.3826 -0.0932
  180DOPC   O1322023   7.144   1.977   3.313 -0.0979  0.2435 -0.5872
  180DOPC   O1422024   7.161   1.729   3.317 -0.6948  0.2528 -0.8236
  180DOPC   O1222025   7.030   1.852   3.153 -0.8778  0.4753  0.1866
  180DOPC   O1122026   6.948   1.832   3.390 -0.1621  0.7641  0.4133
  180DOPC    C122027   6.912   1.951   3.465 -0.3281 -0.0586  0.7063
  180DOPC    HA22028   6.803   1.943   3.487 -0.6033  1.2662 -0.1052
  180DOPC    HB22029   6.924   2.045   3.409  0.7301  0.2338  1.3869
  180DOPC    C222030   6.989   1.977   3.591 -0.0048  0.4785  0.0528
  180DOPC    HS22031   7.098   1.968   3.570 -0.4288 -0.7874 -1.8520
  180DOPC   O2122032   6.954   1.864   3.684  0.2800  0.0285  0.3998
  180DOPC   C2122033   7.027   1.864   3.789 -0.4426  0.0872  0.1329
  180DOPC   O2222034   7.134   1.922   3.800 -0.4991  0.4483 -0.3842
  180DOPC   C2222035   6.970   1.769   3.904  0.0550  0.0621  0.1954
  180DOPC   H2R22036   6.970   1.670   3.854  2.0101  0.1169  0.0129
  180DOPC   H2S22037   6.868   1.804   3.928  0.0825  0.1394  0.1998
  180DOPC    C322038   6.965   2.121   3.652 -0.2791 -0.3629  0.6764
  180DOPC    HX22039   7.026   2.189   3.589 -2.0062 -0.6018 -1.3568
  180DOPC    HY22040   7.015   2.123   3.752  2.1205  1.2011 -0.4631
  180DOPC   O3122041   6.825   2.166   3.655 -0.2043  0.6188  0.5841
  180DOPC   C3122042   6.762   2.141   3.772  0.0311  0.3672  0.0642
  180DOPC   O3222043   6.812   2.068   3.858 -0.0768 -0.5805  0.2409
  180DOPC   C3222044   6.623   2.195   3.765 -0.0510  0.0059 -0.0364
  180DOPC   H2X22045   6.617   2.300   3.800 -0.2674  0.0316 -0.1472
  180DOPC   H2Y22046   6.582   2.175   3.663  1.0510  0.8017 -0.6551
  180DOPC   C2322047   7.044   1.771   4.037 -0.5055  0.1476  0.1276
  180DOPC   H3R22048   7.154   1.762   4.022 -0.7588  0.2233 -2.1470
  180DOPC   H3S22049   7.014   1.684   4.100 -0.4521  1.3477  1.8695
  180DOPC   C2422050   7.018   1.894   4.128 -0.1048 -0.4053 -0.5783
  180DOPC   H4R22051   6.911   1.892   4.157  0.6156  0.5331  2.4186
  180DOPC   H4S22052   7.063   1.987   4.087  0.3792 -1.3584 -2.3306
  180DOPC   C2522053   7.091   1.865   4.261 -0.5001 -1.1191 -0.4125
  180DOPC   H5R22054   7.200   1.861   4.241 -0.6192  1.6342 -2.1130
  180DOPC   H5S22055   7.061   1.771   4.313 -0.5874 -1.1730 -0.5590
  180DOPC   C2622056   7.070   1.988   4.356 -0.3942  0.5164 -0.3369
  180DOPC   H6R22057   6.962   2.016   4.351 -0.1054  1.4936 -2.1809
  180DOPC   H6S22058   7.131   2.067   4.307  0.5535  1.4166  2.1439
  180DOPC   C2722059   7.119   1.973   4.504  0.1703 -0.0967 -0.0870
  180DOPC   H7R22060   7.117   2.070   4.559  1.2809  0.4376 -0.9404
  180DOPC   H7S22061   7.224   1.938   4.500 -0.0006 -0.7091  0.6242
  180DOPC   C2822062   7.036   1.875   4.584  0.0752  0.1512 -0.3255
  180DOPC   H8R22063   7.026   1.788   4.516  1.9794  1.0796 -1.9019
  180DOPC   H8S22064   6.940   1.927   4.605  0.7203  1.1701  0.1777
  180DOPC   C2922065   7.100   1.832   4.721  0.4652 -0.2456  0.1674
  180DOPC   H9R22066   7.107   1.918   4.789 -0.5087  0.6514 -0.8231
  180DOPC  C21022067   7.142   1.711   4.766  0.0302  0.4414 -0.2512
  180DOPC  H10R22068   7.175   1.704   4.870  0.5664 -0.4528 -0.4725
  180DOPC  C21122069   7.129   1.583   4.690  0.1676 -0.2323  0.2783
  180DOPC  H11R22070   7.061   1.591   4.603 -0.6524 -3.0913  0.5555
  180DOPC  H11S22071   7.082   1.503   4.752 -1.0590  0.1787 -0.1094
  180DOPC  C21222072   7.271   1.538   4.642  0.6604 -0.2665 -0.4216
  180DOPC  H12R22073   7.262   1.436   4.601 -1.2886  0.4270 -1.8724
  180DOPC  H12S22074   7.333   1.544   4.735 -1.1512  1.2691  0.7604
  180DOPC  C21322075   7.338   1.633   4.537 -0.3660 -0.7674 -0.0425
  180DOPC  H13R22076   7.370   1.722   4.596  2.5716 -1.1893 -0.8738
  180DOPC  H13S22077   7.261   1.662   4.463 -1.2476 -0.8161  0.8339
  180DOPC  C21422078   7.456   1.571   4.472  0.2053  0.0806 -0.4968
  180DOPC  H14R22079   7.411   1.492   4.407  1.6211 -1.2846  0.0977
  180DOPC  H14S22080   7.518   1.527   4.553  1.5345  0.2970 -1.3787
  180DOPC  C21522081   7.557   1.662   4.412 -0.3666  0.0336  0.3274
  180DOPC  H15R22082   7.638   1.609   4.357 -0.4090 -0.3714  0.6461
  180DOPC  H15S22083   7.592   1.726   4.496 -0.8646 -0.2821  0.7840
  180DOPC  C21622084   7.481   1.745   4.308  1.2668  0.5766  0.5393
  180DOPC  H16R22085   7.415   1.817   4.361 -2.1367 -0.9417 -1.2801
  180DOPC  H16S22086   7.427   1.674   4.241  1.1776  0.2866  0.9180
  180DOPC  C21722087   7.583   1.817   4.222  0.2551  0.0765 -0.0772
  180DOPC  H17R22088   7.654   1.740   4.187  0.2077  0.6801 -1.5842
  180DOPC  H17S22089   7.635   1.883   4.295 -1.0417  1.1251 -0.0622
  180DOPC  C21822090   7.513   1.880   4.104 -0.1624 -0.4831 -0.5424
  180DOPC  H18R22091   7.481   1.980   4.139 -0.0776 -0.5760 -0.2032
  180DOPC  H18S22092   7.427   1.833   4.051 -0.9681  1.8030 -1.3972
  180DOPC  H18T22093   7.590   1.889   4.024 -0.1617  0.8856 -0.4131
  180DOPC   C3322094   6.525   2.123   3.861  0.6111 -0.1875 -0.1887
  180DOPC   H3X22095   6.557   2.119   3.967 -0.8212 -0.7311  0.2479
  180DOPC   H3Y22096   6.523   2.015   3.835 -0.3723 -0.7180  1.9236
  180DOPC   C3422097   6.387   2.187   3.850  0.3643  0.2142  0.1945
  180DOPC   H4X22098   6.312   2.117   3.892 -1.5874  2.2311  0.2462
  180DOPC   H4Y22099   6.355   2.230   3.753 -3.0541 -1.3840  0.4704
  180DOPC   C3522100   6.372   2.299   3.955  0.1559  0.3748 -0.2184
  180DOPC   H5X22101   6.266   2.331   3.946  0.3873  0.8874 -1.1806
  180DOPC   H5Y22102   6.441   2.386   3.950 -0.8429  1.5339  3.1711
  180DOPC   C3622103   6.381   2.252   4.098  0.6939 -0.1123  0.1216
  180DOPC   H6X22104   6.325   2.160   4.122 -1.0758  1.0256  0.5126
  180DOPC   H6Y22105   6.490   2.245   4.122  0.6428  3.1009  1.7732
  180DOPC   C3722106   6.329   2.358   4.200 -0.1999  0.2397  0.0861
  180DOPC   H7X22107   6.393   2.443   4.169 -0.7431  0.1538 -1.3682
  180DOPC   H7Y22108   6.223   2.381   4.177 -0.4058  0.0568  0.8279
  180DOPC   C3822109   6.320   2.314   4.352 -0.3947 -0.0778  0.2417
  180DOPC   H8X22110   6.250   2.227   4.360 -0.4598 -0.0054  0.4559
  180DOPC   H8Y22111   6.278   2.397   4.412  2.3285  0.3867  1.6235
  180DOPC   C3922112   6.458   2.271   4.408  0.0012  0.1141  0.4688
  180DOPC   H9X22113   6.520   2.192   4.362  0.0653  0.3461  0.1523
  180DOPC  C31022114   6.514   2.341   4.507  0.3639  0.1542  0.0962
  180DOPC  H10X22115   6.613   2.307   4.538  1.5960  2.8532 -0.6233
  180DOPC  C31122116   6.461   2.464   4.581 -0.3378  0.5325  0.0106
  180DOPC  H11X22117   6.413   2.525   4.502  0.2894  0.0106 -0.7961
  180DOPC  H11Y22118   6.548   2.515   4.627  1.0538 -2.7845  1.4029
  180DOPC  C31222119   6.353   2.440   4.692  0.3388  0.1409 -0.0921
  180DOPC  H12X22120   6.395   2.389   4.782 -1.1368  0.1091  0.6177
  180DOPC  H12Y22121   6.279   2.370   4.648  1.1256 -2.2820  2.1214
  180DOPC  C31322122   6.268   2.565   4.736  0.0196 -0.0429 -0.1455
  180DOPC  H13X22123   6.344   2.631   4.783  2.0593 -0.0379 -3.1715
  180DOPC  H13Y22124   6.252   2.634   4.650  2.2991  0.6255 -0.1082
  180DOPC  C31422125   6.145   2.546   4.818 -0.4654  0.1784 -0.6949
  180DOPC  H14X22126   6.083   2.636   4.832 -2.6777 -1.0464 -1.9508
  180DOPC  H14Y22127   6.077   2.472   4.770 -0.7677  0.0802 -0.1243
  180DOPC  C31522128   6.181   2.485   4.955 -0.7841  0.0326  0.7772
  180DOPC  H15X22129   6.268   2.539   4.998 -1.1726 -0.6333  2.4868
  180DOPC  H15Y22130   6.198   2.375   4.947  2.7326  0.5899 -1.9785
  180DOPC  C31622131   6.061   2.492   5.050 -0.9237  0.3493 -0.2360
  180DOPC  H16X22132   6.053   2.596   5.088  0.7132  1.3134 -2.2868
  180DOPC  H16Y22133   5.966   2.470   4.996 -1.5276 -1.7321  1.5413
  180DOPC  C31722134   6.078   2.390   5.163  0.1123  0.1994 -0.5472
  180DOPC  H17X22135   6.081   2.289   5.117  0.9664  0.9832 -2.3321
  180DOPC  H17Y22136   6.180   2.400   5.208 -0.6160  1.1096  0.9666
  180DOPC  C31822137   5.968   2.403   5.268  0.0593  0.5155 -0.0895
  180DOPC  H18X22138   5.931   2.507   5.274  1.0390  0.8227  1.2010
  180DOPC  H18Y22139   5.894   2.323   5.244  1.2558 -0.4940 -0.5779
  180DOPC  H18Z22140   5.991   2.374   5.373  0.6879  3.6269  0.7262
  181DOPC     N22141   3.724   3.546   2.673  0.7022 -0.0141  0.6519
  181DOPC   C1222142   3.714   3.492   2.820 -0.4998 -0.2001 -0.2730
  181DOPC  H12A22143   3.635   3.419   2.828  1.2405 -2.3096 -1.4410
  181DOPC  H12B22144   3.693   3.579   2.881 -4.2097 -0.6415 -0.6907
  181DOPC   C1322145   3.843   3.624   2.646 -0.0089  0.8041 -0.1822
  181DOPC  H13A22146   3.846   3.677   2.552 -0.8905 -0.3054 -0.8612
  181DOPC  H13B22147   3.850   3.705   2.718 -2.1903 -1.4847  2.8799
  181DOPC  H13C22148   3.922   3.554   2.666 -0.4656 -0.0982 -1.4380
  181DOPC   C1422149   3.606   3.640   2.651  0.2909 -0.2575  0.0292
  181DOPC  H14A22150   3.510   3.591   2.649  0.1958 -0.0624 -0.2396
  181DOPC  H14B22151   3.593   3.718   2.724 -2.2170 -0.3490 -0.2378
  181DOPC  H14C22152   3.622   3.690   2.557  3.5448 -1.4875 -0.2027
  181DOPC   C1522153   3.720   3.437   2.580 -0.4731 -0.3226  0.2154
  181DOPC  H15A22154   3.802   3.367   2.592  0.6693  0.6038 -1.5407
  181DOPC  H15B22155   3.724   3.471   2.477  0.3681 -1.8938 -0.3080
  181DOPC  H15C22156   3.630   3.379   2.582 -0.7623  0.1021 -0.1409
  181DOPC   C1122157   3.834   3.404   2.879  0.7984  0.2607 -0.2627
  181DOPC  H11A22158   3.931   3.456   2.894  1.4003 -0.8315 -0.2499
  181DOPC  H11B22159   3.807   3.376   2.983  2.1234 -2.8799 -0.6610
  181DOPC     P22160   3.766   3.172   2.802  0.0029  0.2731 -0.0895
  181DOPC   O1322161   3.782   3.096   2.676  0.0612  0.2902 -0.2321
  181DOPC   O1422162   3.625   3.214   2.832  0.0629  0.0716 -0.0396
  181DOPC   O1222163   3.860   3.292   2.799 -0.8023  0.0867 -0.2608
  181DOPC   O1122164   3.820   3.093   2.923  0.1517 -0.5239 -0.7332
  181DOPC    C122165   3.949   3.025   2.912 -0.0684 -0.3604 -0.7114
  181DOPC    HA22166   4.035   3.087   2.879  1.4683 -1.2775  1.3612
  181DOPC    HB22167   3.951   2.935   2.846 -1.2014 -2.2362  1.6746
  181DOPC    C222168   3.998   2.984   3.051  0.3074  0.1649 -0.7332
  181DOPC    HS22169   4.105   2.954   3.039  0.8473  1.8204 -0.3886
  181DOPC   O2122170   3.906   2.894   3.113 -0.2094  0.0415 -0.5757
  181DOPC   C2122171   3.921   2.766   3.085 -0.0996  0.8163 -1.0619
  181DOPC   O2222172   3.985   2.718   2.997  0.0896  0.3481  0.4637
  181DOPC   C2222173   3.827   2.689   3.183  0.0068 -0.3137 -0.4705
  181DOPC   H2R22174   3.720   2.701   3.157  0.1524  1.1219 -0.4904
  181DOPC   H2S22175   3.834   2.753   3.274  1.5924 -1.4221  0.2205
  181DOPC    C322176   4.007   3.126   3.122  0.3208  0.8015 -0.2435
  181DOPC    HX22177   3.903   3.166   3.116 -0.4530 -0.9631  0.4118
  181DOPC    HY22178   4.078   3.194   3.072  1.3236  0.2384  0.3852
  181DOPC   O3122179   4.051   3.106   3.261 -0.0591  0.4207 -0.3173
  181DOPC   C3122180   3.977   3.148   3.360 -0.2470  0.5330  0.3866
  181DOPC   O3222181   3.868   3.208   3.351  0.2947  0.0216  0.5718
  181DOPC   C3222182   4.037   3.092   3.482 -0.3419 -0.2838 -1.0461
  181DOPC   H2X22183   4.010   2.985   3.499  0.4858 -0.7263 -2.3944
  181DOPC   H2Y22184   4.147   3.106   3.481 -0.3030 -0.0696  0.9219
  181DOPC   C2322185   3.868   2.543   3.205  0.3999  0.0446 -0.4814
  181DOPC   H3R22186   3.979   2.545   3.204  0.3914  1.1794 -1.0880
  181DOPC   H3S22187   3.839   2.489   3.113 -1.2477  1.9501 -1.1603
  181DOPC   C2422188   3.814   2.478   3.331  0.6541 -0.6302 -1.0463
  181DOPC   H4R22189   3.827   2.544   3.420  0.0395 -2.1181  0.1867
  181DOPC   H4S22190   3.871   2.386   3.357  1.0177 -0.6170 -1.7849
  181DOPC   C2522191   3.661   2.451   3.334  0.5346  0.2117 -0.1912
  181DOPC   H5R22192   3.625   2.404   3.240  0.3722 -2.1678  0.9662
  181DOPC   H5S22193   3.591   2.537   3.337 -1.3455 -1.2413 -0.6568
  181DOPC   C2622194   3.610   2.357   3.452  0.8171 -0.1690 -0.2937
  181DOPC   H6R22195   3.629   2.250   3.430  2.2429  0.1806 -0.9272
  181DOPC   H6S22196   3.500   2.368   3.464  1.0971  2.6181  0.6286
  181DOPC   C2722197   3.668   2.396   3.589  0.6506  0.5565 -0.5023
  181DOPC   H7R22198   3.700   2.502   3.606  2.5342  0.1215 -1.0569
  181DOPC   H7S22199   3.758   2.340   3.622 -0.8256 -2.1490 -0.8536
  181DOPC   C2822200   3.559   2.370   3.700 -0.0152  0.1100 -0.2921
  181DOPC   H8R22201   3.616   2.378   3.796  0.1881 -2.9540 -0.0650
  181DOPC   H8S22202   3.535   2.263   3.686  0.3135  0.0602 -0.4714
  181DOPC   C2922203   3.434   2.445   3.704 -0.5671 -0.3497  0.1791
  181DOPC   H9R22204   3.380   2.447   3.608  1.8494 -2.0543 -1.3374
  181DOPC  C21022205   3.393   2.504   3.814 -0.0596 -0.4848 -0.4126
  181DOPC  H10R22206   3.296   2.553   3.806  0.6284  0.8257 -0.9450
  181DOPC  C21122207   3.459   2.495   3.948  0.2728 -0.2615 -0.2222
  181DOPC  H11R22208   3.542   2.565   3.968  1.9334 -2.9500  3.4986
  181DOPC  H11S22209   3.492   2.390   3.960  0.2890 -0.0586  1.7287
  181DOPC  C21222210   3.347   2.503   4.063  0.1966  0.0677  1.2503
  181DOPC  H12R22211   3.297   2.404   4.064  0.5970 -0.1485  3.0359
  181DOPC  H12S22212   3.277   2.589   4.053 -0.2550 -0.4010  0.1449
  181DOPC  C21322213   3.405   2.518   4.202  0.3453  0.3421 -0.4998
  181DOPC  H13R22214   3.331   2.544   4.280  0.0190 -0.8832 -0.3841
  181DOPC  H13S22215   3.477   2.602   4.192  0.7843  0.2970  1.6995
  181DOPC  C21422216   3.476   2.391   4.259  0.6479 -0.7762  0.6605
  181DOPC  H14R22217   3.536   2.348   4.176 -1.5476  0.9664 -2.0015
  181DOPC  H14S22218   3.406   2.308   4.282  0.7955 -0.8097  1.0026
  181DOPC  C21522219   3.552   2.413   4.391  0.4707  0.0135  0.0655
  181DOPC  H15R22220   3.483   2.469   4.457  0.2734  0.6502 -0.6690
  181DOPC  H15S22221   3.647   2.469   4.377  0.7874  1.0277  4.7322
  181DOPC  C21622222   3.578   2.283   4.465  0.3187  0.9451  0.1194
  181DOPC  H16R22223   3.650   2.226   4.403 -0.6034  1.0229 -1.0613
  181DOPC  H16S22224   3.480   2.231   4.474 -0.6124  2.6268  0.1618
  181DOPC  C21722225   3.649   2.296   4.599 -0.2670 -0.6994 -0.2796
  181DOPC  H17R22226   3.670   2.196   4.640 -0.8737 -1.4709 -1.7610
  181DOPC  H17S22227   3.563   2.334   4.659  0.1119 -1.2106  0.6044
  181DOPC  C21822228   3.768   2.394   4.602 -0.0036  0.6548 -0.2975
  181DOPC  H18R22229   3.742   2.501   4.582 -1.0962  0.6168  0.8063
  181DOPC  H18S22230   3.850   2.359   4.535  0.7117 -0.9727  1.3583
  181DOPC  H18T22231   3.821   2.408   4.699  0.2394 -0.6631 -0.2317
  181DOPC   C3322232   3.964   3.152   3.605 -0.7808 -1.2526 -0.2534
  181DOPC   H3X22233   3.853   3.154   3.599 -0.8795  3.0607 -0.5314
  181DOPC   H3Y22234   4.002   3.256   3.594 -0.8569 -1.2759 -0.7821
  181DOPC   C3422235   4.014   3.101   3.738 -0.0283 -0.7280  0.1482
  181DOPC   H4X22236   4.124   3.083   3.744  0.1777  0.4438  0.0810
  181DOPC   H4Y22237   3.965   3.005   3.763  0.1892 -1.2764 -1.4219
  181DOPC   C3522238   3.971   3.200   3.843 -1.1665  0.7929  0.2316
  181DOPC   H5X22239   3.861   3.188   3.844 -1.0783 -0.2136  1.7476
  181DOPC   H5Y22240   3.993   3.308   3.825 -0.5199  0.5055 -0.7671
  181DOPC   C3622241   4.024   3.156   3.977 -0.2646  0.8731  0.3159
  181DOPC   H6X22242   4.018   3.045   3.983  2.6729  0.4378 -2.2387
  181DOPC   H6Y22243   4.133   3.179   3.980  0.1446  0.4130 -4.3071
  181DOPC   C3722244   3.962   3.227   4.100  0.8958  0.1068  0.0919
  181DOPC   H7X22245   4.004   3.330   4.102  1.4932 -0.1296  2.0360
  181DOPC   H7Y22246   3.854   3.241   4.083  1.1704  1.4693 -0.6745
  181DOPC   C3822247   3.979   3.141   4.227  0.0014  0.1418  0.9143
  181DOPC   H8X22248   3.946   3.035   4.219 -0.2716  0.3621 -1.5004
  181DOPC   H8Y22249   3.906   3.182   4.300 -0.3183  0.2832  0.5182
  181DOPC   C3922250   4.117   3.151   4.274 -0.2238  0.2894  0.6848
  181DOPC   H9X22251   4.190   3.113   4.200  0.6298  1.1797  1.0462
  181DOPC  C31022252   4.160   3.207   4.386  0.2309 -0.7302 -0.0592
  181DOPC  H10X22253   4.270   3.205   4.395  0.3280 -0.8879 -1.1401
  181DOPC  C31122254   4.080   3.270   4.493 -0.6819 -0.7481 -0.0424
  181DOPC  H11X22255   3.988   3.318   4.456 -0.0809 -0.5402 -1.3202
  181DOPC  H11Y22256   4.141   3.357   4.526 -1.0848 -0.8629  1.0684
  181DOPC  C31222257   4.055   3.181   4.617 -0.0591  0.2793  0.6534
  181DOPC  H12X22258   4.006   3.082   4.608 -1.5274  1.0184  0.0803
  181DOPC  H12Y22259   3.993   3.242   4.687 -0.5942 -1.2731  1.5602
  181DOPC  C31322260   4.188   3.151   4.685  0.2358  0.0271 -0.4170
  181DOPC  H13X22261   4.242   3.077   4.622  0.9017  1.5194 -1.6445
  181DOPC  H13Y22262   4.256   3.238   4.697 -0.7085  0.6102  0.9922
  181DOPC  C31422263   4.170   3.082   4.821  0.4975  0.1895 -0.5177
  181DOPC  H14X22264   4.255   3.099   4.890 -2.0874  0.4695  2.8643
  181DOPC  H14Y22265   4.083   3.131   4.870  0.9503  1.3649 -0.8530
  181DOPC  C31522266   4.146   2.930   4.816 -0.8588 -0.4855 -0.6586
  181DOPC  H15X22267   4.051   2.922   4.758 -1.2979  3.7092 -0.8129
  181DOPC  H15Y22268   4.126   2.893   4.918 -1.3752  1.9042  0.1798
  181DOPC  C31622269   4.256   2.851   4.753  0.3060 -0.2619  0.1537
  181DOPC  H16X22270   4.284   2.871   4.647 -0.2193 -0.2596  0.0140
  181DOPC  H16Y22271   4.348   2.871   4.812 -0.2319  1.9283  0.3104
  181DOPC  C31722272   4.221   2.704   4.738 -0.2770  0.2102 -0.3987
  181DOPC  H17X22273   4.208   2.668   4.842  0.3721  2.7535  0.6562
  181DOPC  H17Y22274   4.125   2.698   4.682 -0.0283 -0.6671 -0.7441
  181DOPC  C31822275   4.331   2.628   4.657  0.2116 -0.6637  0.0601
  181DOPC  H18X22276   4.297   2.524   4.634  0.4409 -0.5587 -0.8171
  181DOPC  H18Y22277   4.337   2.684   4.561 -1.2751 -0.7458 -0.0997
  181DOPC  H18Z22278   4.432   2.619   4.701 -0.1684  0.1517  1.1304
  182DOPC     N22279   4.148   0.073   2.768 -0.1647  0.1415 -0.3480
  182DOPC   C1222280   4.000   0.084   2.764 -0.6600 -0.2509  0.3992
  182DOPC  H12A22281   3.967   0.053   2.666  0.3454  1.2618 -0.4632
  182DOPC  H12B22282   3.976   0.189   2.764  0.5767  0.0382  0.2957
  182DOPC   C1322283   4.194  -0.060   2.718  0.0176  0.7747  0.5183
  182DOPC  H13A22284   4.143  -0.083   2.626  0.4254 -0.8968  0.6878
  182DOPC  H13B22285   4.299  -0.056   2.693  0.6019  2.0021  2.8465
  182DOPC  H13C22286   4.174  -0.143   2.784  0.9799 -0.7507 -1.0073
  182DOPC   C1422287   4.188   0.085   2.913  0.1514  0.2143  0.5286
  182DOPC  H14A22288   4.177   0.185   2.952  1.0021  1.0320 -1.2329
  182DOPC  H14B22289   4.125   0.015   2.966  0.7646  0.0817  1.0997
  182DOPC  H14C22290   4.292   0.060   2.902  0.5891  2.5343 -1.4111
  182DOPC   C1522291   4.210   0.185   2.686  0.3111 -0.2906  0.2067
  182DOPC  H15A22292   4.188   0.186   2.581  0.0036  1.0555  0.2609
  182DOPC  H15B22293   4.318   0.177   2.688  0.4635  0.9353 -1.1832
  182DOPC  H15C22294   4.183   0.282   2.725 -0.6362 -0.0929 -0.9028
  182DOPC   C1122295   3.913   0.008   2.857  0.3350 -0.2482  0.0414
  182DOPC  H11A22296   3.932   0.034   2.963  0.4809 -1.4515  0.3178
  182DOPC  H11B22297   3.807   0.036   2.838  0.3069  0.9375  1.7318
  182DOPC     P22298   3.861  -0.228   2.746  0.1619 -0.4401 -0.1144
  182DOPC   O1322299   3.933  -0.347   2.712 -0.0994 -0.0543 -0.2098
  182DOPC   O1422300   3.806  -0.142   2.636  0.0984  0.1618  0.3517
  182DOPC   O1222301   3.941  -0.134   2.839  0.0152  0.4501 -0.1936
  182DOPC   O1122302   3.741  -0.266   2.840 -0.0682 -0.1936 -0.4500
  182DOPC    C122303   3.754  -0.315   2.971  0.6116 -0.3695 -0.0810
  182DOPC    HA22304   3.847  -0.282   3.024  0.6741  0.5520 -0.7403
  182DOPC    HB22305   3.761  -0.425   2.959  2.4340 -0.2216 -0.6588
  182DOPC    C222306   3.643  -0.268   3.060  0.0672  0.4992 -0.3537
  182DOPC    HS22307   3.547  -0.300   3.014  0.5187 -1.5280  0.0047
  182DOPC   O2122308   3.658  -0.123   3.079 -0.1385  0.0422 -0.5894
  182DOPC   C2122309   3.545  -0.062   3.119 -0.1850 -0.3613  0.3233
  182DOPC   O2222310   3.437  -0.111   3.123 -0.5231  0.8705 -0.5917
  182DOPC   C2222311   3.578   0.078   3.161 -0.5136 -0.2073 -0.0646
  182DOPC   H2R22312   3.575   0.152   3.078 -2.8011 -1.6692 -1.3984
  182DOPC   H2S22313   3.686   0.074   3.186 -0.2130  0.0484 -1.2998
  182DOPC    C322314   3.657  -0.352   3.191 -0.2869 -0.2429 -0.1248
  182DOPC    HX22315   3.760  -0.364   3.230 -0.3713  1.9316  0.9673
  182DOPC    HY22316   3.620  -0.455   3.174  1.4395 -0.7654 -0.9758
  182DOPC   O3122317   3.580  -0.285   3.296  0.4052  0.1536 -0.1738
  182DOPC   C3122318   3.464  -0.342   3.326 -0.2004  0.1624  0.2000
  182DOPC   O3222319   3.423  -0.445   3.275  0.4018  0.5595 -0.2071
  182DOPC   C3222320   3.383  -0.254   3.422 -0.7040  0.3124 -0.4033
  182DOPC   H2X22321   3.415  -0.149   3.405  1.1914 -0.3578 -1.3120
  182DOPC   H2Y22322   3.275  -0.276   3.405 -0.9671  1.0870  0.2257
  182DOPC   C2322323   3.490   0.123   3.276  0.1812 -0.0168  0.3664
  182DOPC   H3R22324   3.485   0.049   3.358 -0.8497 -1.8337 -1.2630
  182DOPC   H3S22325   3.384   0.131   3.246  0.7869  0.4821 -1.9012
  182DOPC   C2422326   3.527   0.258   3.344  0.2246 -0.0045  0.1651
  182DOPC   H4R22327   3.520   0.336   3.265  2.0046 -0.2923 -0.3098
  182DOPC   H4S22328   3.633   0.277   3.372  0.6400  0.1376 -1.4158
  182DOPC   C2522329   3.418   0.291   3.451 -0.2390 -0.5071 -0.0342
  182DOPC   H5R22330   3.438   0.223   3.536  1.1182  0.3067  0.3429
  182DOPC   H5S22331   3.318   0.284   3.404 -1.8270 -1.4292  3.2237
  182DOPC   C2622332   3.440   0.435   3.514  0.1382 -0.1166 -0.3475
  182DOPC   H6R22333   3.406   0.508   3.438 -0.5747 -1.3870 -1.2985
  182DOPC   H6S22334   3.548   0.449   3.535 -0.1214 -0.6506  1.5607
  182DOPC   C2722335   3.368   0.442   3.655 -0.1521 -0.4079  0.1352
  182DOPC   H7R22336   3.392   0.349   3.711 -3.8478 -0.6255  1.6519
  182DOPC   H7S22337   3.259   0.449   3.635  0.0649  1.0396 -0.7185
  182DOPC   C2822338   3.418   0.561   3.748 -0.0215  0.1182 -0.1974
  182DOPC   H8R22339   3.344   0.574   3.830  0.0228 -0.6628 -0.0290
  182DOPC   H8S22340   3.406   0.645   3.676  0.3157  1.6303  1.4354
  182DOPC   C2922341   3.566   0.550   3.800  0.3325  0.9140 -0.6532
  182DOPC   H9R22342   3.649   0.549   3.728  0.1214  1.7845 -0.9222
  182DOPC  C21022343   3.594   0.547   3.930  0.3051 -0.6491 -0.0323
  182DOPC  H10R22344   3.700   0.557   3.959 -0.2477  0.0093  1.9297
  182DOPC  C21122345   3.491   0.563   4.035  0.5087  0.0971 -0.2226
  182DOPC  H11R22346   3.429   0.655   4.026  0.3971  0.3204  2.1908
  182DOPC  H11S22347   3.551   0.586   4.125  0.7585  0.0727 -0.3822
  182DOPC  C21222348   3.417   0.430   4.077  0.3306 -0.2377  0.2291
  182DOPC  H12R22349   3.480   0.342   4.101 -0.8216 -1.2083 -0.2040
  182DOPC  H12S22350   3.361   0.400   3.986 -1.6608  1.2531  0.8709
  182DOPC  C21322351   3.327   0.437   4.201  0.4904  0.5846  0.4057
  182DOPC  H13R22352   3.258   0.524   4.199 -0.3730 -0.0614  1.2008
  182DOPC  H13S22353   3.391   0.464   4.288  1.1002  2.2797 -0.5229
  182DOPC  C21422354   3.244   0.311   4.219  0.3180  0.3417  0.4091
  182DOPC  H14R22355   3.173   0.305   4.133  0.9931 -0.5842 -0.0957
  182DOPC  H14S22356   3.188   0.320   4.314 -1.7677 -0.0149 -0.7236
  182DOPC  C21522357   3.326   0.176   4.234 -0.3893  0.4424  0.3655
  182DOPC  H15R22358   3.403   0.197   4.312  2.3299 -0.5100 -1.9035
  182DOPC  H15S22359   3.374   0.151   4.137  0.5181 -1.5343  1.2513
  182DOPC  C21622360   3.248   0.053   4.286 -0.8730  0.7000  0.5583
  182DOPC  H16R22361   3.160   0.034   4.222  0.0472 -1.4363 -0.1714
  182DOPC  H16S22362   3.214   0.064   4.391  1.1796  1.7293  1.1778
  182DOPC  C21722363   3.348  -0.069   4.296 -0.5661  0.3876 -0.0305
  182DOPC  H17R22364   3.291  -0.147   4.353  1.1458 -0.4930  0.5454
  182DOPC  H17S22365   3.440  -0.038   4.349  0.7051 -0.0837 -1.8846
  182DOPC  C21822366   3.391  -0.129   4.159  0.3923  0.2231  0.5602
  182DOPC  H18R22367   3.308  -0.121   4.086  3.2264  0.5720 -2.9061
  182DOPC  H18S22368   3.413  -0.238   4.166  0.4213  0.2987  2.2749
  182DOPC  H18T22369   3.474  -0.073   4.111  1.1237 -1.8909 -0.7627
  182DOPC   C3322370   3.422  -0.298   3.566 -0.1861 -0.3720 -0.5732
  182DOPC   H3X22371   3.469  -0.399   3.554 -1.8790 -0.9856 -2.5465
  182DOPC   H3Y22372   3.332  -0.294   3.630 -0.9493 -0.8662 -1.5838
  182DOPC   C3422373   3.536  -0.205   3.615 -0.2943 -0.0013  0.2077
  182DOPC   H4X22374   3.526  -0.109   3.560  0.2431  0.5801  1.0957
  182DOPC   H4Y22375   3.632  -0.249   3.580 -1.4693 -1.4699 -1.2635
  182DOPC   C3522376   3.528  -0.164   3.764 -0.3783 -0.3085  0.1253
  182DOPC   H5X22377   3.547  -0.259   3.819  2.6650 -0.2793 -0.6819
  182DOPC   H5Y22378   3.425  -0.133   3.794 -0.7268 -0.7660 -0.5683
  182DOPC   C3622379   3.629  -0.055   3.820  0.2472  0.4223 -0.5486
  182DOPC   H6X22380   3.623  -0.044   3.931 -0.3044 -0.7909 -0.4358
  182DOPC   H6Y22381   3.730  -0.096   3.797 -0.2020 -0.2481 -1.4045
  182DOPC   C3722382   3.614   0.084   3.763  0.0525 -0.4206 -0.0394
  182DOPC   H7X22383   3.630   0.098   3.654 -1.4002  0.2451 -0.1983
  182DOPC   H7Y22384   3.507   0.115   3.766  0.3617  0.6210  1.1791
  182DOPC   C3822385   3.706   0.188   3.846 -0.1473 -0.1087 -0.0411
  182DOPC   H8X22386   3.666   0.201   3.948  1.0095  2.5938  0.1677
  182DOPC   H8Y22387   3.690   0.286   3.795 -1.0348  0.9878  2.2210
  182DOPC   C3922388   3.852   0.155   3.843 -0.2789  0.0433 -0.7163
  182DOPC   H9X22389   3.878   0.078   3.770  1.8872 -1.1122  1.1685
  182DOPC  C31022390   3.943   0.199   3.930 -0.1644 -0.3297 -0.9412
  182DOPC  H10X22391   4.031   0.133   3.939  0.6397  0.2537 -3.6213
  182DOPC  C31122392   3.917   0.308   4.030  0.1087 -0.9880 -0.2003
  182DOPC  H11X22393   3.838   0.377   3.992 -0.6320 -2.0505 -0.6178
  182DOPC  H11Y22394   4.011   0.367   4.038 -0.1195  0.3036 -4.4480
  182DOPC  C31222395   3.889   0.236   4.160  0.2517  0.6140  0.1705
  182DOPC  H12X22396   3.973   0.166   4.180  0.9660  0.8945 -1.7043
  182DOPC  H12Y22397   3.801   0.170   4.145  1.5033 -0.8548 -0.9999
  182DOPC  C31322398   3.870   0.335   4.276 -0.8687  0.2662  0.6638
  182DOPC  H13X22399   3.925   0.297   4.364 -0.2756  0.1435  0.2488
  182DOPC  H13Y22400   3.918   0.434   4.259 -1.7492  1.0044  2.2642
  182DOPC  C31422401   3.724   0.348   4.295  0.0591  0.1213 -0.0241
  182DOPC  H14X22402   3.680   0.392   4.203  0.3884 -0.3053 -0.3900
  182DOPC  H14Y22403   3.682   0.246   4.310 -1.0417  0.8534  2.3883
  182DOPC  C31522404   3.674   0.436   4.411 -0.2264 -0.1857  0.7034
  182DOPC  H15X22405   3.566   0.461   4.396 -0.2287  0.9621  2.3772
  182DOPC  H15Y22406   3.721   0.536   4.422 -2.1861  0.9472 -0.6029
  182DOPC  C31622407   3.684   0.371   4.551 -0.2270 -0.2475 -0.5170
  182DOPC  H16X22408   3.637   0.270   4.557 -0.9095  0.1653  1.9906
  182DOPC  H16Y22409   3.794   0.362   4.569  0.1211 -0.5916 -2.5413
  182DOPC  C31722410   3.628   0.460   4.660  0.1281  0.6858  0.2507
  182DOPC  H17X22411   3.647   0.567   4.639  1.2518  0.3237 -0.6638
  182DOPC  H17Y22412   3.517   0.460   4.670  0.1715 -0.3735  0.9357
  182DOPC  C31822413   3.676   0.428   4.807  0.1349  0.1153 -0.7011
  182DOPC  H18X22414   3.786   0.444   4.812  0.2346 -0.6209 -0.5325
  182DOPC  H18Y22415   3.618   0.496   4.874 -0.4453 -1.2145  0.1780
  182DOPC  H18Z22416   3.646   0.330   4.850  1.1651  0.2800  0.4350
  183DOPC     N22417   1.192   4.129   2.960  0.0925  0.1633  0.4861
  183DOPC   C1222418   1.083   4.231   2.952  0.4884 -0.1384  0.1279
  183DOPC  H12A22419   1.002   4.190   2.894  2.0202 -2.3376 -0.6321
  183DOPC  H12B22420   1.108   4.306   2.878 -1.6156 -0.2292 -0.7199
  183DOPC   C1322421   1.144   4.004   3.029  0.1178 -0.1585 -0.2614
  183DOPC  H13A22422   1.102   4.041   3.121  1.3983  1.1332 -0.1632
  183DOPC  H13B22423   1.064   3.952   2.979  0.8196 -0.0110 -1.6047
  183DOPC  H13C22424   1.216   3.930   3.061  0.2067  0.5603  1.3022
  183DOPC   C1422425   1.310   4.168   3.041  0.3063 -0.0533 -0.0903
  183DOPC  H14A22426   1.388   4.094   3.046 -0.2560 -0.5987  3.5639
  183DOPC  H14B22427   1.358   4.258   3.005  0.1802 -0.1599 -0.5239
  183DOPC  H14C22428   1.280   4.174   3.145  1.3209 -2.1494  0.3856
  183DOPC   C1522429   1.239   4.096   2.820  0.5209  0.1571 -0.4479
  183DOPC  H15A22430   1.153   4.052   2.772 -1.3141 -0.5484  3.1324
  183DOPC  H15B22431   1.306   4.012   2.832 -1.0959 -1.1857 -0.4764
  183DOPC  H15C22432   1.275   4.177   2.757 -3.3628  1.9734 -0.6214
  183DOPC   C1122433   1.036   4.292   3.080 -0.6588  0.2179 -0.5191
  183DOPC  H11A22434   1.084   4.385   3.119 -3.0229  1.1930  0.2296
  183DOPC  H11B22435   0.939   4.343   3.062  0.4625  3.4756  1.6409
  183DOPC     P22436   0.960   4.229   3.325 -0.0522 -0.3530  0.1772
  183DOPC   O1322437   1.036   4.157   3.429  0.1750  0.2882 -0.8252
  183DOPC   O1422438   0.819   4.178   3.311  0.0612 -0.1569 -0.1774
  183DOPC   O1222439   1.022   4.194   3.187  0.1604 -0.0018 -0.0875
  183DOPC   O1122440   0.969   4.384   3.362 -0.2156  0.0074  0.0916
  183DOPC    C122441   0.862   4.446   3.426 -0.0854  0.2697 -0.1517
  183DOPC    HA22442   0.824   4.400   3.520 -1.9166  1.6833 -0.1444
  183DOPC    HB22443   0.767   4.453   3.368  0.4340  2.4878 -0.8470
  183DOPC    C222444   0.914   4.591   3.470 -0.0155 -0.2467 -0.1789
  183DOPC    HS22445   0.954   4.620   3.371  1.5095 -0.2270  0.4266
  183DOPC   O2122446   1.018   4.576   3.563 -0.1328 -0.1403 -0.1533
  183DOPC   C2122447   1.106   4.668   3.573  0.3458  0.0652  0.1181
  183DOPC   O2222448   1.120   4.769   3.504  0.0834 -0.7251 -0.2349
  183DOPC   C2222449   1.213   4.628   3.675  0.1244 -0.3415 -0.2520
  183DOPC   H2R22450   1.292   4.565   3.629  1.8178 -0.5886  2.7864
  183DOPC   H2S22451   1.172   4.571   3.760  0.4303 -1.6687 -0.9747
  183DOPC    C322452   0.801   4.696   3.510 -0.4337  0.2773  0.1640
  183DOPC    HX22453   0.744   4.712   3.416 -0.3912 -2.7222 -0.4696
  183DOPC    HY22454   0.854   4.793   3.525 -0.5805  1.0632 -3.5635
  183DOPC   O3122455   0.711   4.666   3.617 -0.2759 -0.0605 -0.3529
  183DOPC   C3122456   0.764   4.686   3.739  0.3445  0.2274 -0.4958
  183DOPC   O3222457   0.867   4.743   3.760  0.7161  0.5810 -0.2193
  183DOPC   C3222458   0.669   4.643   3.845  0.0384 -0.1768 -0.4476
  183DOPC   H2X22459   0.568   4.668   3.807  0.8615  0.3116 -2.4649
  183DOPC   H2Y22460   0.672   4.532   3.852  1.1187 -0.1109  0.5554
  183DOPC   C2322461   1.276   4.757   3.734  0.8296 -0.2086  0.6120
  183DOPC   H3R22462   1.197   4.823   3.774  0.7935  0.3632 -0.3952
  183DOPC   H3S22463   1.322   4.816   3.652 -0.9396  0.3757 -0.0101
  183DOPC   C2422464   1.380   4.729   3.847 -0.0240 -0.0320  0.1320
  183DOPC   H4R22465   1.443   4.645   3.812  2.3096  1.2437  1.0494
  183DOPC   H4S22466   1.339   4.694   3.944  0.6667 -1.3897 -0.0358
  183DOPC   C2522467   1.472   4.850   3.873 -0.2026 -0.4076 -0.0586
  183DOPC   H5R22468   1.415   4.941   3.902  1.3910  0.8094 -0.5797
  183DOPC   H5S22469   1.536   4.880   3.787 -0.5730 -2.6069 -1.1762
  183DOPC   C2622470   1.564   4.819   3.995  0.2478 -0.1940  0.7920
  183DOPC   H6R22471   1.632   4.907   3.997  1.1786 -0.9034  2.8209
  183DOPC   H6S22472   1.621   4.729   3.963 -0.9345 -0.5076 -0.5511
  183DOPC   C2722473   1.505   4.791   4.129  0.1276 -0.5165  0.1696
  183DOPC   H7R22474   1.476   4.684   4.142 -0.6317 -0.4897 -1.1269
  183DOPC   H7S22475   1.409   4.846   4.137  0.4654  0.0130  0.5840
  183DOPC   C2822476   1.593   4.849   4.245  0.7171  0.3473 -0.1449
  183DOPC   H8R22477   1.528   4.843   4.335 -0.5468  0.6698 -1.0070
  183DOPC   H8S22478   1.614   4.957   4.232  0.3386  0.5750  0.9983
  183DOPC   C2922479   1.719   4.765   4.256  0.4681 -0.3752  0.0248
  183DOPC   H9R22480   1.742   4.720   4.159 -2.5956 -0.1441 -0.9251
  183DOPC  C21022481   1.801   4.727   4.356  0.5912 -0.1349  0.5884
  183DOPC  H10R22482   1.892   4.672   4.327  1.4155  1.0066  0.9190
  183DOPC  C21122483   1.782   4.781   4.495 -0.1372 -0.2538 -0.5171
  183DOPC  H11R22484   1.734   4.701   4.555  2.0211 -1.6220 -0.5266
  183DOPC  H11S22485   1.729   4.878   4.505 -1.3183 -1.0530  1.6097
  183DOPC  C21222486   1.922   4.800   4.549  0.0783 -0.2331  0.0786
  183DOPC  H12R22487   1.995   4.870   4.503  1.4562  0.1115  2.5827
  183DOPC  H12S22488   1.972   4.701   4.557 -0.7389 -0.6512  0.0431
  183DOPC  C21322489   1.914   4.839   4.699 -0.4412 -0.0581  0.0660
  183DOPC  H13R22490   2.018   4.830   4.739  0.2714 -1.0270 -1.9127
  183DOPC  H13S22491   1.855   4.757   4.746  0.9705 -3.0032 -2.9282
  183DOPC  C21422492   1.864   4.989   4.721 -0.5141 -0.2196  0.5247
  183DOPC  H14R22493   1.813   5.012   4.624  0.2356 -1.5902 -0.2296
  183DOPC  H14S22494   1.954   5.054   4.724  0.9585 -1.9970 -1.7047
  183DOPC  C21522495   1.777   5.012   4.841  0.9239 -0.0991 -0.4452
  183DOPC  H15R22496   1.823   4.963   4.929 -0.6119 -0.5380  0.1382
  183DOPC  H15S22497   1.681   4.959   4.826  1.6260 -1.1858 -1.2173
  183DOPC  C21622498   1.755   5.159   4.869 -0.2794 -0.3691  0.0028
  183DOPC  H16R22499   1.718   5.223   4.786 -1.7964  0.8172  1.5247
  183DOPC  H16S22500   1.857   5.192   4.898  0.0338  0.5809 -2.0118
  183DOPC  C21722501   1.673   5.189   4.994  0.3368  0.8283 -0.3157
  183DOPC  H17R22502   1.718   5.134   5.079 -0.4509  0.6513 -0.0061
  183DOPC  H17S22503   1.567   5.158   4.984  0.0597  0.8825  1.9607
  183DOPC  C21822504   1.694   5.335   5.026  0.1585 -0.4922  0.4313
  183DOPC  H18R22505   1.624   5.362   5.107 -0.9006  1.8291 -1.1491
  183DOPC  H18S22506   1.659   5.401   4.944  1.1225  0.4682  0.7681
  183DOPC  H18T22507   1.799   5.357   5.056 -0.6601  0.3749  2.9066
  183DOPC   C3322508   0.691   4.694   3.985  0.1347  0.0933 -0.0886
  183DOPC   H3X22509   0.716   4.802   3.986  1.2077 -0.0347 -2.9322
  183DOPC   H3Y22510   0.779   4.641   4.027 -0.9998 -2.1656 -0.3968
  183DOPC   C3422511   0.575   4.664   4.081  0.1315 -0.3363  0.3715
  183DOPC   H4X22512   0.528   4.568   4.052 -0.7429 -0.1170  1.0405
  183DOPC   H4Y22513   0.504   4.749   4.080  4.6732  3.9918 -1.3766
  183DOPC   C3522514   0.624   4.655   4.233 -0.3392  0.0811 -0.3334
  183DOPC   H5X22515   0.691   4.731   4.278  0.1951 -1.2195  1.1376
  183DOPC   H5Y22516   0.668   4.555   4.247 -0.3556 -0.7172 -4.6436
  183DOPC   C3622517   0.495   4.639   4.314 -0.3656  0.3081 -0.3045
  183DOPC   H6X22518   0.457   4.743   4.324  2.4172  1.2769  1.2939
  183DOPC   H6Y22519   0.408   4.591   4.264 -0.4518 -0.2862  0.4006
  183DOPC   C3722520   0.523   4.588   4.456 -0.2484 -0.3249 -1.0440
  183DOPC   H7X22521   0.604   4.512   4.453  0.9595  0.8991 -0.2787
  183DOPC   H7Y22522   0.571   4.666   4.518 -0.3265  0.1299 -1.5501
  183DOPC   C3822523   0.399   4.528   4.530  0.2455  0.2500 -0.2832
  183DOPC   H8X22524   0.428   4.505   4.635  1.1507  2.5859  0.0559
  183DOPC   H8Y22525   0.365   4.436   4.478 -1.5132 -0.9458  2.6802
  183DOPC   C3922526   0.278   4.615   4.545  0.1401 -0.5547  0.2984
  183DOPC   H9X22527   0.295   4.714   4.500  0.6616 -0.4387  0.7453
  183DOPC  C31022528   0.157   4.586   4.598 -0.5555  0.1059  0.3243
  183DOPC  H10X22529   0.086   4.669   4.598 -1.5867 -0.5526 -4.0062
  183DOPC  C31122530   0.108   4.444   4.631  0.2850  0.7238  0.9145
  183DOPC  H11X22531   0.064   4.446   4.733 -1.4313 -0.3245  0.2339
  183DOPC  H11Y22532   0.194   4.374   4.638 -0.1794 -0.1656 -1.5314
  183DOPC  C31222533   0.019   4.380   4.524 -0.3686 -0.2992 -0.0227
  183DOPC  H12X22534  -0.062   4.449   4.491  0.9277  1.6689  0.7022
  183DOPC  H12Y22535  -0.031   4.293   4.572 -1.2698  1.0423  1.5989
  183DOPC  C31322536   0.101   4.317   4.407  0.2046 -0.5162  0.4182
  183DOPC  H13X22537   0.166   4.390   4.355 -1.5453 -0.0780 -1.2357
  183DOPC  H13Y22538   0.168   4.245   4.460 -0.1174  0.4753  2.2849
  183DOPC  C31422539   0.011   4.248   4.307  0.2983 -0.5561  0.3624
  183DOPC  H14X22540  -0.028   4.159   4.360  0.1634 -0.2503  0.7833
  183DOPC  H14Y22541  -0.076   4.313   4.284 -0.1865 -1.0484  0.7751
  183DOPC  C31522542   0.090   4.216   4.172 -0.2644 -0.4768  0.0996
  183DOPC  H15X22543   0.182   4.158   4.194  0.2464  0.6044  0.8607
  183DOPC  H15Y22544   0.112   4.313   4.122 -0.8526  0.4253  1.5249
  183DOPC  C31622545   0.009   4.138   4.079  0.6241 -0.1135 -0.2184
  183DOPC  H16X22546  -0.005   4.031   4.106 -1.2217  0.3578  0.8274
  183DOPC  H16Y22547  -0.093   4.182   4.075  0.4071 -0.6302 -0.3796
  183DOPC  C31722548   0.058   4.136   3.933  0.4900 -0.3225  0.0810
  183DOPC  H17X22549   0.044   4.243   3.906  2.0458 -0.3225 -0.8457
  183DOPC  H17Y22550   0.168   4.128   3.916  0.5829 -0.8568  0.9204
  183DOPC  C31822551  -0.020   4.050   3.834  0.4066 -0.2905 -0.4804
  183DOPC  H18X22552  -0.120   4.095   3.815 -0.0726 -0.6174  1.1889
  183DOPC  H18Y22553   0.037   4.054   3.738  0.1441  0.5215 -0.6078
  183DOPC  H18Z22554  -0.033   3.944   3.864  0.8308 -0.2829 -0.2515
  184DOPC     N22555   6.891   7.441   2.986  0.0944 -0.2919 -0.0343
  184DOPC   C1222556   6.754   7.414   3.036 -0.2229 -0.1918 -0.0889
  184DOPC  H12A22557   6.756   7.440   3.141  1.5266  1.3766 -0.4682
  184DOPC  H12B22558   6.724   7.310   3.036 -1.1049  0.0111 -1.9968
  184DOPC   C1322559   6.914   7.588   3.008 -0.0700  0.1195  0.2876
  184DOPC  H13A22560   6.817   7.633   2.995 -1.0628 -1.7098  0.9392
  184DOPC  H13B22561   6.936   7.597   3.113 -2.8679 -2.4307  1.2387
  184DOPC  H13C22562   6.984   7.628   2.936  0.4063 -2.0479 -0.5328
  184DOPC   C1422563   6.905   7.400   2.841 -1.0172 -0.2096 -0.1954
  184DOPC  H14A22564   6.846   7.468   2.780  0.0650  0.2270 -0.7934
  184DOPC  H14B22565   7.011   7.412   2.822 -1.2580  2.0807 -0.3353
  184DOPC  H14C22566   6.869   7.300   2.822  0.3465 -0.5426 -1.2121
  184DOPC   C1522567   6.991   7.353   3.060  0.8459  0.4946 -0.2869
  184DOPC  H15A22568   6.988   7.247   3.037  1.8190 -0.0919  1.9673
  184DOPC  H15B22569   6.968   7.354   3.165 -0.6451 -1.9535 -0.5194
  184DOPC  H15C22570   7.092   7.382   3.031  0.9154 -0.5960 -1.2271
  184DOPC   C1122571   6.630   7.485   2.974  0.6741  0.1023  0.1666
  184DOPC  H11A22572   6.622   7.466   2.865  2.5205  1.6577 -0.3119
  184DOPC  H11B22573   6.537   7.440   3.015 -0.7513  0.4116 -2.4920
  184DOPC     P22574   6.517   7.726   2.938 -0.0177  0.2721  0.0184
  184DOPC   O1322575   6.400   7.699   3.017 -0.0649  0.3790 -0.3990
  184DOPC   O1422576   6.502   7.704   2.790 -0.4253  0.0265  0.0275
  184DOPC   O1222577   6.640   7.629   2.991  0.2192 -0.0904 -0.5522
  184DOPC   O1122578   6.571   7.872   2.955 -0.1945  0.0691 -0.2186
  184DOPC    C122579   6.654   7.910   3.066 -1.0191 -0.1467 -0.1259
  184DOPC    HA22580   6.716   7.999   3.044  1.0583 -1.3239  0.5869
  184DOPC    HB22581   6.725   7.826   3.082 -3.2180 -2.2610 -0.8552
  184DOPC    C222582   6.588   7.932   3.201  0.2753 -0.6019 -0.1111
  184DOPC    HS22583   6.659   7.977   3.274 -1.4905  2.0709  0.0731
  184DOPC   O2122584   6.530   7.815   3.254 -0.0267  0.2277 -0.4270
  184DOPC   C2122585   6.614   7.735   3.317 -0.6068 -0.1398 -0.5437
  184DOPC   O2222586   6.734   7.750   3.330  0.4381 -0.1839 -0.3779
  184DOPC   C2222587   6.527   7.631   3.387 -0.0161 -1.0568  0.0917
  184DOPC   H2R22588   6.567   7.532   3.356  1.4108 -0.9294  1.3755
  184DOPC   H2S22589   6.422   7.646   3.356 -0.6415  1.1957  2.9083
  184DOPC    C322590   6.472   8.033   3.187  0.3070  0.2700  0.8468
  184DOPC    HX22591   6.393   7.974   3.135  0.6462  1.1338 -0.7149
  184DOPC    HY22592   6.507   8.122   3.130 -1.6381  0.2745 -0.4394
  184DOPC   O3122593   6.424   8.082   3.315  0.4458  0.2660 -0.0844
  184DOPC   C3122594   6.292   8.111   3.321  0.7888 -0.3464  0.5707
  184DOPC   O3222595   6.216   8.111   3.222 -0.0195  0.0540 -0.5083
  184DOPC   C3222596   6.253   8.140   3.463 -0.3931  0.7365 -0.2336
  184DOPC   H2X22597   6.344   8.110   3.517  0.4445  2.0629 -0.8498
  184DOPC   H2Y22598   6.241   8.251   3.467 -0.1203  0.8122 -1.2194
  184DOPC   C2322599   6.536   7.663   3.543 -0.1175  0.7207 -0.1259
  184DOPC   H3R22600   6.638   7.678   3.586  0.1862 -0.6560 -0.2918
  184DOPC   H3S22601   6.510   7.570   3.599  2.0605  0.5876  0.7642
  184DOPC   C2422602   6.450   7.778   3.597  0.3579 -0.6147 -0.3023
  184DOPC   H4R22603   6.343   7.752   3.585  0.5369 -1.2433 -0.5727
  184DOPC   H4S22604   6.474   7.865   3.532 -0.5633  0.0324  0.1948
  184DOPC   C2522605   6.470   7.809   3.750  0.1317  0.9659 -0.3950
  184DOPC   H5R22606   6.563   7.868   3.761  1.6723 -1.4035 -0.0412
  184DOPC   H5S22607   6.497   7.711   3.794  1.0259  0.9501 -0.9598
  184DOPC   C2622608   6.340   7.873   3.812 -0.3311  0.1932 -0.1504
  184DOPC   H6R22609   6.251   7.814   3.783 -0.6717 -0.7345  2.4757
  184DOPC   H6S22610   6.318   7.974   3.770 -0.1074  0.1341 -0.4146
  184DOPC   C2722611   6.349   7.887   3.967  0.9544  0.5987 -0.4624
  184DOPC   H7R22612   6.439   7.936   4.010  1.0668 -0.7660  0.9246
  184DOPC   H7S22613   6.360   7.784   4.007  0.6363  1.1339  1.0656
  184DOPC   C2822614   6.228   7.942   4.030 -0.3738 -0.1012  0.2170
  184DOPC   H8R22615   6.134   7.909   3.979 -0.6092  0.0740  0.5305
  184DOPC   H8S22616   6.231   8.053   4.029  1.7127 -0.1275  0.3607
  184DOPC   C2922617   6.212   7.911   4.176 -0.2291 -0.3033  0.3054
  184DOPC   H9R22618   6.301   7.860   4.216  0.2591  0.5582  0.3446
  184DOPC  C21022619   6.113   7.952   4.261 -0.0459  0.5714  1.2458
  184DOPC  H10R22620   6.111   7.922   4.367 -3.7772  0.5952  1.3003
  184DOPC  C21122621   6.001   8.037   4.226  0.9225 -0.2858  0.4783
  184DOPC  H11R22622   5.912   7.971   4.213  1.1653 -0.4943 -0.1556
  184DOPC  H11S22623   6.013   8.081   4.125  0.7065 -1.8023 -0.2408
  184DOPC  C21222624   5.961   8.149   4.320  0.6034 -1.1853 -0.1768
  184DOPC  H12R22625   5.884   8.213   4.272  0.2288 -0.8423  0.8484
  184DOPC  H12S22626   6.051   8.214   4.326 -1.1416  1.2826  0.7604
  184DOPC  C21322627   5.909   8.106   4.458 -0.0240 -0.3509 -0.2631
  184DOPC  H13R22628   5.883   8.197   4.516 -0.1361 -0.7144  0.2635
  184DOPC  H13S22629   5.995   8.058   4.510  0.1879  0.3829  0.0787
  184DOPC  C21422630   5.793   8.011   4.458  1.1874  0.6912 -0.2178
  184DOPC  H14R22631   5.840   7.911   4.466 -1.8785 -0.7852  1.1245
  184DOPC  H14S22632   5.729   8.014   4.367 -0.6602  1.5669  1.0259
  184DOPC  C21522633   5.693   8.018   4.575 -0.3776  0.6458 -0.0414
  184DOPC  H15R22634   5.632   8.110   4.587 -0.8936  0.1797  1.0248
  184DOPC  H15S22635   5.749   7.998   4.669 -1.9500  0.7781  0.9500
  184DOPC  C21622636   5.592   7.898   4.570  0.2006  0.0066  0.4414
  184DOPC  H16R22637   5.529   7.908   4.661  0.0265  1.1517  0.2095
  184DOPC  H16S22638   5.645   7.800   4.573 -0.5486 -0.4496 -0.5148
  184DOPC  C21722639   5.496   7.899   4.444 -0.1030  0.1498  0.3152
  184DOPC  H17R22640   5.555   7.880   4.352 -0.7925  0.4973 -0.2098
  184DOPC  H17S22641   5.476   8.008   4.429  2.1427  0.6270  0.3644
  184DOPC  C21822642   5.371   7.800   4.442  0.5973  0.2332  0.7461
  184DOPC  H18R22643   5.295   7.843   4.511  0.3783  1.8939 -0.4597
  184DOPC  H18S22644   5.415   7.703   4.471 -0.6750 -1.6910 -3.0581
  184DOPC  H18T22645   5.322   7.791   4.343 -0.8933  0.5417  1.4350
  184DOPC   C3322646   6.118   8.082   3.518  0.2747 -0.9492 -0.4169
  184DOPC   H3X22647   6.040   8.147   3.472 -1.4329 -2.0090  0.8624
  184DOPC   H3Y22648   6.114   8.095   3.628  1.0282 -2.7921 -0.1359
  184DOPC   C3422649   6.086   7.934   3.491 -0.1109  0.0730  0.7304
  184DOPC   H4X22650   6.167   7.873   3.536  0.9481  0.7981 -0.1258
  184DOPC   H4Y22651   6.099   7.913   3.383  2.0699  0.5809  0.8428
  184DOPC   C3522652   5.948   7.897   3.535 -0.0589 -0.0176 -0.9305
  184DOPC   H5X22653   5.929   7.790   3.509  0.3861 -0.4509  0.4350
  184DOPC   H5Y22654   5.864   7.959   3.498 -2.7436 -1.3104  2.4319
  184DOPC   C3622655   5.951   7.898   3.692 -0.1686  0.2329  0.6432
  184DOPC   H6X22656   6.031   7.829   3.729 -1.3474 -0.0474  2.8450
  184DOPC   H6Y22657   5.966   8.003   3.725 -0.1901  0.2074  0.7350
  184DOPC   C3722658   5.815   7.866   3.758 -0.5589  0.2806 -0.1019
  184DOPC   H7X22659   5.750   7.907   3.678 -0.8961 -2.0867 -1.1210
  184DOPC   H7Y22660   5.798   7.756   3.761 -1.4178  0.4260  0.5855
  184DOPC   C3822661   5.792   7.921   3.901 -0.1033  0.5477  0.7042
  184DOPC   H8X22662   5.801   8.031   3.887  2.4814  0.2449 -0.6937
  184DOPC   H8Y22663   5.872   7.880   3.967 -0.9446 -2.3099  0.0380
  184DOPC   C3922664   5.654   7.883   3.955 -0.1157 -0.2282 -0.6232
  184DOPC   H9X22665   5.634   7.777   3.938  2.0986 -0.6540 -0.8039
  184DOPC  C31022666   5.572   7.952   4.039  0.5734 -0.0717  0.8151
  184DOPC  H10X22667   5.467   7.917   4.041 -0.3950  2.2654 -1.8156
  184DOPC  C31122668   5.590   8.099   4.066 -0.6798 -0.1859 -0.2945
  184DOPC  H11X22669   5.682   8.136   4.016 -1.5548  0.9181 -1.1527
  184DOPC  H11Y22670   5.594   8.093   4.176 -2.5474 -0.1461 -0.1929
  184DOPC  C31222671   5.484   8.196   4.007 -0.0486  0.0291  0.9756
  184DOPC  H12X22672   5.478   8.190   3.897 -0.9106  0.6933  0.9753
  184DOPC  H12Y22673   5.532   8.294   4.030  2.2097 -0.7745 -0.0345
  184DOPC  C31322674   5.350   8.193   4.079  0.4478  0.3954  0.5119
  184DOPC  H13X22675   5.313   8.088   4.079 -0.0297  0.5476 -0.6464
  184DOPC  H13Y22676   5.360   8.228   4.184  1.0357  0.2751  0.5004
  184DOPC  C31422677   5.243   8.276   4.020  0.0320 -0.4054 -0.0170
  184DOPC  H14X22678   5.282   8.379   4.005 -2.4258  0.6802  0.6527
  184DOPC  H14Y22679   5.215   8.234   3.922  0.6069  0.6193 -0.6421
  184DOPC  C31522680   5.111   8.286   4.101  0.3877  0.4308  0.0056
  184DOPC  H15X22681   5.143   8.356   4.181  2.2835 -0.2726 -0.0946
  184DOPC  H15Y22682   5.085   8.190   4.149  3.0964  0.0822  0.9494
  184DOPC  C31622683   4.989   8.343   4.028  0.7096 -0.7234 -0.1376
  184DOPC  H16X22684   4.914   8.363   4.107  0.6573 -1.6816  0.0718
  184DOPC  H16Y22685   5.018   8.431   3.967 -2.6031 -0.5699 -1.7053
  184DOPC  C31722686   4.918   8.243   3.942 -0.3034  0.4752  0.5718
  184DOPC  H17X22687   4.988   8.208   3.862 -0.1898  2.1963 -0.1136
  184DOPC  H17Y22688   4.903   8.153   4.006  1.9193  0.8961  1.7909
  184DOPC  C31822689   4.786   8.290   3.887 -0.3089 -0.1042  0.2102
  184DOPC  H18X22690   4.806   8.386   3.836  0.2339 -1.1022 -1.5503
  184DOPC  H18Y22691   4.747   8.212   3.817  0.1991 -1.0516  0.9566
  184DOPC  H18Z22692   4.721   8.313   3.974 -0.4337 -3.9792  1.3345
  185DOPC     N22693   0.326   4.749   3.172  0.3147  0.4797 -0.5205
  185DOPC   C1222694   0.340   4.866   3.266 -0.3275  0.0818 -0.6452
  185DOPC  H12A22695   0.363   4.827   3.364 -0.6224 -0.6462 -0.8530
  185DOPC  H12B22696   0.247   4.920   3.274  0.6290  1.8143 -0.8811
  185DOPC   C1322697   0.458   4.696   3.130  0.6186 -0.7871 -0.7445
  185DOPC  H13A22698   0.508   4.756   3.056  0.6011 -1.2614 -1.1495
  185DOPC  H13B22699   0.536   4.675   3.202  1.3676 -2.6881 -2.0371
  185DOPC  H13C22700   0.435   4.599   3.088  0.5489 -0.1388 -2.2595
  185DOPC   C1422701   0.244   4.790   3.053  0.8215  0.4097  0.1567
  185DOPC  H14A22702   0.290   4.873   3.000  1.0137  0.0293 -0.2757
  185DOPC  H14B22703   0.231   4.705   2.988 -0.3881 -0.7515  1.8525
  185DOPC  H14C22704   0.148   4.834   3.075 -0.1649 -1.0204 -1.0870
  185DOPC   C1522705   0.255   4.634   3.240 -0.3824 -0.5041  0.2138
  185DOPC  H15A22706   0.308   4.589   3.324 -3.0869 -0.2904  2.1624
  185DOPC  H15B22707   0.247   4.554   3.168  2.9573 -0.3011 -0.5385
  185DOPC  H15C22708   0.155   4.655   3.273 -0.1982  0.8297 -0.0131
  185DOPC   C1122709   0.439   4.980   3.227 -0.6936 -0.2916  0.1447
  185DOPC  H11A22710   0.431   5.060   3.304 -3.1135  0.8005 -1.1245
  185DOPC  H11B22711   0.546   4.955   3.241  0.2943  0.5046 -4.4636
  185DOPC     P22712   0.309   5.152   3.098  0.2909  0.0053 -0.1758
  185DOPC   O1322713   0.180   5.095   3.149  0.5825 -0.2212 -0.1599
  185DOPC   O1422714   0.303   5.217   2.966 -0.1841 -0.5537  0.0990
  185DOPC   O1222715   0.420   5.044   3.102 -0.0439  0.6372  0.3641
  185DOPC   O1122716   0.359   5.263   3.200 -0.4857 -0.3394  0.0020
  185DOPC    C122717   0.482   5.323   3.214 -0.9504  0.0781  1.0934
  185DOPC    HA22718   0.498   5.403   3.138  2.0868 -0.1597  1.3529
  185DOPC    HB22719   0.563   5.248   3.202 -0.9863  0.3774 -1.5569
  185DOPC    C222720   0.496   5.397   3.353 -0.2011  0.2704 -0.2078
  185DOPC    HS22721   0.580   5.468   3.335 -1.0035  0.9080 -1.5697
  185DOPC   O2122722   0.512   5.291   3.461 -0.2701 -0.1074 -0.9131
  185DOPC   C2122723   0.640   5.269   3.482  0.3940 -0.1995 -0.4797
  185DOPC   O2222724   0.737   5.315   3.436  0.3117  0.4940 -0.4112
  185DOPC   C2222725   0.645   5.182   3.610 -0.8345 -0.4577 -0.2961
  185DOPC   H2R22726   0.755   5.169   3.622 -0.9643 -1.3562 -0.0031
  185DOPC   H2S22727   0.607   5.080   3.586 -4.0684  0.1221  1.8468
  185DOPC    C322728   0.385   5.501   3.382  0.1652  0.0901  0.8315
  185DOPC    HX22729   0.287   5.452   3.367  1.4722 -2.0336 -1.5420
  185DOPC    HY22730   0.394   5.576   3.300  1.9674 -1.8358 -0.8523
  185DOPC   O3122731   0.396   5.549   3.521  0.4572  0.3354 -0.3797
  185DOPC   C3122732   0.480   5.651   3.534 -0.5769 -0.2059 -0.6581
  185DOPC   O3222733   0.535   5.705   3.443 -0.6315  0.6976  0.2855
  185DOPC   C3222734   0.482   5.700   3.675 -0.3167 -0.1394  0.5739
  185DOPC   H2X22735   0.587   5.699   3.713 -0.5472 -0.2250  1.2266
  185DOPC   H2Y22736   0.458   5.808   3.684 -0.0403 -0.1632  1.7677
  185DOPC   C2322737   0.591   5.232   3.735  0.1688 -0.1208 -0.1049
  185DOPC   H3R22738   0.485   5.265   3.733  0.6394  1.4115 -0.7333
  185DOPC   H3S22739   0.643   5.326   3.761 -0.9617  0.0202  1.8334
  185DOPC   C2422740   0.601   5.132   3.856  0.4770  0.2851  0.5214
  185DOPC   H4R22741   0.708   5.104   3.864 -0.2836 -2.6305  2.0255
  185DOPC   H4S22742   0.539   5.042   3.840  2.1263 -0.9857  0.9906
  185DOPC   C2522743   0.564   5.195   3.990  0.6057  0.1863  0.0386
  185DOPC   H5R22744   0.467   5.248   3.998  0.6969  0.1508  1.7344
  185DOPC   H5S22745   0.635   5.279   4.001 -0.3321  1.0078 -0.0444
  185DOPC   C2622746   0.561   5.095   4.105  0.2393 -0.0309 -0.1607
  185DOPC   H6R22747   0.661   5.047   4.113 -0.3824 -1.3209 -0.0076
  185DOPC   H6S22748   0.492   5.013   4.077 -2.1718  1.0315  2.2184
  185DOPC   C2722749   0.507   5.140   4.251 -0.0649  0.2464  0.1035
  185DOPC   H7R22750   0.400   5.168   4.243  0.1613  0.6932 -1.9183
  185DOPC   H7S22751   0.562   5.234   4.274 -1.0839  0.5939  1.2564
  185DOPC   C2822752   0.533   5.030   4.359  0.0889  0.7385  0.0502
  185DOPC   H8R22753   0.550   4.938   4.299  0.2994  0.1508  0.9951
  185DOPC   H8S22754   0.440   5.009   4.415  1.1189 -4.3138  0.2939
  185DOPC   C2922755   0.650   5.055   4.447 -0.0194  0.1059 -0.5686
  185DOPC   H9R22756   0.728   5.122   4.408 -1.1221  1.3176 -0.7464
  185DOPC  C21022757   0.666   5.017   4.574  0.4854 -0.4423 -0.6208
  185DOPC  H10R22758   0.756   5.050   4.628 -1.2496  1.1885  1.4965
  185DOPC  C21122759   0.564   4.946   4.653  0.1145  0.3706 -0.3544
  185DOPC  H11R22760   0.508   4.877   4.586  0.3421  0.2734 -0.4479
  185DOPC  H11S22761   0.493   5.020   4.694 -1.3827 -1.3083  0.2506
  185DOPC  C21222762   0.626   4.871   4.776 -0.4502 -0.0879  0.9135
  185DOPC  H12R22763   0.645   4.949   4.853 -0.2310 -1.1066  1.9156
  185DOPC  H12S22764   0.726   4.825   4.759 -0.2130  1.2306 -1.8780
  185DOPC  C21322765   0.535   4.760   4.820  0.4211  0.5295  0.2072
  185DOPC  H13R22766   0.530   4.684   4.739  1.3301 -0.8035  1.3424
  185DOPC  H13S22767   0.428   4.784   4.839  0.4819  0.9018  0.0770
  185DOPC  C21422768   0.596   4.680   4.932 -0.2691  0.5048 -0.1377
  185DOPC  H14R22769   0.605   4.746   5.021 -0.0151 -0.5754  0.6545
  185DOPC  H14S22770   0.695   4.644   4.897 -1.3524 -2.3766 -0.5015
  185DOPC  C21522771   0.532   4.550   4.978  0.5732 -0.6115 -0.1101
  185DOPC  H15R22772   0.603   4.484   5.031  2.7593  0.1468 -1.9288
  185DOPC  H15S22773   0.496   4.496   4.887 -0.9601 -0.5685  0.4404
  185DOPC  C21622774   0.403   4.579   5.053  0.0695 -0.7028  0.0171
  185DOPC  H16R22775   0.345   4.653   4.995  0.6426  0.1801  0.5516
  185DOPC  H16S22776   0.426   4.624   5.152 -0.6784 -1.2230  0.4376
  185DOPC  C21722777   0.315   4.452   5.079 -0.0053 -0.5919  0.2368
  185DOPC  H17R22778   0.359   4.378   5.150 -1.2432 -1.4951  0.0825
  185DOPC  H17S22779   0.301   4.396   4.984 -2.2779  1.0730 -0.4882
  185DOPC  C21822780   0.176   4.477   5.132  0.6256 -0.0086  0.2545
  185DOPC  H18R22781   0.182   4.525   5.232  0.8259  1.2098 -0.3220
  185DOPC  H18S22782   0.115   4.387   5.152 -0.7482 -0.4292 -4.5170
  185DOPC  H18T22783   0.110   4.539   5.067 -2.8507 -1.3273  2.2714
  185DOPC   C3322784   0.405   5.615   3.782  0.2947 -0.3895 -0.1329
  185DOPC   H3X22785   0.418   5.506   3.770  2.0112 -0.3664  1.0440
  185DOPC   H3Y22786   0.299   5.640   3.761  0.3276  1.5454  1.6333
  185DOPC   C3422787   0.437   5.672   3.923  0.7323 -0.1251  0.3059
  185DOPC   H4X22788   0.371   5.761   3.932  2.8748  1.8673 -2.1228
  185DOPC   H4Y22789   0.541   5.710   3.932  0.6137  0.1851  0.4094
  185DOPC   C3522790   0.401   5.575   4.034  0.0102 -0.1977 -0.2785
  185DOPC   H5X22791   0.466   5.485   4.030 -2.3617 -1.9866 -1.2274
  185DOPC   H5Y22792   0.302   5.524   4.032 -0.3387  0.4689 -0.2196
  185DOPC   C3622793   0.415   5.641   4.172  0.4166  0.5957 -0.3495
  185DOPC   H6X22794   0.513   5.691   4.184  1.1425 -0.9591  0.5019
  185DOPC   H6Y22795   0.333   5.715   4.188 -0.1036  0.3554 -1.7756
  185DOPC   C3722796   0.425   5.542   4.287  0.3372  0.0460 -0.6121
  185DOPC   H7X22797   0.328   5.516   4.335  0.8591 -0.4099  0.2318
  185DOPC   H7Y22798   0.462   5.447   4.244 -0.9361 -0.7528 -0.0015
  185DOPC   C3822799   0.519   5.583   4.398  0.5881  0.1948  0.5902
  185DOPC   H8X22800   0.626   5.593   4.366  1.0102 -3.4840  0.4770
  185DOPC   H8Y22801   0.524   5.508   4.479  2.8237  1.3926  1.6550
  185DOPC   C3922802   0.480   5.716   4.456  0.2657 -0.1117  0.7855
  185DOPC   H9X22803   0.459   5.796   4.384 -0.8110 -0.3442  0.8333
  185DOPC  C31022804   0.453   5.746   4.583 -0.2195  0.6948 -0.2328
  185DOPC  H10X22805   0.406   5.844   4.602 -0.8276  0.1587  1.1188
  185DOPC  C31122806   0.465   5.653   4.701  0.3080  0.5082 -0.3005
  185DOPC  H11X22807   0.568   5.613   4.709  0.5841  1.5025  1.6560
  185DOPC  H11Y22808   0.413   5.555   4.689  1.3725 -0.3106  1.3730
  185DOPC  C31222809   0.446   5.725   4.841 -0.4210 -0.8713  0.2238
  185DOPC  H12X22810   0.367   5.802   4.832  0.1851 -0.4399 -2.0119
  185DOPC  H12Y22811   0.543   5.769   4.872 -0.9071 -0.3192  0.9876
  185DOPC  C31322812   0.403   5.626   4.956 -0.3930 -0.3886 -0.1579
  185DOPC  H13X22813   0.478   5.549   4.984 -1.9459 -1.7613  0.3342
  185DOPC  H13Y22814   0.396   5.697   5.041  0.8425 -0.1771 -0.2161
  185DOPC  C31422815   0.259   5.574   4.945 -0.4494 -0.1924 -0.1206
  185DOPC  H14X22816   0.184   5.655   4.956  1.5256  1.8711 -1.0507
  185DOPC  H14Y22817   0.250   5.527   4.845 -0.9186  0.1503 -0.2439
  185DOPC  C31522818   0.228   5.459   5.045 -0.2263  0.2640  0.3997
  185DOPC  H15X22819   0.233   5.492   5.151  2.4094  0.5610  0.2463
  185DOPC  H15Y22820   0.310   5.386   5.028 -0.9261 -0.6990  1.0429
  185DOPC  C31622821   0.100   5.383   5.018 -0.0020  0.2626  1.1319
  185DOPC  H16X22822   0.088   5.347   4.913 -0.8409  0.6658  1.0872
  185DOPC  H16Y22823   0.094   5.298   5.089 -0.6135  0.9598  1.9219
  185DOPC  C31722824  -0.021   5.475   5.032 -0.6604  0.6439 -0.3925
  185DOPC  H17X22825  -0.030   5.498   5.140 -2.1156 -0.2456 -0.2964
  185DOPC  H17Y22826  -0.016   5.571   4.977  0.7079  0.1828 -1.1292
  185DOPC  C31822827  -0.151   5.402   4.995 -0.9917  0.4096  0.7251
  185DOPC  H18X22828  -0.165   5.309   5.055  3.0347 -0.8350  0.0011
  185DOPC  H18Y22829  -0.239   5.468   5.007 -2.4791 -1.6180  1.5543
  185DOPC  H18Z22830  -0.146   5.367   4.890 -3.8101  1.0160  0.2956
  186DOPC     N22831   2.653   3.379   3.122  0.5352  0.0566 -0.6879
  186DOPC   C1222832   2.533   3.326   3.195  0.6951 -0.0693 -0.3539
  186DOPC  H12A22833   2.448   3.352   3.134  1.0150 -0.9541 -1.1984
  186DOPC  H12B22834   2.519   3.382   3.287  0.0972 -0.4291 -0.2235
  186DOPC   C1322835   2.652   3.525   3.126  0.1467 -0.3885  0.5663
  186DOPC  H13A22836   2.723   3.562   3.053 -1.5609 -0.4197 -1.1951
  186DOPC  H13B22837   2.555   3.568   3.107 -0.0834 -1.6960 -1.4843
  186DOPC  H13C22838   2.692   3.557   3.221  0.4788  0.8481  0.0223
  186DOPC   C1422839   2.658   3.330   2.983 -0.9896  0.3145 -0.4939
  186DOPC  H14A22840   2.650   3.223   2.982 -1.9785  0.2974  1.8199
  186DOPC  H14B22841   2.574   3.374   2.931 -0.3857  1.4790 -0.5113
  186DOPC  H14C22842   2.751   3.351   2.932  0.2065 -1.9961  0.5810
  186DOPC   C1522843   2.778   3.334   3.193  0.3914  0.3222  0.9613
  186DOPC  H15A22844   2.866   3.356   3.134 -1.3831  0.0870 -1.9988
  186DOPC  H15B22845   2.778   3.226   3.193 -0.1331  0.3203  1.3347
  186DOPC  H15C22846   2.805   3.369   3.291 -1.1115 -0.2251  1.5941
  186DOPC   C1122847   2.526   3.173   3.230 -0.8545  0.2069  0.1346
  186DOPC  H11A22848   2.602   3.141   3.305 -1.0890 -1.6252 -0.3522
  186DOPC  H11B22849   2.421   3.165   3.263 -1.5931  0.2733 -2.0873
  186DOPC     P22850   2.437   3.031   3.028 -0.3568  0.0286 -0.3824
  186DOPC   O1322851   2.502   2.965   2.913 -0.5575  0.0402 -0.6568
  186DOPC   O1422852   2.340   3.136   3.000 -0.1054  0.1256  0.0330
  186DOPC   O1222853   2.552   3.095   3.120  0.3225 -0.0076  0.5357
  186DOPC   O1122854   2.377   2.919   3.121 -0.2609 -0.3000 -0.8527
  186DOPC    C122855   2.439   2.804   3.178 -0.3830 -0.4977  0.3980
  186DOPC    HA22856   2.548   2.808   3.155 -0.2939  2.3392  0.9439
  186DOPC    HB22857   2.393   2.713   3.135 -0.3492  0.9124 -2.9200
  186DOPC    C222858   2.422   2.803   3.327  0.3632  0.4130 -0.5140
  186DOPC    HS22859   2.316   2.829   3.348  0.1079  0.9239 -2.3072
  186DOPC   O2122860   2.514   2.896   3.389  0.1081 -0.0746 -0.2535
  186DOPC   C2122861   2.482   2.931   3.517  0.5069  0.0855 -0.3648
  186DOPC   O2222862   2.380   2.900   3.572  0.3725  0.0044 -0.4464
  186DOPC   C2222863   2.603   2.990   3.580 -0.3685 -0.7368 -0.5837
  186DOPC   H2R22864   2.635   3.080   3.523 -1.2718  0.6264  0.9792
  186DOPC   H2S22865   2.682   2.912   3.570  1.1368  0.5009  1.0606
  186DOPC    C322866   2.453   2.661   3.387  0.4689 -0.1491  0.8320
  186DOPC    HX22867   2.380   2.589   3.344  0.1799  0.2452  0.6462
  186DOPC    HY22868   2.433   2.661   3.496 -0.5659 -0.9985  0.6555
  186DOPC   O3122869   2.588   2.614   3.364 -0.8832  0.0951  0.0165
  186DOPC   C3122870   2.610   2.480   3.383 -0.0087 -0.3160  0.2234
  186DOPC   O3222871   2.524   2.399   3.407  0.2023  0.1448  0.0502
  186DOPC   C3222872   2.759   2.450   3.369 -0.1191 -0.6293  0.5934
  186DOPC   H2X22873   2.784   2.363   3.434  0.2862 -0.1610  1.0702
  186DOPC   H2Y22874   2.778   2.416   3.265 -2.2856 -0.6504  0.1545
  186DOPC   C2322875   2.588   3.012   3.736 -0.0540  0.0211  0.9520
  186DOPC   H3R22876   2.534   2.925   3.780  0.0897  0.8369  2.8477
  186DOPC   H3S22877   2.507   3.085   3.757 -1.2570 -1.4647  1.6524
  186DOPC   C2422878   2.727   3.025   3.799 -0.4679 -0.2270 -0.4077
  186DOPC   H4R22879   2.782   3.106   3.747  0.0629  1.4760  2.5745
  186DOPC   H4S22880   2.781   2.928   3.799 -1.1367 -0.6304  1.2279
  186DOPC   C2522881   2.720   3.075   3.945  0.5168 -0.3472 -0.6681
  186DOPC   H5R22882   2.669   3.173   3.954  2.5463  0.6828  0.3519
  186DOPC   H5S22883   2.822   3.088   3.986  0.2625 -1.4826  0.3924
  186DOPC   C2622884   2.642   2.977   4.030  0.2950  0.6392 -0.2624
  186DOPC   H6R22885   2.697   2.881   4.022 -0.4075  0.0971  0.9888
  186DOPC   H6S22886   2.542   2.972   3.981  0.5188  0.8874 -0.7505
  186DOPC   C2722887   2.639   3.016   4.186 -0.0472  0.5280  0.4613
  186DOPC   H7R22888   2.632   3.126   4.193 -0.6727  0.4198  1.6140
  186DOPC   H7S22889   2.733   2.981   4.233 -0.6131 -0.1785  1.0817
  186DOPC   C2822890   2.518   2.954   4.260 -0.2372 -0.0159  0.3676
  186DOPC   H8R22891   2.540   2.845   4.263  1.5314  0.3154  2.6111
  186DOPC   H8S22892   2.424   2.953   4.201 -0.8194  1.5674  1.1983
  186DOPC   C2922893   2.508   2.991   4.403 -0.2244 -0.1206 -0.2479
  186DOPC   H9R22894   2.604   2.999   4.456 -2.1759  1.5014  3.3671
  186DOPC  C21022895   2.397   3.014   4.477  0.5343  0.3828 -0.1014
  186DOPC  H10R22896   2.401   3.045   4.583 -2.1027 -1.9615  0.8124
  186DOPC  C21122897   2.253   2.997   4.435 -0.2747  0.5504  0.6256
  186DOPC  H11R22898   2.238   2.889   4.418  0.1246  0.6526 -0.4509
  186DOPC  H11S22899   2.241   3.044   4.335  0.2670 -0.9027 -0.1532
  186DOPC  C21222900   2.141   3.039   4.535 -0.2584 -0.4890  1.0712
  186DOPC  H12R22901   2.046   3.056   4.481 -0.0068  0.5387  0.9189
  186DOPC  H12S22902   2.164   3.138   4.581 -1.6570 -1.5841  4.4662
  186DOPC  C21322903   2.133   2.942   4.653  0.1373  0.5087  0.8062
  186DOPC  H13R22904   2.234   2.931   4.698  0.9674  3.0053 -0.2671
  186DOPC  H13S22905   2.108   2.839   4.618  1.5107  0.9455 -1.7284
  186DOPC  C21422906   2.031   2.976   4.761  0.6735  0.8785 -0.5153
  186DOPC  H14R22907   2.042   2.900   4.841  2.2298  0.4859 -1.0529
  186DOPC  H14S22908   1.927   2.975   4.722  0.6932  0.4740 -0.5573
  186DOPC  C21522909   2.044   3.104   4.837 -0.2415 -0.4580 -0.1605
  186DOPC  H15R22910   2.059   3.194   4.773  0.3962  0.6095  1.4172
  186DOPC  H15S22911   2.142   3.090   4.887 -0.0577  0.5634 -0.1963
  186DOPC  C21622912   1.934   3.132   4.939 -0.4876  0.1721  0.1647
  186DOPC  H16R22913   1.981   3.211   5.002  1.3335 -0.6074 -0.1334
  186DOPC  H16S22914   1.916   3.035   4.988 -1.5363 -0.2225 -0.9591
  186DOPC  C21722915   1.805   3.193   4.888 -0.4969  0.0408 -0.1006
  186DOPC  H17R22916   1.742   3.196   4.980  0.7920 -2.3227  0.9510
  186DOPC  H17S22917   1.748   3.121   4.827  1.1656 -0.5561 -1.0013
  186DOPC  C21822918   1.814   3.330   4.824 -0.9618  0.3049 -0.3549
  186DOPC  H18R22919   1.853   3.416   4.883 -0.7834 -0.3077  0.4461
  186DOPC  H18S22920   1.711   3.362   4.797 -0.6793  0.7425 -0.9479
  186DOPC  H18T22921   1.872   3.310   4.731 -1.9098  0.2888 -0.9494
  186DOPC   C3322922   2.850   2.573   3.386  0.1899 -0.2645 -0.6023
  186DOPC   H3X22923   2.834   2.648   3.306  0.4835 -1.3756 -1.7383
  186DOPC   H3Y22924   2.953   2.532   3.376  0.0302 -0.9760  0.4838
  186DOPC   C3422925   2.834   2.645   3.526  0.7153 -0.3939 -0.3075
  186DOPC   H4X22926   2.731   2.684   3.540  1.3092  2.0053 -1.9743
  186DOPC   H4Y22927   2.900   2.733   3.539  0.9942 -0.5992 -0.3220
  186DOPC   C3522928   2.868   2.552   3.649 -0.1524 -0.6921  0.3441
  186DOPC   H5X22929   2.979   2.556   3.649 -0.1261  2.4582 -1.6149
  186DOPC   H5Y22930   2.840   2.446   3.633 -1.3381 -0.7726  2.5252
  186DOPC   C3622931   2.805   2.606   3.780  0.4890 -0.4754  0.2975
  186DOPC   H6X22932   2.830   2.714   3.779 -1.0297 -0.0784 -1.7142
  186DOPC   H6Y22933   2.695   2.598   3.765  0.5977  0.4941 -1.2365
  186DOPC   C3722934   2.849   2.526   3.899  0.0264  0.2426  0.0011
  186DOPC   H7X22935   2.821   2.419   3.886 -1.3527  0.5976 -0.1235
  186DOPC   H7Y22936   2.960   2.520   3.903 -0.0214 -0.4388  0.5966
  186DOPC   C3822937   2.811   2.587   4.033 -0.8472  0.6747 -0.1236
  186DOPC   H8X22938   2.833   2.695   4.040 -1.5015  0.8345 -0.3958
  186DOPC   H8Y22939   2.863   2.533   4.115  0.2247 -1.8393 -2.3067
  186DOPC   C3922940   2.661   2.575   4.045  0.0510 -0.0742  0.6778
  186DOPC   H9X22941   2.592   2.642   3.991  1.1912 -1.2515 -2.4532
  186DOPC  C31022942   2.589   2.479   4.110 -0.6110  0.1081  0.9045
  186DOPC  H10X22943   2.484   2.506   4.128 -0.2959  1.4445  0.8043
  186DOPC  C31122944   2.645   2.359   4.186 -0.7056 -0.5003  1.0930
  186DOPC  H11X22945   2.753   2.370   4.208 -0.9421 -0.2930  2.2338
  186DOPC  H11Y22946   2.629   2.263   4.134  0.4649  0.4005 -1.0514
  186DOPC  C31222947   2.572   2.350   4.322  0.0773  0.5100 -0.3696
  186DOPC  H12X22948   2.461   2.348   4.319 -0.1203  1.8426  2.5850
  186DOPC  H12Y22949   2.596   2.450   4.363 -0.9670  0.6166  0.0272
  186DOPC  C31322950   2.625   2.232   4.410 -0.1806  0.1662  0.4487
  186DOPC  H13X22951   2.577   2.150   4.352 -1.5966  0.3387  1.3361
  186DOPC  H13Y22952   2.736   2.226   4.416 -0.3344 -3.3317  1.5352
  186DOPC  C31422953   2.560   2.216   4.551  0.3159 -0.0285 -0.2165
  186DOPC  H14X22954   2.451   2.238   4.548  0.3226 -0.0820 -1.0730
  186DOPC  H14Y22955   2.575   2.112   4.587  0.2526 -0.2546 -0.8218
  186DOPC  C31522956   2.613   2.315   4.654 -0.3996  0.2327  0.1262
  186DOPC  H15X22957   2.538   2.313   4.736  0.4016  2.1261  0.9698
  186DOPC  H15Y22958   2.615   2.420   4.616  4.7468  0.9059  1.4818
  186DOPC  C31622959   2.752   2.296   4.706 -0.3952  0.3580  0.4096
  186DOPC  H16X22960   2.825   2.280   4.623  2.5757 -1.5699  3.1713
  186DOPC  H16Y22961   2.789   2.394   4.744  3.1139 -0.2417 -0.9903
  186DOPC  C31722962   2.773   2.180   4.806  0.9932 -0.4655  0.4641
  186DOPC  H17X22963   2.729   2.085   4.768  1.2784 -0.2388 -0.4676
  186DOPC  H17Y22964   2.882   2.158   4.802  1.3052  0.9373  0.7669
  186DOPC  C31822965   2.735   2.192   4.949 -0.1656  0.4499  0.1636
  186DOPC  H18X22966   2.768   2.106   5.011 -0.7689  0.7537  0.9217
  186DOPC  H18Y22967   2.774   2.285   4.996  2.1214 -0.0210 -0.6626
  186DOPC  H18Z22968   2.625   2.183   4.962 -0.2009  0.5494 -0.0652
  187DOPC     N22969   0.480   6.989   2.960  0.2016 -0.8262  0.2225
  187DOPC   C1222970   0.575   7.012   3.076 -0.0002 -0.6807 -0.2123
  187DOPC  H12A22971   0.679   7.019   3.047  0.1601  2.6530  0.7726
  187DOPC  H12B22972   0.566   6.943   3.158  1.3801  1.1137  1.5576
  187DOPC   C1322973   0.461   7.111   2.878 -0.5564  0.1870  0.6857
  187DOPC  H13A22974   0.429   7.197   2.935 -0.6717  1.3958 -1.1052
  187DOPC  H13B22975   0.543   7.141   2.814 -0.6650  2.0347  1.3325
  187DOPC  H13C22976   0.385   7.085   2.805 -0.3091  1.2932  0.0073
  187DOPC   C1422977   0.354   6.943   3.027  0.3154  0.0955  0.3686
  187DOPC  H14A22978   0.324   7.027   3.088 -3.5037 -1.8300  1.4708
  187DOPC  H14B22979   0.276   6.923   2.955 -0.3900  2.5079  0.3598
  187DOPC  H14C22980   0.384   6.861   3.091  0.3147 -0.2890 -0.1262
  187DOPC   C1522981   0.528   6.877   2.872  0.0172  0.1037  0.2480
  187DOPC  H15A22982   0.540   6.784   2.927  0.6266 -0.4378 -0.7708
  187DOPC  H15B22983   0.618   6.905   2.820 -0.6096  0.1746 -0.8417
  187DOPC  H15C22984   0.460   6.854   2.791  0.2177 -1.3995  0.4822
  187DOPC   C1122985   0.554   7.146   3.154 -0.1501 -0.0846 -0.1244
  187DOPC  H11A22986   0.450   7.137   3.193 -0.1981 -1.2642 -0.4613
  187DOPC  H11B22987   0.624   7.144   3.240  0.4353  0.2834 -0.5884
  187DOPC     P22988   0.499   7.396   3.096  0.2400 -0.2752 -0.3889
  187DOPC   O1322989   0.375   7.390   3.011  0.2366 -0.2562 -0.2755
  187DOPC   O1422990   0.593   7.506   3.068  0.1338  0.4269  0.3969
  187DOPC   O1222991   0.581   7.259   3.072 -0.2871  0.1483 -0.0801
  187DOPC   O1122992   0.470   7.400   3.257 -0.1850 -0.3860  0.2490
  187DOPC    C122993   0.586   7.446   3.338  0.2516  0.1319  0.0271
  187DOPC    HA22994   0.681   7.430   3.282  0.4081 -3.6626  1.1104
  187DOPC    HB22995   0.599   7.371   3.419 -1.0004 -1.0081 -0.8012
  187DOPC    C222996   0.566   7.585   3.400 -0.3982 -0.0259 -0.5926
  187DOPC    HS22997   0.581   7.653   3.313 -1.8246  2.0987  0.7125
  187DOPC   O2122998   0.657   7.596   3.503 -0.9694  0.0534 -0.3011
  187DOPC   C2122999   0.703   7.721   3.526  0.0305  0.8558  0.3701
  187DOPC   O2223000   0.686   7.811   3.449 -0.5465 -0.1480 -0.4309
  187DOPC   C2223001   0.788   7.711   3.653 -0.1477  0.3082 -0.4064
  187DOPC   H2R23002   0.884   7.766   3.640  0.1959 -0.8320 -3.4776
  187DOPC   H2S23003   0.828   7.610   3.678  1.4983  1.1872  0.7330
  187DOPC    C323004   0.426   7.600   3.451  0.2565  0.3330 -0.5247
  187DOPC    HX23005   0.406   7.509   3.512  0.5267  1.5112  1.3851
  187DOPC    HY23006   0.352   7.595   3.368  0.5429 -0.7827 -0.7292
  187DOPC   O3123007   0.401   7.707   3.540  0.7367  0.0272 -0.2418
  187DOPC   C3123008   0.385   7.821   3.474 -0.0649  0.0419 -0.0527
  187DOPC   O3223009   0.367   7.824   3.354 -0.1251 -0.0431  0.9683
  187DOPC   C3223010   0.380   7.943   3.568 -0.3503  0.9909  0.8625
  187DOPC   H2X23011   0.474   7.929   3.627  0.5476  0.3683 -0.6545
  187DOPC   H2Y23012   0.375   8.037   3.509  1.2676  0.3049 -0.4554
  187DOPC   C2323013   0.710   7.756   3.777 -0.6043  0.4671  0.4424
  187DOPC   H3R23014   0.653   7.848   3.752 -1.1762 -0.5465 -2.3492
  187DOPC   H3S23015   0.781   7.778   3.860 -0.5444  0.6751  0.3363
  187DOPC   C2423016   0.617   7.642   3.827 -0.5627 -0.1764  0.3241
  187DOPC   H4R23017   0.672   7.554   3.867  0.6557  0.3853 -0.0762
  187DOPC   H4S23018   0.557   7.602   3.742  1.2484  0.0603 -1.1166
  187DOPC   C2523019   0.518   7.690   3.935 -0.1706  0.5117 -0.9190
  187DOPC   H5R23020   0.462   7.602   3.974  0.0186  0.5725 -0.5025
  187DOPC   H5S23021   0.443   7.756   3.886 -2.2164 -1.1943 -0.2789
  187DOPC   C2623022   0.576   7.752   4.067  0.0126  0.1966 -0.1693
  187DOPC   H6R23023   0.640   7.841   4.048  0.2015  0.1458  0.2116
  187DOPC   H6S23024   0.629   7.671   4.122 -0.1696  0.0257 -0.2415
  187DOPC   C2723025   0.468   7.802   4.162 -0.0799 -0.6585 -1.2051
  187DOPC   H7R23026   0.425   7.710   4.206  2.6227 -0.2872  2.6458
  187DOPC   H7S23027   0.393   7.862   4.105  0.4029 -0.8938 -2.1152
  187DOPC   C2823028   0.531   7.876   4.288 -0.4713 -0.2912  1.2678
  187DOPC   H8R23029   0.461   7.942   4.343  1.8231  3.6596 -0.1037
  187DOPC   H8S23030   0.604   7.944   4.239 -1.0238 -0.7068 -0.1936
  187DOPC   C2923031   0.600   7.778   4.379  0.5275  0.2059 -0.1002
  187DOPC   H9R23032   0.662   7.702   4.329  0.8280  1.3508 -1.5592
  187DOPC  C21023033   0.570   7.766   4.506 -0.1662  0.8564  0.5229
  187DOPC  H10R23034   0.614   7.690   4.572 -0.9694 -0.2674 -0.1916
  187DOPC  C21123035   0.479   7.853   4.593  0.1469 -0.1197 -0.2356
  187DOPC  H11R23036   0.373   7.820   4.576 -0.2587  0.8053  0.4592
  187DOPC  H11S23037   0.471   7.961   4.570 -2.3554  0.2699  1.9949
  187DOPC  C21223038   0.525   7.832   4.739  0.3129 -0.0373 -1.1636
  187DOPC  H12R23039   0.635   7.816   4.744  0.1815 -0.4193  1.8479
  187DOPC  H12S23040   0.484   7.733   4.769  0.4277 -0.0086 -0.9095
  187DOPC  C21323041   0.478   7.938   4.841 -0.4238 -0.0866 -0.3926
  187DOPC  H13R23042   0.526   8.033   4.809 -0.4795  0.6006  1.4263
  187DOPC  H13S23043   0.531   7.923   4.938  1.3363  0.7751 -1.1814
  187DOPC  C21423044   0.326   7.941   4.857 -0.2431 -0.5659  0.3844
  187DOPC  H14R23045   0.298   7.849   4.913 -0.1532 -0.7784  0.0761
  187DOPC  H14S23046   0.270   7.950   4.761  0.2087  0.8571  0.2267
  187DOPC  C21523047   0.280   8.068   4.944  0.2968 -0.0143  0.2817
  187DOPC  H15R23048   0.316   8.163   4.899  0.0563 -0.1095 -0.1159
  187DOPC  H15S23049   0.309   8.059   5.051  0.6375  2.5033  0.4701
  187DOPC  C21623050   0.124   8.085   4.953 -0.7354 -0.3859  0.0490
  187DOPC  H16R23051   0.080   7.987   4.979 -0.5022 -0.2432  1.0037
  187DOPC  H16S23052   0.092   8.104   4.848  3.3479 -2.1885 -1.7504
  187DOPC  C21723053   0.084   8.201   5.042 -0.4646  0.3085 -0.0652
  187DOPC  H17R23054  -0.021   8.219   5.009 -0.3224  0.0637 -0.6441
  187DOPC  H17S23055   0.143   8.290   5.011  0.3187 -0.6010 -1.2686
  187DOPC  C21823056   0.075   8.166   5.194 -0.2841 -0.3113  0.9913
  187DOPC  H18R23057   0.015   8.072   5.201 -0.8775  0.0697  1.1149
  187DOPC  H18S23058   0.017   8.246   5.245 -0.2269  0.0185  0.5456
  187DOPC  H18T23059   0.178   8.159   5.233  1.3469 -0.2513 -2.7980
  187DOPC   C3323060   0.254   7.940   3.658  0.2752  0.0319  0.0203
  187DOPC   H3X23061   0.216   7.837   3.675 -0.2805  0.5487  2.1968
  187DOPC   H3Y23062   0.164   7.985   3.612  1.7533  1.7496 -1.3396
  187DOPC   C3423063   0.289   8.011   3.792  0.2162  0.5315 -0.3313
  187DOPC   H4X23064   0.294   8.121   3.780  1.1103  0.4484 -0.7965
  187DOPC   H4Y23065   0.387   7.979   3.835 -0.4778 -1.8247 -0.3852
  187DOPC   C3523066   0.188   7.978   3.901  0.1262 -0.7639 -0.0072
  187DOPC   H5X23067   0.232   8.002   4.000 -2.0343 -1.7249  1.2653
  187DOPC   H5Y23068   0.163   7.871   3.918 -0.2674 -0.4662  1.4818
  187DOPC   C3623069   0.067   8.059   3.894  0.5425 -0.5647 -0.5280
  187DOPC   H6X23070   0.100   8.163   3.878  2.4011 -0.8191  1.2827
  187DOPC   H6Y23071  -0.001   8.032   3.810  0.6757  1.1214 -1.2198
  187DOPC   C3723072  -0.016   8.055   4.027  0.6309  0.6410 -0.2791
  187DOPC   H7X23073  -0.021   7.948   4.059 -2.1908  0.6903 -0.3274
  187DOPC   H7Y23074   0.041   8.103   4.108 -1.3878 -0.6523  2.0561
  187DOPC   C3823075  -0.155   8.111   4.019  1.1625 -0.5119  0.1521
  187DOPC   H8X23076  -0.212   8.109   4.115  2.1885 -2.4362  0.7828
  187DOPC   H8Y23077  -0.211   8.035   3.960  0.1037 -0.9336  1.6182
  187DOPC   C3923078  -0.156   8.250   3.960 -0.5468  0.4518 -1.0267
  187DOPC   H9X23079  -0.095   8.323   4.015  0.1239 -0.0875 -1.0489
  187DOPC  C31023080  -0.224   8.295   3.849 -0.0840  0.4467 -0.5510
  187DOPC  H10X23081  -0.213   8.396   3.809  2.9311 -0.4405 -2.2893
  187DOPC  C31123082  -0.320   8.208   3.773 -0.2762  0.0901 -0.9679
  187DOPC  H11X23083  -0.329   8.104   3.809  0.6311 -0.3884 -2.0636
  187DOPC  H11Y23084  -0.271   8.182   3.677 -0.3427 -2.8244 -0.2808
  187DOPC  C31223085  -0.452   8.272   3.757  0.2006  0.3364 -0.1261
  187DOPC  H12X23086  -0.507   8.237   3.667 -1.0858  2.5599 -0.2891
  187DOPC  H12Y23087  -0.442   8.380   3.733 -0.1874  0.2188 -0.8275
  187DOPC  C31323088  -0.546   8.272   3.880 -0.8881  0.1803  0.4317
  187DOPC  H13X23089  -0.569   8.169   3.915  2.0210 -0.0024  2.1113
  187DOPC  H13Y23090  -0.490   8.318   3.964  1.9182  0.2143 -1.3515
  187DOPC  C31423091  -0.679   8.354   3.850 -0.2338 -0.3914 -0.7697
  187DOPC  H14X23092  -0.659   8.436   3.778  0.4925 -0.7513 -0.9869
  187DOPC  H14Y23093  -0.731   8.268   3.802  0.0481 -0.3271 -1.1903
  187DOPC  C31523094  -0.762   8.383   3.975 -0.2218 -0.2435 -0.0783
  187DOPC  H15X23095  -0.754   8.301   4.049  0.2370 -1.3532 -1.3305
  187DOPC  H15Y23096  -0.869   8.388   3.943 -0.0407 -0.4113 -0.7185
  187DOPC  C31623097  -0.721   8.521   4.030 -0.5984 -0.0084  0.2099
  187DOPC  H16X23098  -0.614   8.513   4.058  0.1642  0.0072 -2.4154
  187DOPC  H16Y23099  -0.733   8.597   3.949 -2.2952 -0.7962 -0.3458
  187DOPC  C31723100  -0.803   8.560   4.147 -0.5649  0.0352  0.2250
  187DOPC  H17X23101  -0.785   8.662   4.186  0.3764  0.3333 -0.9145
  187DOPC  H17Y23102  -0.913   8.560   4.129 -0.4038 -0.5374 -0.8712
  187DOPC  C31823103  -0.786   8.465   4.268  0.1021  0.0055  0.7407
  187DOPC  H18X23104  -0.832   8.516   4.356 -0.9907  1.0997 -0.4193
  187DOPC  H18Y23105  -0.840   8.370   4.249 -0.0332 -0.5022  3.2577
  187DOPC  H18Z23106  -0.681   8.440   4.290  0.1616 -0.8543 -0.4481
  188DOPC     N23107   1.949   1.078   2.448 -0.1895  0.2894 -0.2658
  188DOPC   C1223108   1.960   1.136   2.592  0.3683  1.4301 -0.0539
  188DOPC  H12A23109   1.862   1.146   2.636 -0.1589 -3.6896  0.5124
  188DOPC  H12B23110   2.005   1.234   2.583  0.4686  1.3356 -0.6423
  188DOPC   C1323111   1.876   0.951   2.445 -0.1260  0.5441  0.4960
  188DOPC  H13A23112   1.934   0.878   2.499  0.1078  1.8351  2.0783
  188DOPC  H13B23113   1.780   0.956   2.493 -0.5020 -1.2097 -0.0227
  188DOPC  H13C23114   1.865   0.921   2.342 -0.6977 -1.2429  1.0496
  188DOPC   C1423115   2.082   1.048   2.386  0.8887  0.4807 -0.5187
  188DOPC  H14A23116   2.082   1.004   2.287 -0.3206 -0.7961  0.0240
  188DOPC  H14B23117   2.133   1.142   2.372 -0.9466  1.3818 -1.4131
  188DOPC  H14C23118   2.147   0.989   2.449  0.0048  0.2549  0.2039
  188DOPC   C1523119   1.889   1.185   2.364  0.6975  0.2529  0.0846
  188DOPC  H15A23120   1.920   1.285   2.389 -2.0508  1.0738  0.5551
  188DOPC  H15B23121   1.781   1.179   2.371  0.6937 -4.4663 -0.6538
  188DOPC  H15C23122   1.913   1.155   2.263 -3.6654 -1.9827 -0.5428
  188DOPC   C1123123   2.052   1.062   2.687  0.1412 -0.6023  0.2001
  188DOPC  H11A23124   2.042   1.088   2.795 -0.2646  1.4069 -0.2871
  188DOPC  H11B23125   2.017   0.956   2.680 -1.1380 -0.1408 -0.7756
  188DOPC     P23126   2.267   1.193   2.693 -0.3682 -0.0341 -0.2617
  188DOPC   O1323127   2.192   1.320   2.652  0.1513  0.3277  0.2974
  188DOPC   O1423128   2.402   1.174   2.638  0.2222  0.3912 -0.5902
  188DOPC   O1223129   2.188   1.073   2.651 -0.0520  0.3303 -0.2791
  188DOPC   O1123130   2.263   1.184   2.850  0.1701 -0.9731 -0.2140
  188DOPC    C123131   2.339   1.077   2.908  0.0827 -0.5967 -0.1401
  188DOPC    HA23132   2.447   1.085   2.882 -0.3782  0.4433 -1.9098
  188DOPC    HB23133   2.303   0.980   2.870 -0.1260 -0.3947 -0.4577
  188DOPC    C223134   2.332   1.079   3.064  0.5115  0.3811 -0.7928
  188DOPC    HS23135   2.365   0.989   3.120 -2.3150  0.7122  1.6476
  188DOPC   O2123136   2.197   1.113   3.104  0.8590  0.4933  0.2250
  188DOPC   C2123137   2.114   1.014   3.096  0.4490  0.4530 -0.8899
  188DOPC   O2223138   2.143   0.903   3.051 -0.2733 -0.5191  0.6308
  188DOPC   C2223139   1.975   1.045   3.148 -0.4341  0.2624 -0.1067
  188DOPC   H2R23140   1.897   1.010   3.078 -1.1108  0.9446  0.2869
  188DOPC   H2S23141   1.949   1.151   3.168  1.2251  0.8903 -1.0903
  188DOPC    C323142   2.426   1.189   3.126 -0.4333 -0.1369  0.0389
  188DOPC    HX23143   2.391   1.291   3.096 -0.6073  0.1494  1.1840
  188DOPC    HY23144   2.525   1.169   3.078 -2.0629 -3.8480 -2.1889
  188DOPC   O3123145   2.435   1.183   3.272  0.1271  0.2814  0.8427
  188DOPC   C3123146   2.364   1.273   3.334  0.5280  0.2579  0.4270
  188DOPC   O3223147   2.272   1.341   3.291  0.3421 -0.2151 -0.2348
  188DOPC   C3223148   2.422   1.294   3.477  0.1054  0.5988  0.3897
  188DOPC   H2X23149   2.421   1.192   3.521  0.2886  1.1321  1.6583
  188DOPC   H2Y23150   2.525   1.331   3.460 -0.5991  2.6528  0.4024
  188DOPC   C2323151   1.962   0.978   3.283 -1.0013  0.1411 -0.1318
  188DOPC   H3R23152   1.982   0.869   3.273  1.5388  0.3861  1.6317
  188DOPC   H3S23153   1.853   0.990   3.304 -0.7992  0.6024  0.6763
  188DOPC   C2423154   2.044   1.032   3.403 -0.5390  0.2452 -0.0436
  188DOPC   H4R23155   2.035   1.142   3.405  1.4528  0.4253  1.1549
  188DOPC   H4S23156   2.151   1.008   3.384 -0.5392 -1.1671  1.4882
  188DOPC   C2523157   1.996   0.963   3.533 -0.5737  0.1411  0.3084
  188DOPC   H5R23158   1.979   0.854   3.516  2.0100 -0.0347 -1.6635
  188DOPC   H5S23159   1.897   1.008   3.558 -0.5918  0.2443  0.0444
  188DOPC   C2623160   2.092   0.990   3.647 -0.4736 -0.1185  0.1525
  188DOPC   H6R23161   2.119   1.098   3.640 -1.7795  0.1725 -0.8715
  188DOPC   H6S23162   2.185   0.930   3.644  0.1590  0.8544 -0.0789
  188DOPC   C2723163   2.032   0.983   3.786  0.2576 -0.3782 -0.1240
  188DOPC   H7R23164   1.967   0.892   3.790 -0.4124  0.0087 -1.5080
  188DOPC   H7S23165   1.963   1.065   3.814  1.0506 -0.5973  2.7031
  188DOPC   C2823166   2.145   0.989   3.881  0.1132  0.1055  0.0077
  188DOPC   H8R23167   2.209   1.077   3.861  0.7684 -0.4028 -0.1623
  188DOPC   H8S23168   2.220   0.908   3.866 -1.1896 -1.3724  1.1159
  188DOPC   C2923169   2.103   0.972   4.027 -0.1641  0.6157 -0.1212
  188DOPC   H9R23170   2.099   1.066   4.084 -1.4393  0.9682 -0.7607
  188DOPC  C21023171   2.093   0.851   4.093 -0.1907  0.3650  0.5206
  188DOPC  H10R23172   2.064   0.856   4.199 -0.2778  0.2628  0.5026
  188DOPC  C21123173   2.119   0.710   4.039  0.6063 -0.0442 -0.4552
  188DOPC  H11R23174   2.111   0.715   3.928  1.7568 -1.8454 -0.6764
  188DOPC  H11S23175   2.039   0.638   4.067  0.0677  0.0650 -1.6389
  188DOPC  C21223176   2.264   0.666   4.062 -1.0003  0.4535 -0.3183
  188DOPC  H12R23177   2.331   0.754   4.051  1.5355 -1.1806  1.1336
  188DOPC  H12S23178   2.301   0.581   4.000  0.6401  0.5157  0.5183
  188DOPC  C21323179   2.282   0.612   4.206 -0.4113 -0.9888  0.2381
  188DOPC  H13R23180   2.241   0.686   4.278 -0.9945 -2.0672  1.0390
  188DOPC  H13S23181   2.390   0.610   4.229  0.2885  0.1656 -2.5020
  188DOPC  C21423182   2.236   0.468   4.230 -0.0525 -0.2179 -0.2926
  188DOPC  H14R23183   2.231   0.409   4.136 -0.5892 -2.1815  0.9117
  188DOPC  H14S23184   2.127   0.450   4.242  0.2439 -2.3855 -0.3120
  188DOPC  C21523185   2.305   0.395   4.352  0.0478 -0.0496 -0.8336
  188DOPC  H15R23186   2.329   0.455   4.443  0.1082  0.3776 -1.1317
  188DOPC  H15S23187   2.400   0.347   4.321  0.7487 -0.9565  2.3017
  188DOPC  C21623188   2.219   0.278   4.408  0.0449  0.0316  0.3387
  188DOPC  H16R23189   2.201   0.196   4.335  1.7064 -0.8875  0.9041
  188DOPC  H16S23190   2.117   0.315   4.434  0.1942  0.7563 -0.0860
  188DOPC  C21723191   2.278   0.201   4.523 -0.8014  0.0263 -0.2030
  188DOPC  H17R23192   2.320   0.279   4.591  0.6151 -1.6505  0.9281
  188DOPC  H17S23193   2.363   0.138   4.491 -0.7035 -0.1731  0.4242
  188DOPC  C21823194   2.182   0.109   4.605 -0.1798  0.2211  0.2288
  188DOPC  H18R23195   2.235   0.058   4.689 -2.4259 -1.0470  0.9772
  188DOPC  H18S23196   2.131   0.030   4.545  1.1543 -1.6887  1.4642
  188DOPC  H18T23197   2.103   0.174   4.647  0.7335  1.6473 -0.1982
  188DOPC   C3323198   2.348   1.378   3.579 -0.5457  0.1653 -0.1933
  188DOPC   H3X23199   2.245   1.382   3.537 -2.0776 -1.2779  3.0850
  188DOPC   H3Y23200   2.384   1.481   3.600 -1.3452  0.2221  0.9752
  188DOPC   C3423201   2.343   1.314   3.714  0.2308  0.2425  0.4682
  188DOPC   H4X23202   2.318   1.207   3.702  2.5761 -0.2718 -0.3228
  188DOPC   H4Y23203   2.252   1.363   3.756  0.4906  0.8229  0.3650
  188DOPC   C3523204   2.466   1.351   3.795  0.5856  0.8214 -0.7665
  188DOPC   H5X23205   2.477   1.462   3.797 -0.9240  0.9775 -0.3747
  188DOPC   H5Y23206   2.552   1.304   3.742 -0.1599 -0.9048 -0.4978
  188DOPC   C3623207   2.448   1.300   3.937 -0.1610 -0.1088 -0.2161
  188DOPC   H6X23208   2.445   1.189   3.935  2.3263 -0.3656  2.9916
  188DOPC   H6Y23209   2.537   1.336   3.993 -0.5821  1.5475 -0.5627
  188DOPC   C3723210   2.323   1.350   4.012 -0.1206 -0.1206 -0.0486
  188DOPC   H7X23211   2.307   1.459   3.997  0.5557 -0.0490 -0.2761
  188DOPC   H7Y23212   2.235   1.302   3.966  0.2063 -1.1996  0.4244
  188DOPC   C3823213   2.336   1.327   4.163 -0.8673  0.5698 -0.0612
  188DOPC   H8X23214   2.242   1.360   4.213 -1.0738  0.7579 -0.5676
  188DOPC   H8Y23215   2.421   1.387   4.202 -0.2107  0.1533 -0.8346
  188DOPC   C3923216   2.359   1.178   4.210  0.1570  0.0587 -0.2532
  188DOPC   H9X23217   2.459   1.132   4.203 -0.4364 -1.3901  0.4348
  188DOPC  C31023218   2.287   1.104   4.292  0.2675 -0.1225 -0.5156
  188DOPC  H10X23219   2.301   0.995   4.300  2.7991  0.1940  0.2028
  188DOPC  C31123220   2.160   1.154   4.358 -0.3691 -0.5313 -0.1943
  188DOPC  H11X23221   2.073   1.159   4.289  2.1684  0.1188 -3.5622
  188DOPC  H11Y23222   2.182   1.250   4.410 -1.3776 -1.3772  1.9481
  188DOPC  C31223223   2.136   1.055   4.477 -0.6092 -0.4231  0.2520
  188DOPC  H12X23224   2.145   0.953   4.433 -0.0644 -0.2466 -0.0469
  188DOPC  H12Y23225   2.041   1.061   4.534  1.5625  0.1780  4.1753
  188DOPC  C31323226   2.252   1.054   4.577  0.8073  0.8891 -0.1095
  188DOPC  H13X23227   2.350   1.016   4.541  1.5094  1.9635  0.6308
  188DOPC  H13Y23228   2.264   1.158   4.613 -0.3363  0.8887  0.3139
  188DOPC  C31423229   2.211   0.978   4.707  0.3007  0.2789  0.1195
  188DOPC  H14X23230   2.108   0.994   4.747  0.3470 -0.0810  0.3976
  188DOPC  H14Y23231   2.228   0.872   4.678  3.5110  0.8746 -0.5639
  188DOPC  C31523232   2.307   1.025   4.820  0.1009 -0.3716  0.0191
  188DOPC  H15X23233   2.278   0.970   4.912  0.7668 -0.3223  0.2619
  188DOPC  H15Y23234   2.302   1.136   4.830  1.5892 -0.2779 -0.0876
  188DOPC  C31623235   2.458   0.987   4.793 -0.3965  0.0567 -0.0842
  188DOPC  H16X23236   2.491   1.025   4.694  0.8360 -1.4833 -0.3078
  188DOPC  H16Y23237   2.512   1.034   4.878 -2.2406  1.1344  0.5499
  188DOPC  C31723238   2.479   0.833   4.784 -0.4598  0.0024  0.1866
  188DOPC  H17X23239   2.414   0.786   4.707 -2.4577 -1.1235  2.4214
  188DOPC  H17Y23240   2.584   0.817   4.752 -0.7772 -1.2551 -0.2726
  188DOPC  C31823241   2.447   0.766   4.916 -0.6872  0.1942 -0.1692
  188DOPC  H18X23242   2.512   0.676   4.914  0.9001  1.2885 -3.2484
  188DOPC  H18Y23243   2.479   0.833   4.999 -1.3601 -0.9670  1.0710
  188DOPC  H18Z23244   2.339   0.739   4.918 -1.2601  2.2173 -1.2194
  189DOPC     N23245   5.136   0.303   2.712 -0.3934 -0.3439 -0.2484
  189DOPC   C1223246   5.174   0.179   2.787  0.0344 -0.4025  0.8759
  189DOPC  H12A23247   5.280   0.177   2.803 -0.0663 -0.3140  1.5784
  189DOPC  H12B23248   5.148   0.096   2.723 -0.2980  1.4454 -1.5297
  189DOPC   C1323249   5.204   0.415   2.786 -0.3545  0.9208  0.3723
  189DOPC  H13A23250   5.163   0.509   2.750 -1.2916  0.0910 -0.8083
  189DOPC  H13B23251   5.192   0.400   2.893  0.8126  0.2161  0.4178
  189DOPC  H13C23252   5.311   0.417   2.775 -0.4182  3.5121 -0.3842
  189DOPC   C1423253   4.989   0.328   2.718 -0.1931 -0.5437  0.9120
  189DOPC  H14A23254   4.943   0.268   2.641  0.9888 -1.7950  1.1477
  189DOPC  H14B23255   4.945   0.293   2.811  0.2512 -0.2086  1.2500
  189DOPC  H14C23256   4.965   0.430   2.694  0.3502 -0.7643 -0.6731
  189DOPC   C1523257   5.196   0.294   2.571  0.3211  0.1273 -0.8605
  189DOPC  H15A23258   5.204   0.393   2.529 -0.5207  1.9950  2.9360
  189DOPC  H15B23259   5.139   0.229   2.506  2.9904 -1.3565 -1.9252
  189DOPC  H15C23260   5.297   0.255   2.573  0.6402  0.9570  0.0204
  189DOPC   C1123261   5.123   0.156   2.934 -0.4106  0.5004  0.1665
  189DOPC  H11A23262   5.170   0.064   2.974  0.6527 -0.2524 -2.5443
  189DOPC  H11B23263   5.150   0.238   3.004 -0.4797 -2.1690  3.5506
  189DOPC     P23264   4.903   0.020   2.902 -0.2513  0.1422  0.4292
  189DOPC   O1323265   4.963  -0.053   2.788 -0.0431  0.1648  0.4627
  189DOPC   O1423266   4.763   0.053   2.881  0.2364 -0.6436 -0.4466
  189DOPC   O1223267   4.981   0.152   2.942  0.0733 -0.3299 -0.0642
  189DOPC   O1123268   4.927  -0.070   3.030  0.3777  0.4427  0.5142
  189DOPC    C123269   4.824  -0.069   3.131  0.3056 -0.0160 -0.0858
  189DOPC    HA23270   4.806  -0.170   3.175 -1.4619  0.5814  0.6489
  189DOPC    HB23271   4.724  -0.040   3.093  1.1899  2.4479 -0.7150
  189DOPC    C223272   4.854   0.025   3.248 -0.6549  0.3301  0.1631
  189DOPC    HS23273   4.834   0.129   3.214 -2.5541  0.3580  1.2318
  189DOPC   O2123274   4.997   0.007   3.287  0.3497  0.0350 -0.0128
  189DOPC   C2123275   5.061   0.116   3.310 -0.4876 -0.1122  0.4888
  189DOPC   O2223276   5.015   0.228   3.304  0.4840 -0.2159  0.7430
  189DOPC   C2223277   5.202   0.077   3.364  0.3505 -0.2395 -0.4539
  189DOPC   H2R23278   5.269   0.112   3.283  0.6710 -0.2858 -0.2103
  189DOPC   H2S23279   5.204  -0.033   3.379 -0.7802 -0.1503  0.4843
  189DOPC    C323280   4.753  -0.004   3.364  0.4136  1.0293  0.6661
  189DOPC    HX23281   4.769  -0.111   3.387  1.3187  0.4655 -2.2203
  189DOPC    HY23282   4.649   0.008   3.327  0.2928 -1.1052  0.2327
  189DOPC   O3123283   4.772   0.076   3.483  0.1200 -0.6057 -0.8339
  189DOPC   C3123284   4.721   0.198   3.480  0.7052  0.2257 -0.5446
  189DOPC   O3223285   4.641   0.237   3.397 -0.0601  0.0309 -0.3785
  189DOPC   C3223286   4.786   0.291   3.588 -0.4388 -0.3418 -0.3086
  189DOPC   H2X23287   4.895   0.289   3.565 -0.6042 -1.9864 -1.0586
  189DOPC   H2Y23288   4.741   0.391   3.574 -2.5398 -1.4891 -2.2215
  189DOPC   C2323289   5.236   0.148   3.491  0.4411 -0.7064 -0.4533
  189DOPC   H3R23290   5.212   0.255   3.474 -0.6621 -0.9987 -0.8297
  189DOPC   H3S23291   5.344   0.133   3.509  0.2991 -0.3358  0.7630
  189DOPC   C2423292   5.146   0.102   3.611  0.0397  0.5416  0.2559
  189DOPC   H4R23293   5.169  -0.006   3.629  0.9886  0.2854 -2.0895
  189DOPC   H4S23294   5.040   0.113   3.582  0.4454 -0.2951 -1.7394
  189DOPC   C2523295   5.158   0.186   3.745  0.0261 -0.1540  1.1381
  189DOPC   H5R23296   5.101   0.281   3.738 -2.4609 -1.6095 -0.0334
  189DOPC   H5S23297   5.267   0.196   3.759  0.6071 -1.3925 -1.7961
  189DOPC   C2623298   5.098   0.100   3.859  0.3909  0.5518 -0.4807
  189DOPC   H6R23299   5.147   0.001   3.868 -0.4512  0.0882 -0.9236
  189DOPC   H6S23300   4.994   0.073   3.830  1.2319 -0.6575 -2.5266
  189DOPC   C2723301   5.093   0.174   3.999 -0.6825 -0.1479  0.2932
  189DOPC   H7R23302   5.029   0.257   3.961 -2.4839 -1.8846 -0.6672
  189DOPC   H7S23303   5.199   0.205   4.014 -0.5615  0.9961 -2.2909
  189DOPC   C2823304   5.036   0.093   4.110 -0.5546 -0.2771  0.5247
  189DOPC   H8R23305   5.101   0.004   4.125 -1.3747 -0.8322  0.9001
  189DOPC   H8S23306   4.938   0.045   4.085  0.2190 -0.5062 -2.4543
  189DOPC   C2923307   5.041   0.165   4.241  0.1850  0.1037  0.1432
  189DOPC   H9R23308   5.111   0.120   4.314  2.3866  0.5944 -1.5651
  189DOPC  C21023309   4.954   0.251   4.295 -0.0257  0.6097 -1.1235
  189DOPC  H10R23310   4.963   0.278   4.401  1.2683  2.9938 -1.7849
  189DOPC  C21123311   4.830   0.301   4.234  0.0079  0.3462  0.1985
  189DOPC  H11R23312   4.745   0.231   4.250 -0.4052  0.8026  0.0044
  189DOPC  H11S23313   4.846   0.321   4.126  0.6303 -0.6732  0.0825
  189DOPC  C21223314   4.791   0.438   4.290 -0.3923  0.5458  0.7433
  189DOPC  H12R23315   4.712   0.480   4.224  0.3488 -1.4169 -1.5546
  189DOPC  H12S23316   4.881   0.503   4.279  1.2786 -1.3298  2.4901
  189DOPC  C21323317   4.737   0.441   4.437  0.5503 -0.2420  0.7053
  189DOPC  H13R23318   4.705   0.544   4.462 -4.1739 -1.3990  0.4246
  189DOPC  H13S23319   4.817   0.419   4.512  1.8965  0.3194 -0.5131
  189DOPC  C21423320   4.620   0.341   4.455  0.7214  0.6019  0.2450
  189DOPC  H14R23321   4.655   0.238   4.436 -0.6330 -0.1325  1.5127
  189DOPC  H14S23322   4.533   0.362   4.389 -0.6982 -2.6131  0.9056
  189DOPC  C21523323   4.566   0.356   4.601  0.1826  0.3279  0.2328
  189DOPC  H15R23324   4.644   0.329   4.675  0.1721  1.6387  0.7447
  189DOPC  H15S23325   4.490   0.276   4.612  1.1748 -0.5440  0.9941
  189DOPC  C21623326   4.510   0.485   4.637 -0.2955 -0.0579 -0.2565
  189DOPC  H16R23327   4.427   0.506   4.567 -1.3877 -1.9617  0.3833
  189DOPC  H16S23328   4.592   0.555   4.610  2.6381 -2.4795  1.6695
  189DOPC  C21723329   4.469   0.496   4.790  0.1851  0.1900  0.6657
  189DOPC  H17R23330   4.436   0.601   4.800  0.0134  0.1574  0.4408
  189DOPC  H17S23331   4.570   0.492   4.838 -0.6007 -1.0323  2.3355
  189DOPC  C21823332   4.369   0.390   4.844  0.2761 -0.4795 -0.3912
  189DOPC  H18R23333   4.335   0.422   4.945  1.2013  2.5058 -0.9150
  189DOPC  H18S23334   4.400   0.284   4.851 -0.7941 -0.7651  0.2711
  189DOPC  H18T23335   4.274   0.390   4.786 -0.4608  1.2790  0.7412
  189DOPC   C3323336   4.766   0.251   3.735 -0.6229  0.0073  0.4042
  189DOPC   H3X23337   4.815   0.325   3.802 -0.0464 -1.1775  1.3313
  189DOPC   H3Y23338   4.814   0.151   3.748  1.7391  0.7147 -2.0040
  189DOPC   C3423339   4.622   0.264   3.790  1.0591  0.1572 -0.1285
  189DOPC   H4X23340   4.558   0.188   3.742 -0.4835  0.8762  0.7231
  189DOPC   H4Y23341   4.581   0.362   3.758 -1.8631 -0.7047  0.6673
  189DOPC   C3523342   4.599   0.246   3.938 -0.6184 -0.2859  0.1700
  189DOPC   H5X23343   4.642   0.332   3.993  2.5893 -2.4356  1.3520
  189DOPC   H5Y23344   4.658   0.157   3.969  0.6943  0.4830 -0.0598
  189DOPC   C3623345   4.452   0.229   3.964  0.1864  0.5153  0.6115
  189DOPC   H6X23346   4.407   0.313   3.908  0.8074 -0.3371 -1.2649
  189DOPC   H6Y23347   4.418   0.135   3.916 -0.9344  1.5067 -0.5863
  189DOPC   C3723348   4.413   0.231   4.113 -0.2542 -0.4012  0.2012
  189DOPC   H7X23349   4.452   0.132   4.146  2.7780  0.9390  0.9922
  189DOPC   H7Y23350   4.470   0.314   4.160  1.2521 -1.8189  0.9869
  189DOPC   C3823351   4.262   0.231   4.146 -0.5089  0.7483  0.1590
  189DOPC   H8X23352   4.236   0.123   4.152  0.2961  0.4383 -1.5269
  189DOPC   H8Y23353   4.210   0.281   4.063 -1.3376 -2.2337 -1.2757
  189DOPC   C3923354   4.243   0.302   4.278 -0.1356 -0.5257 -0.3118
  189DOPC   H9X23355   4.242   0.412   4.271  1.1463 -0.5721 -1.6826
  189DOPC  C31023356   4.227   0.239   4.398 -0.2955 -0.6045 -0.1181
  189DOPC  H10X23357   4.232   0.305   4.485 -3.7103 -2.4296  1.6721
  189DOPC  C31123358   4.217   0.094   4.421  0.3239  0.2765 -0.3736
  189DOPC  H11X23359   4.269   0.048   4.333  0.5988 -1.6459  0.7477
  189DOPC  H11Y23360   4.110   0.069   4.432 -0.8046  4.6429  0.6688
  189DOPC  C31223361   4.300   0.057   4.544 -0.5295  0.2312 -0.1905
  189DOPC  H12X23362   4.264   0.108   4.635  0.0728  0.0763  0.1358
  189DOPC  H12Y23363   4.408   0.075   4.524 -1.2880  2.0796 -3.2612
  189DOPC  C31323364   4.302  -0.100   4.553  0.0374  0.2916 -0.5973
  189DOPC  H13X23365   4.202  -0.140   4.528 -1.0008  1.2014  1.7460
  189DOPC  H13Y23366   4.371  -0.149   4.482  0.9065 -1.1285  1.1453
  189DOPC  C31423367   4.351  -0.165   4.689 -0.0498  0.4539 -0.0411
  189DOPC  H14X23368   4.404  -0.260   4.669 -0.4400 -0.6365  3.4179
  189DOPC  H14Y23369   4.420  -0.088   4.729 -0.0339  0.6786 -0.4960
  189DOPC  C31523370   4.249  -0.179   4.795  0.2722  0.2288 -0.5876
  189DOPC  H15X23371   4.161  -0.237   4.760 -0.6970  2.5738 -2.2437
  189DOPC  H15Y23372   4.215  -0.075   4.816  1.5350  0.5864 -0.1836
  189DOPC  C31623373   4.304  -0.242   4.927  0.0053  0.9416 -0.4265
  189DOPC  H16X23374   4.334  -0.347   4.906  1.3687  1.3993 -0.8332
  189DOPC  H16Y23375   4.395  -0.184   4.954 -1.3612  2.2191  1.7165
  189DOPC  C31723376   4.206  -0.246   5.048 -0.3442  0.2573 -0.0474
  189DOPC  H17X23377   4.258  -0.300   5.130 -1.0187 -0.7937 -0.2931
  189DOPC  H17Y23378   4.200  -0.140   5.080  0.3807  0.7948 -1.6067
  189DOPC  C31823379   4.066  -0.298   5.023 -0.0496  0.0093  0.1712
  189DOPC  H18X23380   4.006  -0.233   4.955  0.2339 -0.0893 -0.1723
  189DOPC  H18Y23381   4.075  -0.399   4.977 -2.6258 -1.2946  2.2394
  189DOPC  H18Z23382   4.006  -0.305   5.117 -0.1281  2.3841  0.3551
  190DOPC     N23383   3.172   6.859   2.578 -0.3473  0.3051 -0.0752
  190DOPC   C1223384   3.055   6.944   2.560 -0.4547 -0.3709  0.0680
  190DOPC  H12A23385   3.013   6.955   2.659  0.2069  0.5542  0.2605
  190DOPC  H12B23386   2.981   6.904   2.492  1.5027 -1.3834 -1.5510
  190DOPC   C1323387   3.280   6.920   2.668 -0.5964 -0.4671  0.0754
  190DOPC  H13A23388   3.326   7.002   2.615 -0.2498 -1.3728 -1.0735
  190DOPC  H13B23389   3.229   6.960   2.755  1.5400  0.2981  1.0363
  190DOPC  H13C23390   3.355   6.854   2.709  0.3338  1.8932  2.4445
  190DOPC   C1423391   3.250   6.840   2.448  0.6583 -0.1175 -0.4860
  190DOPC  H14A23392   3.212   6.754   2.394 -0.8494 -1.3232  2.2877
  190DOPC  H14B23393   3.243   6.933   2.393 -2.8119 -1.2785 -2.3461
  190DOPC  H14C23394   3.351   6.810   2.473 -0.0727 -1.6131  0.8626
  190DOPC   C1523395   3.134   6.721   2.636  0.4803  0.0629  0.2539
  190DOPC  H15A23396   3.037   6.692   2.596 -0.1578  0.9790  1.0933
  190DOPC  H15B23397   3.121   6.736   2.742  0.5842  1.4108  0.0948
  190DOPC  H15C23398   3.212   6.650   2.616  2.6980  2.8989 -2.1930
  190DOPC   C1123399   3.074   7.092   2.520 -0.8544 -0.7097  0.1652
  190DOPC  H11A23400   3.142   7.148   2.587  1.9549 -2.1502 -1.3137
  190DOPC  H11B23401   3.128   7.094   2.424  1.6085  3.4053  1.4017
  190DOPC     P23402   2.884   7.232   2.622 -0.1974  0.0664 -0.0148
  190DOPC   O1323403   2.737   7.223   2.600 -0.0694  0.5805  0.7882
  190DOPC   O1423404   2.950   7.362   2.630 -0.3857 -0.2491 -0.2216
  190DOPC   O1223405   2.949   7.156   2.502 -0.1401 -0.2485  0.4249
  190DOPC   O1123406   2.921   7.150   2.756  0.3645  0.1398  0.4441
  190DOPC    C123407   2.942   7.208   2.883  0.1638  0.1635 -0.0021
  190DOPC    HA23408   2.936   7.319   2.891  1.8983  0.2637  0.5351
  190DOPC    HB23409   3.042   7.187   2.927  0.5151 -0.6565 -1.1557
  190DOPC    C223410   2.844   7.147   2.984 -1.1224  0.0069  0.3519
  190DOPC    HS23411   2.743   7.184   2.955 -0.2474  1.7597 -0.6199
  190DOPC   O2123412   2.877   7.193   3.111 -0.1749 -0.0875  0.7226
  190DOPC   C2123413   2.782   7.224   3.195 -0.4654 -0.0082 -0.6567
  190DOPC   O2223414   2.662   7.217   3.180 -0.2022 -0.0303 -0.5644
  190DOPC   C2223415   2.849   7.265   3.331 -0.0093  0.0665  0.4070
  190DOPC   H2R23416   2.938   7.324   3.302 -1.1076  0.9553 -1.3642
  190DOPC   H2S23417   2.874   7.173   3.387  0.2504 -0.4603 -0.5424
  190DOPC    C323418   2.846   6.988   2.981 -0.1919  0.1207  0.1006
  190DOPC    HX23419   2.953   6.956   2.979 -0.5078 -1.0565  1.1802
  190DOPC    HY23420   2.795   6.955   2.888 -0.0683  2.1746 -0.7468
  190DOPC   O3123421   2.786   6.932   3.102  0.7249  0.0985 -0.2320
  190DOPC   C3123422   2.662   6.877   3.087 -0.6013  0.3545  0.2706
  190DOPC   O3223423   2.598   6.867   2.986 -0.9786  0.1174  0.1149
  190DOPC   C3223424   2.616   6.820   3.222 -0.5660  0.0768 -0.0030
  190DOPC   H2X23425   2.506   6.807   3.222 -0.5165 -0.4661 -1.3166
  190DOPC   H2Y23426   2.642   6.712   3.229 -1.4587 -0.0417  2.2826
  190DOPC   C2323427   2.761   7.347   3.425 -0.3195  0.2599  0.2638
  190DOPC   H3R23428   2.668   7.292   3.451 -0.9686  0.5849 -1.2245
  190DOPC   H3S23429   2.726   7.438   3.372 -2.6956  0.5874  2.2179
  190DOPC   C2423430   2.834   7.390   3.552  0.2759  0.2295 -0.3039
  190DOPC   H4R23431   2.800   7.493   3.577 -0.1523  0.5245 -1.9741
  190DOPC   H4S23432   2.943   7.415   3.549  0.1637  1.3995  2.1867
  190DOPC   C2523433   2.817   7.298   3.680  0.1476 -0.3028  0.0198
  190DOPC   H5R23434   2.862   7.198   3.660 -2.6447 -1.5313 -0.6990
  190DOPC   H5S23435   2.711   7.285   3.711  0.6625  1.0678  2.6697
  190DOPC   C2623436   2.889   7.376   3.799  0.2382  0.6991 -0.2624
  190DOPC   H6R23437   2.994   7.400   3.773  0.9830  0.7726  2.4783
  190DOPC   H6S23438   2.905   7.297   3.876  3.3265  0.4865 -1.0259
  190DOPC   C2723439   2.819   7.494   3.861 -0.5078 -0.0357  0.4644
  190DOPC   H7R23440   2.714   7.465   3.883 -0.8100 -0.5058 -1.4034
  190DOPC   H7S23441   2.811   7.576   3.787  1.8713 -0.5653 -0.4810
  190DOPC   C2823442   2.875   7.535   3.993 -0.1726  0.1613  0.2915
  190DOPC   H8R23443   2.864   7.451   4.065  2.9114  0.8393  1.7137
  190DOPC   H8S23444   2.813   7.613   4.043 -1.2028 -1.1168  1.0843
  190DOPC   C2923445   3.018   7.580   3.993  0.8822  0.3072 -0.1792
  190DOPC   H9R23446   3.079   7.523   4.065  0.0197 -2.1468 -1.2972
  190DOPC  C21023447   3.077   7.682   3.931 -0.7309 -0.2572 -0.2386
  190DOPC  H10R23448   3.184   7.695   3.955 -0.2944 -0.8216 -1.7345
  190DOPC  C21123449   3.014   7.787   3.845 -0.0326 -0.2052  0.2172
  190DOPC  H11R23450   2.999   7.882   3.899  0.6969  0.1738 -0.2362
  190DOPC  H11S23451   2.915   7.755   3.806  0.2834 -0.0779 -0.7043
  190DOPC  C21223452   3.112   7.839   3.739 -0.0764  0.2119  0.0629
  190DOPC  H12R23453   3.194   7.893   3.791 -1.1024  2.1011 -0.1981
  190DOPC  H12S23454   3.058   7.911   3.674  1.2332  2.1205  0.9842
  190DOPC  C21323455   3.177   7.732   3.646 -0.1312  0.1822 -0.4121
  190DOPC  H13R23456   3.203   7.643   3.707 -0.8188  0.1095 -0.2198
  190DOPC  H13S23457   3.270   7.776   3.603  0.5458 -0.2624  0.5573
  190DOPC  C21423458   3.086   7.671   3.536  0.5589  0.0452 -0.0610
  190DOPC  H14R23459   2.996   7.634   3.590  1.0397 -0.4184  0.4470
  190DOPC  H14S23460   3.131   7.583   3.486  0.6816  0.5049 -0.7750
  190DOPC  C21523461   3.058   7.771   3.423  0.2179 -0.0909  0.5240
  190DOPC  H15R23462   3.157   7.799   3.380  0.8402 -1.7154  0.8273
  190DOPC  H15S23463   3.013   7.868   3.451 -0.3758  0.3053 -1.5759
  190DOPC  C21623464   2.964   7.718   3.312 -0.0099 -0.6025 -0.1498
  190DOPC  H16R23465   2.926   7.805   3.255 -0.1434 -0.0309  0.7824
  190DOPC  H16S23466   2.875   7.668   3.356 -0.4393  0.0633 -0.2570
  190DOPC  C21723467   3.040   7.621   3.224  0.2660  0.5127  0.2692
  190DOPC  H17R23468   3.091   7.542   3.283 -2.0014 -1.5816 -0.3777
  190DOPC  H17S23469   3.123   7.670   3.168 -1.6728  2.7253 -0.8133
  190DOPC  C21823470   2.953   7.553   3.118  0.6466 -0.1268 -0.1775
  190DOPC  H18R23471   2.865   7.505   3.166  1.1660 -1.6277 -0.6745
  190DOPC  H18S23472   3.015   7.485   3.056 -0.2355 -0.6001 -0.5613
  190DOPC  H18T23473   2.914   7.633   3.053  1.1971  0.2647 -0.0365
  190DOPC   C3323474   2.657   6.902   3.352 -0.1833  0.0269  0.7870
  190DOPC   H3X23475   2.575   6.977   3.359 -1.0551 -0.6784 -0.9694
  190DOPC   H3Y23476   2.754   6.955   3.341 -0.4056  0.2089 -0.5376
  190DOPC   C3423477   2.658   6.819   3.476 -0.7075 -0.0481  0.1017
  190DOPC   H4X23478   2.570   6.751   3.479 -1.0847  0.3923  3.4231
  190DOPC   H4Y23479   2.632   6.874   3.569 -0.1538  0.9009 -0.2927
  190DOPC   C3523480   2.785   6.733   3.501  0.3979 -0.1733 -1.0438
  190DOPC   H5X23481   2.879   6.782   3.468  2.0015 -1.7074  1.0061
  190DOPC   H5Y23482   2.765   6.642   3.441  1.3828 -0.5370 -0.8375
  190DOPC   C3623483   2.813   6.703   3.652 -0.2693 -0.3750 -0.1218
  190DOPC   H6X23484   2.719   6.721   3.708 -0.6514  2.8803 -1.6067
  190DOPC   H6Y23485   2.825   6.594   3.668 -1.0864 -0.1821  2.1048
  190DOPC   C3723486   2.932   6.776   3.723  0.5958  0.6724 -0.4518
  190DOPC   H7X23487   3.003   6.816   3.647  0.8177 -0.8462 -1.0676
  190DOPC   H7Y23488   2.888   6.864   3.776  1.8630  1.2176 -0.2581
  190DOPC   C3823489   2.992   6.683   3.827 -0.5254  0.3194 -0.3833
  190DOPC   H8X23490   3.021   6.596   3.765  2.3687  0.3407  0.8182
  190DOPC   H8Y23491   2.920   6.641   3.900  1.2242  0.4494  1.4915
  190DOPC   C3923492   3.114   6.741   3.884 -0.0380  0.8087  0.0262
  190DOPC   H9X23493   3.193   6.766   3.811 -1.0448  0.9649 -1.0332
  190DOPC  C31023494   3.154   6.743   4.012 -0.4829  0.7094  0.2235
  190DOPC  H10X23495   3.254   6.779   4.039 -0.1059 -1.7219  2.4594
  190DOPC  C31123496   3.087   6.682   4.126 -0.4196  0.6252 -0.2095
  190DOPC  H11X23497   3.146   6.603   4.177 -0.2491  1.5420  1.1027
  190DOPC  H11Y23498   2.985   6.643   4.107 -0.2765  0.2114 -0.1358
  190DOPC  C31223499   3.064   6.783   4.242 -0.0488  0.1434 -0.0199
  190DOPC  H12X23500   3.017   6.874   4.199 -0.7841  0.1154  0.7070
  190DOPC  H12Y23501   3.156   6.814   4.296 -1.1612  2.0104  0.8794
  190DOPC  C31323502   2.965   6.737   4.350 -0.2740  0.4023  0.4525
  190DOPC  H13X23503   2.865   6.721   4.305 -0.7575 -0.0879  1.6773
  190DOPC  H13Y23504   3.002   6.643   4.396 -0.6317 -0.1005 -0.2746
  190DOPC  C31423505   2.957   6.853   4.453  0.0555 -0.5021 -0.5440
  190DOPC  H14X23506   3.053   6.888   4.496 -0.4476 -0.5760  0.6671
  190DOPC  H14Y23507   2.914   6.939   4.397  0.3193  0.3423  0.5027
  190DOPC  C31523508   2.861   6.818   4.573 -0.0995  0.0319  1.0518
  190DOPC  H15X23509   2.890   6.717   4.609  1.6225 -0.2545 -0.9599
  190DOPC  H15Y23510   2.765   6.811   4.519  0.6645  0.6529 -0.4688
  190DOPC  C31623511   2.851   6.928   4.678  0.6298  0.0305  0.0934
  190DOPC  H16X23512   2.857   7.031   4.637 -1.4511  0.0471 -0.2808
  190DOPC  H16Y23513   2.754   6.929   4.733  1.1355  1.7004  1.0256
  190DOPC  C31723514   2.955   6.899   4.790  0.4267  0.0196  0.7274
  190DOPC  H17X23515   2.942   6.803   4.844 -2.5594  0.4207  0.8957
  190DOPC  H17Y23516   3.051   6.886   4.737  0.5606  0.3686  0.8851
  190DOPC  C31823517   2.972   7.025   4.880  0.8329 -0.0674 -0.1619
  190DOPC  H18X23518   3.029   7.007   4.974 -1.1385 -0.2241  1.0778
  190DOPC  H18Y23519   3.029   7.107   4.831  2.4080 -0.2281  1.3102
  190DOPC  H18Z23520   2.875   7.070   4.909  0.8017 -0.1218 -0.1800
  191DOPC     N23521   6.150   7.422   2.983  0.1830  0.3639 -0.1633
  191DOPC   C1223522   6.252   7.356   2.898 -0.1403 -0.3222 -0.0865
  191DOPC  H12A23523   6.329   7.430   2.882 -0.1982 -0.3545 -0.5200
  191DOPC  H12B23524   6.200   7.327   2.808 -0.6699 -0.5932  0.2974
  191DOPC   C1323525   6.214   7.473   3.108 -0.1237  0.6024 -0.2886
  191DOPC  H13A23526   6.250   7.385   3.159 -2.4037 -0.9831 -1.2507
  191DOPC  H13B23527   6.294   7.545   3.093  0.7985 -0.4774 -0.6705
  191DOPC  H13C23528   6.137   7.518   3.169 -0.9941 -1.9250  0.6119
  191DOPC   C1423529   6.034   7.321   3.018 -0.1528  0.5203  0.1573
  191DOPC  H14A23530   5.955   7.359   3.082  1.6732 -0.7507  3.4223
  191DOPC  H14B23531   5.984   7.282   2.931 -0.6366  1.4393  0.0095
  191DOPC  H14C23532   6.065   7.231   3.069 -2.1789 -1.5042 -1.9306
  191DOPC   C1523533   6.101   7.545   2.913 -0.1059  0.3200 -0.4850
  191DOPC  H15A23534   6.004   7.571   2.951  0.4009  2.1453 -0.3422
  191DOPC  H15B23535   6.097   7.518   2.808  1.1353 -0.9628 -0.2332
  191DOPC  H15C23536   6.162   7.634   2.922  0.3060 -0.0786  0.7576
  191DOPC   C1123537   6.326   7.224   2.946 -0.1916  0.1845 -0.2254
  191DOPC  H11A23538   6.262   7.138   2.919  1.6660 -0.5645 -2.5856
  191DOPC  H11B23539   6.415   7.219   2.880 -1.1489 -0.8141 -1.4736
  191DOPC     P23540   6.478   7.130   3.135 -0.1429 -0.2665 -0.1958
  191DOPC   O1323541   6.599   7.207   3.153  0.2659  0.2096 -0.0494
  191DOPC   O1423542   6.486   7.016   3.042 -0.1480 -0.2744 -0.1201
  191DOPC   O1223543   6.362   7.225   3.090 -0.4351 -0.6914  0.2549
  191DOPC   O1123544   6.434   7.060   3.269 -0.0503 -0.3682 -0.3852
  191DOPC    C123545   6.302   7.081   3.321 -0.0592  0.3418  1.0834
  191DOPC    HA23546   6.273   6.991   3.379  0.4223  0.3901  1.4001
  191DOPC    HB23547   6.219   7.094   3.248 -1.0591  0.2474  2.1667
  191DOPC    C223548   6.303   7.195   3.429  0.7244  0.4896  0.5356
  191DOPC    HS23549   6.344   7.287   3.382  0.0200 -0.1351 -1.4205
  191DOPC   O2123550   6.373   7.152   3.546 -0.0985  0.1413 -0.0847
  191DOPC   C2123551   6.498   7.201   3.563  0.4122  0.3018  0.6451
  191DOPC   O2223552   6.548   7.292   3.507 -0.0823  0.2874 -0.4902
  191DOPC   C2223553   6.558   7.116   3.665 -0.2336  0.6731 -0.3510
  191DOPC   H2R23554   6.537   7.007   3.659 -0.2057  0.5080  1.9566
  191DOPC   H2S23555   6.512   7.153   3.758 -2.6680  0.5616 -1.4435
  191DOPC    C323556   6.161   7.224   3.480 -0.3216  0.1425 -0.3060
  191DOPC    HX23557   6.115   7.129   3.514  2.2723 -2.0932 -2.5563
  191DOPC    HY23558   6.089   7.263   3.405 -2.4002 -0.8420  1.0802
  191DOPC   O3123559   6.162   7.308   3.596 -0.1425 -0.4306 -0.4703
  191DOPC   C3123560   6.193   7.434   3.576 -0.1565 -0.3352  0.6696
  191DOPC   O3223561   6.207   7.490   3.472  0.3867 -0.0634 -0.7637
  191DOPC   C3223562   6.183   7.506   3.712 -0.7774  0.6503 -0.0542
  191DOPC   H2X23563   6.261   7.457   3.773  0.0417 -1.0906 -2.3446
  191DOPC   H2Y23564   6.211   7.612   3.697  3.0480 -0.1335  0.6839
  191DOPC   C2323565   6.713   7.122   3.674 -0.0454  0.2995 -0.5130
  191DOPC   H3R23566   6.764   7.221   3.675  0.7812 -0.1115 -0.3723
  191DOPC   H3S23567   6.767   7.062   3.598 -0.7544 -1.1228  0.0622
  191DOPC   C2423568   6.752   7.051   3.808 -0.4003 -0.2758  0.6330
  191DOPC   H4R23569   6.858   7.024   3.791  0.2863  2.1128  0.7759
  191DOPC   H4S23570   6.704   6.950   3.804  0.4828 -0.6709 -1.5418
  191DOPC   C2523571   6.723   7.124   3.944  0.4408 -0.0840 -0.0313
  191DOPC   H5R23572   6.613   7.118   3.958  0.3252 -0.4666 -0.9812
  191DOPC   H5S23573   6.742   7.233   3.940 -2.4609  0.5132  0.6358
  191DOPC   C2623574   6.802   7.078   4.063 -0.8235 -0.3400 -0.4439
  191DOPC   H6R23575   6.910   7.076   4.039 -0.8225 -2.8049 -0.4718
  191DOPC   H6S23576   6.775   6.972   4.079  0.3876 -0.8869 -1.7626
  191DOPC   C2723577   6.771   7.147   4.193 -0.2009 -0.1422 -0.4968
  191DOPC   H7R23578   6.662   7.148   4.211 -0.0976 -0.4217  0.1924
  191DOPC   H7S23579   6.816   7.249   4.192  0.1994 -0.3131 -0.2715
  191DOPC   C2823580   6.839   7.085   4.319  0.5103 -0.7524 -0.3845
  191DOPC   H8R23581   6.948   7.098   4.309  0.6938 -1.2986  0.6767
  191DOPC   H8S23582   6.817   6.977   4.335  2.8941 -1.0229  1.5829
  191DOPC   C2923583   6.783   7.157   4.438  0.9730  0.0834  0.1802
  191DOPC   H9R23584   6.682   7.121   4.462  2.1225 -2.4801  1.6929
  191DOPC  C21023585   6.827   7.257   4.515 -0.7313  0.1527  0.0180
  191DOPC  H10R23586   6.775   7.291   4.605  1.2772  1.7294  0.6677
  191DOPC  C21123587   6.967   7.316   4.502 -0.2830  0.0082 -0.1163
  191DOPC  H11R23588   6.944   7.425   4.502  2.1155  0.5594 -1.3699
  191DOPC  H11S23589   7.025   7.289   4.412  0.7972 -0.5677  0.7289
  191DOPC  C21223590   7.048   7.285   4.625  0.1692 -0.3251  0.5196
  191DOPC  H12R23591   6.981   7.303   4.712 -1.0364  3.9227 -1.0425
  191DOPC  H12S23592   7.126   7.365   4.626  0.1719 -0.1879 -2.3819
  191DOPC  C21323593   7.107   7.137   4.633 -0.1109  0.3990 -0.4946
  191DOPC  H13R23594   7.193   7.120   4.565  1.0663  0.1297  1.0026
  191DOPC  H13S23595   7.023   7.067   4.616 -0.4103  0.4549  0.6694
  191DOPC  C21423596   7.154   7.106   4.775 -0.1744  0.0205 -0.2563
  191DOPC  H14R23597   7.082   7.136   4.855  0.8131  0.4263  0.5086
  191DOPC  H14S23598   7.235   7.180   4.794 -2.2280  2.5793 -0.7889
  191DOPC  C21523599   7.211   6.962   4.786  0.1908 -1.2744 -0.2710
  191DOPC  H15R23600   7.315   6.976   4.752 -0.2671  0.4123 -1.0548
  191DOPC  H15S23601   7.161   6.899   4.710  0.3759 -0.6378 -0.9241
  191DOPC  C21623602   7.194   6.911   4.927 -0.1091  0.4027  0.3141
  191DOPC  H16R23603   7.158   6.807   4.909 -0.6299  0.9698 -2.2667
  191DOPC  H16S23604   7.107   6.954   4.981  0.6956  0.0706  1.9307
  191DOPC  C21723605   7.329   6.890   4.998  0.0673 -0.2110  0.4841
  191DOPC  H17R23606   7.384   6.987   5.003  0.9640 -0.6242 -0.7459
  191DOPC  H17S23607   7.380   6.818   4.931 -2.4800 -0.8168 -0.9200
  191DOPC  C21823608   7.328   6.833   5.137 -0.3822 -0.1994  0.1936
  191DOPC  H18R23609   7.270   6.903   5.201 -2.0654 -0.5483 -0.8941
  191DOPC  H18S23610   7.433   6.816   5.171 -1.2069  0.5404  3.5355
  191DOPC  H18T23611   7.281   6.733   5.123  0.5920 -0.5815 -0.4401
  191DOPC   C3323612   6.044   7.505   3.787 -0.3462 -0.1517 -0.3350
  191DOPC   H3X23613   5.994   7.407   3.770  0.5719 -0.3811 -1.9510
  191DOPC   H3Y23614   5.981   7.584   3.741  0.9953  0.0185 -2.0205
  191DOPC   C3423615   6.062   7.538   3.934  0.3189  0.3888  0.0585
  191DOPC   H4X23616   6.088   7.644   3.953 -1.3200  0.9474 -0.6475
  191DOPC   H4Y23617   6.129   7.467   3.987  0.6191  0.1514 -0.6291
  191DOPC   C3523618   5.930   7.521   4.007 -0.9490 -0.4241  0.4439
  191DOPC   H5X23619   5.884   7.424   3.976 -2.5761 -0.2348  2.1091
  191DOPC   H5Y23620   5.876   7.602   3.954  0.3227  0.3723  0.3296
  191DOPC   C3623621   5.930   7.555   4.161 -0.0595 -0.6001  0.5973
  191DOPC   H6X23622   6.004   7.499   4.222 -1.5351 -0.9607  2.1118
  191DOPC   H6Y23623   5.955   7.663   4.169  1.0120 -0.7156 -0.6976
  191DOPC   C3723624   5.791   7.528   4.213  0.5772 -0.0507  0.2434
  191DOPC   H7X23625   5.774   7.584   4.308 -0.2082  1.9939 -1.0232
  191DOPC   H7Y23626   5.718   7.554   4.133  0.3216  3.6923  1.5011
  191DOPC   C3823627   5.772   7.381   4.252 -0.1724 -0.0196  0.0712
  191DOPC   H8X23628   5.853   7.347   4.320 -0.1109  0.3285  0.1706
  191DOPC   H8Y23629   5.806   7.333   4.157  1.0341 -1.3204  1.1155
  191DOPC   C3923630   5.633   7.341   4.292  0.1400 -0.1370 -0.0673
  191DOPC   H9X23631   5.567   7.344   4.204  1.7819  0.8761 -1.3277
  191DOPC  C31023632   5.579   7.321   4.414  0.3313 -0.5580  0.2578
  191DOPC  H10X23633   5.472   7.297   4.429 -0.3400  1.9510 -0.0223
  191DOPC  C31123634   5.650   7.321   4.548  0.2725 -0.7778  0.5521
  191DOPC  H11X23635   5.760   7.326   4.532  0.0853 -0.0143 -0.6100
  191DOPC  H11Y23636   5.627   7.223   4.595 -1.1062 -0.0954  1.3340
  191DOPC  C31223637   5.633   7.435   4.652  0.6622 -0.0015 -0.6541
  191DOPC  H12X23638   5.646   7.535   4.605  0.7722  0.2956 -0.0149
  191DOPC  H12Y23639   5.710   7.420   4.730 -0.5363 -0.4603  0.4783
  191DOPC  C31323640   5.492   7.435   4.714 -0.1430 -0.0734  0.4122
  191DOPC  H13X23641   5.416   7.440   4.633  1.4332 -0.8634 -1.2014
  191DOPC  H13Y23642   5.479   7.339   4.767 -0.6584 -0.2655 -0.0515
  191DOPC  C31423643   5.455   7.545   4.809 -0.1289 -0.1082 -0.2452
  191DOPC  H14X23644   5.523   7.550   4.897 -2.3934 -2.0178  1.7660
  191DOPC  H14Y23645   5.458   7.645   4.762 -2.1729 -0.3849 -1.0851
  191DOPC  C31523646   5.319   7.524   4.881  0.0513 -0.1765 -0.1456
  191DOPC  H15X23647   5.318   7.431   4.942 -0.9490  0.1843  0.4061
  191DOPC  H15Y23648   5.241   7.522   4.802 -0.6286  2.2168  0.3968
  191DOPC  C31623649   5.291   7.643   4.967 -0.3670  0.0230  0.0788
  191DOPC  H16X23650   5.387   7.654   5.022  0.3216  0.5090 -1.1751
  191DOPC  H16Y23651   5.277   7.729   4.898 -2.7975  0.2415  0.7668
  191DOPC  C31723652   5.187   7.609   5.075  0.2089 -0.1656  0.3964
  191DOPC  H17X23653   5.223   7.537   5.152  0.8929  0.4659  0.6880
  191DOPC  H17Y23654   5.160   7.697   5.138  0.4209  0.2540 -0.0935
  191DOPC  C31823655   5.059   7.543   5.028 -0.2871  0.2663  0.3595
  191DOPC  H18X23656   5.058   7.433   5.042 -0.1225 -0.2589 -2.8759
  191DOPC  H18Y23657   4.976   7.595   5.079 -2.1029 -1.0359 -1.1257
  191DOPC  H18Z23658   5.044   7.560   4.919  1.3949  1.8946  0.3384
  192DOPC     N23659   1.028   3.087   3.262 -0.5664  0.3981  0.8293
  192DOPC   C1223660   0.990   3.192   3.363 -0.2169  0.0547 -0.2901
  192DOPC  H12A23661   0.888   3.183   3.396 -1.2730  2.4212 -2.5090
  192DOPC  H12B23662   0.994   3.289   3.315  0.0167 -0.8348 -2.1564
  192DOPC   C1323663   0.938   3.091   3.150 -0.3028 -0.0014  0.3314
  192DOPC  H13A23664   0.944   3.189   3.106 -2.5379 -0.5434 -1.3876
  192DOPC  H13B23665   0.969   3.027   3.069  2.4788  1.0973  0.4163
  192DOPC  H13C23666   0.833   3.077   3.175 -0.7418  1.7436 -0.3718
  192DOPC   C1423667   1.026   2.950   3.329  0.2834 -0.0811  0.2266
  192DOPC  H14A23668   1.040   2.875   3.253 -0.9812  0.6321 -0.7431
  192DOPC  H14B23669   1.104   2.939   3.403  2.9118 -1.2060 -2.4902
  192DOPC  H14C23670   0.927   2.927   3.366 -0.5777  0.2292 -1.7709
  192DOPC   C1523671   1.156   3.111   3.190 -0.4906  0.0247 -0.1294
  192DOPC  H15A23672   1.242   3.096   3.255 -0.5601  1.5113  0.3442
  192DOPC  H15B23673   1.161   3.210   3.147 -2.1099  1.0408  1.8458
  192DOPC  H15C23674   1.188   3.041   3.114  1.2431  1.0832 -0.4433
  192DOPC   C1123675   1.082   3.200   3.492  0.2399 -0.2196  0.6260
  192DOPC  H11A23676   1.042   3.265   3.573  5.2574  0.0866  3.2976
  192DOPC  H11B23677   1.071   3.098   3.536  0.1634 -0.4244  0.1378
  192DOPC     P23678   1.279   3.373   3.503  0.0092 -0.4262  0.4016
  192DOPC   O1323679   1.265   3.459   3.386  0.4466  0.4638 -0.1781
  192DOPC   O1423680   1.417   3.358   3.559 -0.1055  0.0425  0.6008
  192DOPC   O1223681   1.214   3.230   3.463  0.1149 -0.3770 -0.1259
  192DOPC   O1123682   1.184   3.434   3.619 -0.1450 -0.5613  0.1036
  192DOPC    C123683   1.092   3.539   3.584  0.5412 -0.8527 -0.5906
  192DOPC    HA23684   1.039   3.514   3.490 -0.9500  0.5288 -0.1647
  192DOPC    HB23685   1.135   3.641   3.572  0.5378 -0.6360  0.9489
  192DOPC    C223686   0.971   3.546   3.694 -0.1553  0.7003  0.2317
  192DOPC    HS23687   1.014   3.587   3.787 -1.3895 -0.3706  1.3182
  192DOPC   O2123688   0.915   3.413   3.715 -0.4792 -0.2535  0.1236
  192DOPC   C2123689   0.878   3.398   3.839  0.3623 -0.0962 -0.3542
  192DOPC   O2223690   0.879   3.477   3.930  0.1333 -0.0229  0.3062
  192DOPC   C2223691   0.853   3.250   3.861 -0.2009 -0.2539 -0.0956
  192DOPC   H2R23692   0.943   3.192   3.828 -1.2009 -1.2847 -1.1090
  192DOPC   H2S23693   0.762   3.226   3.802 -0.5254  1.2248 -0.2177
  192DOPC    C323694   0.861   3.652   3.650  0.2558  0.3799  0.2599
  192DOPC    HX23695   0.820   3.611   3.555  1.4553 -0.1855 -0.0458
  192DOPC    HY23696   0.919   3.743   3.622 -0.0505  0.0423 -1.5719
  192DOPC   O3123697   0.754   3.678   3.741  0.0583  0.4190 -0.0902
  192DOPC   C3123698   0.784   3.773   3.827 -0.2770 -0.6586 -0.0421
  192DOPC   O3223699   0.887   3.841   3.838  0.1254  0.0657 -0.0749
  192DOPC   C3223700   0.659   3.795   3.914  0.6135  0.1765  0.3575
  192DOPC   H2X23701   0.588   3.865   3.866  0.1207  1.7095  3.1049
  192DOPC   H2Y23702   0.607   3.697   3.912 -0.2535  0.6216  0.6951
  192DOPC   C2323703   0.814   3.212   4.005 -0.1312 -0.3291 -0.1886
  192DOPC   H3R23704   0.894   3.233   4.080  0.5470  1.0117 -1.2505
  192DOPC   H3S23705   0.791   3.104   4.013 -2.9942  0.2965  1.4775
  192DOPC   C2423706   0.686   3.276   4.062 -0.2854  0.2905  0.3032
  192DOPC   H4R23707   0.603   3.245   3.995  0.2226  1.4569 -0.9162
  192DOPC   H4S23708   0.694   3.386   4.069  2.0480  0.1431  0.8403
  192DOPC   C2523709   0.651   3.239   4.211 -0.4122 -0.3891 -0.8382
  192DOPC   H5R23710   0.694   3.321   4.272  1.0407  0.6191 -3.0798
  192DOPC   H5S23711   0.715   3.149   4.228  0.5675 -0.0449 -2.4266
  192DOPC   C2623712   0.503   3.232   4.246  0.2138  0.0505  0.1613
  192DOPC   H6R23713   0.465   3.136   4.204 -0.9392  1.2768 -1.7095
  192DOPC   H6S23714   0.453   3.308   4.184  0.3140 -1.1464 -1.4732
  192DOPC   C2723715   0.465   3.240   4.397  0.1388 -0.9552 -0.5079
  192DOPC   H7R23716   0.355   3.251   4.399  0.1067 -0.9814 -1.7049
  192DOPC   H7S23717   0.501   3.335   4.442 -0.7083 -0.4549 -0.8557
  192DOPC   C2823718   0.532   3.125   4.472  0.8559 -0.5573 -0.9813
  192DOPC   H8R23719   0.643   3.119   4.459  1.2390  0.1793  1.4645
  192DOPC   H8S23720   0.505   3.030   4.422  0.3270 -0.2858 -1.2118
  192DOPC   C2923721   0.501   3.109   4.614 -0.2191  0.2992 -0.6088
  192DOPC   H9R23722   0.399   3.082   4.645  0.5077 -0.9213  0.8852
  192DOPC  C21023723   0.592   3.114   4.716  0.0482 -0.3079  0.5056
  192DOPC  H10R23724   0.549   3.095   4.815  2.7432 -2.2586  1.4355
  192DOPC  C21123725   0.742   3.139   4.716  0.6580 -0.8149 -0.4888
  192DOPC  H11R23726   0.777   3.182   4.620 -0.6934  0.9331 -0.2556
  192DOPC  H11S23727   0.791   3.039   4.719 -1.0357 -1.6718  2.1923
  192DOPC  C21223728   0.787   3.220   4.838 -0.5857  0.4036  0.5838
  192DOPC  H12R23729   0.893   3.201   4.864 -0.1233  1.7026 -0.2500
  192DOPC  H12S23730   0.728   3.191   4.927  0.1309 -1.9716  0.3787
  192DOPC  C21323731   0.781   3.367   4.795 -0.0020  0.3735 -0.5800
  192DOPC  H13R23732   0.789   3.419   4.893  0.3217  0.0375 -0.4242
  192DOPC  H13S23733   0.685   3.396   4.747  0.8679  0.7999 -2.1398
  192DOPC  C21423734   0.897   3.407   4.700  0.1274 -0.4254 -0.4066
  192DOPC  H14R23735   0.849   3.415   4.600  2.3268  0.5450 -1.4525
  192DOPC  H14S23736   0.972   3.326   4.689  0.8719  0.4354 -2.0916
  192DOPC  C21523737   0.974   3.541   4.735 -0.3102  0.5465 -0.7073
  192DOPC  H15R23738   1.067   3.557   4.677 -0.0213  1.2448 -0.0630
  192DOPC  H15S23739   1.005   3.542   4.841  0.7215 -0.4191 -0.9853
  192DOPC  C21623740   0.881   3.661   4.723 -0.1025  0.4609  0.9716
  192DOPC  H16R23741   0.784   3.640   4.773 -0.7332 -0.0302 -0.3929
  192DOPC  H16S23742   0.864   3.679   4.615  0.0376  1.6191  1.1287
  192DOPC  C21723743   0.935   3.782   4.791  0.4356 -0.2229 -0.1640
  192DOPC  H17R23744   1.027   3.821   4.743 -0.0169 -0.6110 -1.3707
  192DOPC  H17S23745   0.958   3.752   4.896  2.2809 -0.9693 -0.7534
  192DOPC  C21823746   0.824   3.891   4.803 -0.3206 -0.3945 -0.3847
  192DOPC  H18R23747   0.741   3.851   4.865  0.9069 -0.2426  1.4414
  192DOPC  H18S23748   0.792   3.918   4.700 -0.0411 -1.3620 -0.7357
  192DOPC  H18T23749   0.871   3.983   4.845  0.4866 -1.3878  0.9986
  192DOPC   C3323750   0.682   3.830   4.067  0.2511 -0.4617  0.3280
  192DOPC   H3X23751   0.580   3.864   4.097 -0.7401 -1.9421 -1.1804
  192DOPC   H3Y23752   0.756   3.911   4.083  0.7083 -0.7556 -0.2742
  192DOPC   C3423753   0.709   3.706   4.152  0.2442 -0.4206  0.1077
  192DOPC   H4X23754   0.808   3.660   4.129 -0.1138 -1.1766  0.0624
  192DOPC   H4Y23755   0.627   3.635   4.130 -0.3573  0.4451 -0.5259
  192DOPC   C3523756   0.708   3.744   4.301 -0.0289 -0.7681  0.7442
  192DOPC   H5X23757   0.739   3.851   4.309 -3.4483  0.2476  2.6430
  192DOPC   H5Y23758   0.783   3.691   4.363  1.1156 -0.9815 -0.7748
  192DOPC   C3623759   0.573   3.731   4.372 -0.1943 -0.2856  0.0943
  192DOPC   H6X23760   0.509   3.811   4.330 -0.1524 -0.8087 -0.9793
  192DOPC   H6Y23761   0.528   3.630   4.358 -0.7571 -0.1548  0.8896
  192DOPC   C3723762   0.572   3.762   4.518  0.3332 -0.8675 -0.1107
  192DOPC   H7X23763   0.637   3.685   4.563  0.6064 -0.7117 -0.2380
  192DOPC   H7Y23764   0.632   3.851   4.544  0.5363 -1.2747  0.8312
  192DOPC   C3823765   0.435   3.781   4.601 -0.4459  0.1447 -0.8405
  192DOPC   H8X23766   0.382   3.859   4.543  0.3611 -0.7974 -2.9662
  192DOPC   H8Y23767   0.467   3.810   4.703 -2.2632 -1.4580  0.2592
  192DOPC   C3923768   0.360   3.655   4.596 -0.1074  0.2289 -0.9799
  192DOPC   H9X23769   0.325   3.639   4.493 -1.2750  0.6841 -0.6750
  192DOPC  C31023770   0.354   3.555   4.687 -0.0540  0.3832 -0.3757
  192DOPC  H10X23771   0.300   3.463   4.662  0.8365 -0.5564  0.9833
  192DOPC  C31123772   0.430   3.564   4.814 -0.1350 -0.1300  0.8696
  192DOPC  H11X23773   0.394   3.629   4.897  0.5190 -0.5592  1.5003
  192DOPC  H11Y23774   0.534   3.594   4.791 -0.3753  0.5137  0.5979
  192DOPC  C31223775   0.428   3.428   4.886  0.1111 -0.1353 -0.5377
  192DOPC  H12X23776   0.519   3.423   4.950  0.0027  0.3346 -0.3465
  192DOPC  H12Y23777   0.435   3.343   4.814  1.0973  0.3415 -1.0294
  192DOPC  C31323778   0.317   3.413   4.992 -0.7380  0.2236  0.3036
  192DOPC  H13X23779   0.327   3.491   5.071 -3.5295  0.3422  0.6261
  192DOPC  H13Y23780   0.216   3.441   4.956 -1.1423  0.4582  1.5619
  192DOPC  C31423781   0.320   3.269   5.045 -0.1105  0.0579 -0.1847
  192DOPC  H14X23782   0.424   3.232   5.029  0.2674  0.7758  0.5097
  192DOPC  H14Y23783   0.291   3.275   5.152  0.7501  0.8651  0.0146
  192DOPC  C31523784   0.234   3.174   4.963 -0.0530 -0.5795 -0.4578
  192DOPC  H15X23785   0.269   3.178   4.857  0.6078  1.1811 -0.2149
  192DOPC  H15Y23786   0.130   3.210   4.977 -1.0975 -1.4880 -4.5577
  192DOPC  C31623787   0.233   3.030   5.007  0.2055 -0.4588 -0.3816
  192DOPC  H16X23788   0.145   2.975   4.967 -0.0563 -0.2563 -0.0879
  192DOPC  H16Y23789   0.326   2.978   4.973  0.4273  1.0699 -2.2840
  192DOPC  C31723790   0.218   3.025   5.160 -0.6453 -0.1968  0.2090
  192DOPC  H17X23791   0.309   3.069   5.207  1.4900 -0.1297 -3.4949
  192DOPC  H17Y23792   0.122   3.075   5.183 -1.3317 -1.6413  0.5675
  192DOPC  C31823793   0.215   2.879   5.202  0.6919 -0.3471 -0.3011
  192DOPC  H18X23794   0.309   2.831   5.167  0.6452 -0.3694 -0.3964
  192DOPC  H18Y23795   0.224   2.863   5.311  0.7333  1.2100 -0.0467
  192DOPC  H18Z23796   0.123   2.829   5.162 -0.6515  0.5368  1.5522
  193DOPC     N23797   6.831   0.360   2.686 -0.2051  0.4949  0.3979
  193DOPC   C1223798   6.888   0.398   2.821  0.0543 -0.7551  0.5493
  193DOPC  H12A23799   6.812   0.461   2.865 -0.1769  0.4784 -1.4790
  193DOPC  H12B23800   6.951   0.481   2.793 -1.5285 -0.1440 -1.4497
  193DOPC   C1323801   6.939   0.293   2.603  0.1781  0.7178 -0.5467
  193DOPC  H13A23802   7.022   0.360   2.586  1.0694  0.1720  1.3839
  193DOPC  H13B23803   6.966   0.205   2.659 -0.2178  0.7442 -0.3117
  193DOPC  H13C23804   6.894   0.262   2.510  0.2938 -0.3017 -0.2690
  193DOPC   C1423805   6.771   0.472   2.617  0.4142  0.0770 -0.3388
  193DOPC  H14A23806   6.729   0.445   2.522 -1.4841 -1.2504  0.8029
  193DOPC  H14B23807   6.694   0.519   2.677 -1.0859  0.0086 -2.1279
  193DOPC  H14C23808   6.850   0.543   2.597 -1.1011  1.3851 -2.0686
  193DOPC   C1523809   6.715   0.258   2.705  0.1799 -0.1282  0.2762
  193DOPC  H15A23810   6.644   0.293   2.779  0.3189 -0.1391  0.4160
  193DOPC  H15B23811   6.748   0.164   2.747  0.3512 -0.6399 -0.9746
  193DOPC  H15C23812   6.661   0.224   2.618 -0.3076  0.5799  0.2962
  193DOPC   C1123813   6.967   0.298   2.905 -0.4328  0.4852 -0.0510
  193DOPC  H11A23814   6.995   0.342   3.004  1.2317  0.9039 -0.6779
  193DOPC  H11B23815   6.909   0.204   2.916  1.9776 -1.3903 -2.1753
  193DOPC     P23816   7.219   0.356   2.840  0.0615 -0.2220 -0.2240
  193DOPC   O1323817   7.182   0.496   2.816  0.1250  0.2721 -0.4355
  193DOPC   O1423818   7.324   0.291   2.753 -0.1630 -0.1625  0.0708
  193DOPC   O1223819   7.091   0.273   2.833 -0.4724 -0.0894  0.1616
  193DOPC   O1123820   7.266   0.349   2.994  0.7418  0.3469  0.4653
  193DOPC    C123821   7.261   0.215   3.049  0.3571  0.3761 -0.5369
  193DOPC    HA23822   7.320   0.138   2.995  1.1821  0.0598  0.7720
  193DOPC    HB23823   7.157   0.177   3.050  1.0400 -1.6430 -1.5682
  193DOPC    C223824   7.316   0.199   3.191 -0.4110 -0.0262 -0.2472
  193DOPC    HS23825   7.302   0.094   3.227 -1.3174  0.4355  0.8239
  193DOPC   O2123826   7.248   0.280   3.286  0.0062 -0.4897  0.1363
  193DOPC   C2123827   7.133   0.229   3.326 -0.0099  0.6710 -0.5643
  193DOPC   O2223828   7.083   0.127   3.292 -0.0051  0.5612 -0.0489
  193DOPC   C2223829   7.097   0.314   3.453 -0.1765 -0.2268  0.7556
  193DOPC   H2R23830   7.052   0.410   3.419 -2.0692 -1.0397  0.8407
  193DOPC   H2S23831   7.186   0.350   3.509 -0.3871  0.6443  0.5502
  193DOPC    C323832   7.466   0.230   3.197 -1.0019  0.4634  0.3287
  193DOPC    HX23833   7.491   0.335   3.169  1.6964  0.4077  2.1103
  193DOPC    HY23834   7.517   0.180   3.112  0.2695  0.4494  1.0662
  193DOPC   O3123835   7.528   0.182   3.322  0.2821 -0.1772  0.1270
  193DOPC   C3123836   7.526   0.281   3.413 -0.5259  0.9613 -0.5852
  193DOPC   O3223837   7.490   0.394   3.391 -0.5436  0.4921 -0.1389
  193DOPC   C3223838   7.584   0.223   3.540  0.4379 -0.1982 -0.3300
  193DOPC   H2X23839   7.686   0.180   3.528  0.5738  0.3451 -1.1963
  193DOPC   H2Y23840   7.589   0.308   3.611  0.1952 -1.5705  1.3977
  193DOPC   C2323841   6.988   0.246   3.532  0.6487 -0.0393 -0.0433
  193DOPC   H3R23842   7.017   0.144   3.566  0.9709 -0.0151 -0.2312
  193DOPC   H3S23843   6.899   0.233   3.466  1.1979 -1.4932 -0.5588
  193DOPC   C2423844   6.940   0.324   3.651 -0.3137  0.4140  0.3627
  193DOPC   H4R23845   6.900   0.422   3.618 -0.2766  1.1379  2.3668
  193DOPC   H4S23846   7.035   0.354   3.699  0.5165 -1.6721  0.1613
  193DOPC   C2523847   6.877   0.255   3.770 -0.0403  0.5389  1.4560
  193DOPC   H5R23848   6.935   0.170   3.810  0.0847  1.3877  3.1595
  193DOPC   H5S23849   6.775   0.223   3.739  0.7305 -1.1999  0.6199
  193DOPC   C2623850   6.855   0.338   3.898 -0.2151  0.3264 -0.1529
  193DOPC   H6R23851   6.793   0.425   3.868 -1.4267 -0.0322  1.2150
  193DOPC   H6S23852   6.951   0.366   3.945  0.0614  0.9663 -1.0674
  193DOPC   C2723853   6.766   0.265   3.996  0.6616  0.3142  0.0387
  193DOPC   H7R23854   6.816   0.168   4.017 -1.3126 -1.6945 -3.5213
  193DOPC   H7S23855   6.668   0.241   3.949  0.1942  0.3885  0.9482
  193DOPC   C2823856   6.731   0.353   4.118 -0.4080 -0.0715  0.1614
  193DOPC   H8R23857   6.644   0.302   4.166 -0.1050 -2.5181 -1.6411
  193DOPC   H8S23858   6.687   0.448   4.082  1.5718  0.2556 -1.6322
  193DOPC   C2923859   6.843   0.368   4.212  0.8372 -0.3782 -0.3591
  193DOPC   H9R23860   6.922   0.439   4.182  1.8283 -0.6591  1.4896
  193DOPC  C21023861   6.857   0.314   4.335 -0.7035  0.6352 -0.3675
  193DOPC  H10R23862   6.954   0.329   4.385  0.2491 -0.4815 -1.8012
  193DOPC  C21123863   6.754   0.221   4.405  0.4325 -0.2007 -0.5399
  193DOPC  H11R23864   6.655   0.220   4.355 -0.2742 -1.1497  0.8173
  193DOPC  H11S23865   6.727   0.244   4.510  0.8258  0.1343 -0.5090
  193DOPC  C21223866   6.811   0.075   4.403 -0.3523  0.0769 -0.2348
  193DOPC  H12R23867   6.905   0.078   4.463 -0.7177  1.5255  0.3138
  193DOPC  H12S23868   6.842   0.042   4.302 -0.7418  1.6857 -0.9056
  193DOPC  C21323869   6.716  -0.028   4.466 -0.0280 -0.4215 -0.0441
  193DOPC  H13R23870   6.789  -0.104   4.500  1.9798  2.4852  2.7512
  193DOPC  H13S23871   6.647  -0.071   4.390 -0.6846  0.6947 -0.1133
  193DOPC  C21423872   6.621   0.025   4.582 -0.8596 -0.2632  0.0531
  193DOPC  H14R23873   6.550   0.102   4.546  2.6864  3.3702  0.0993
  193DOPC  H14S23874   6.677   0.064   4.670  0.3608  1.4142 -1.4018
  193DOPC  C21523875   6.537  -0.098   4.624 -0.4115 -0.0298 -0.3555
  193DOPC  H15R23876   6.613  -0.174   4.651  0.6008  0.8963 -0.5119
  193DOPC  H15S23877   6.476  -0.130   4.537  0.4297 -0.2619 -0.8646
  193DOPC  C21623878   6.440  -0.079   4.747 -0.1667 -0.1671 -0.2644
  193DOPC  H16R23879   6.359  -0.009   4.718  0.9470  1.0808 -0.4943
  193DOPC  H16S23880   6.498  -0.028   4.827  1.9204 -3.8950  0.8242
  193DOPC  C21723881   6.376  -0.206   4.785 -0.2262 -0.2082 -0.0525
  193DOPC  H17R23882   6.452  -0.286   4.796  1.5046  1.4255  0.3572
  193DOPC  H17S23883   6.295  -0.228   4.711  0.6458  0.4555 -1.2397
  193DOPC  C21823884   6.324  -0.195   4.926  0.4866  0.2114  0.1715
  193DOPC  H18R23885   6.288  -0.090   4.929  0.0515  0.1117 -1.1468
  193DOPC  H18S23886   6.411  -0.203   4.995  1.0607  0.4741 -0.5151
  193DOPC  H18T23887   6.236  -0.258   4.952  0.4849  0.7091  1.4316
  193DOPC   C3323888   7.496   0.111   3.603  0.2230  0.8800 -0.1791
  193DOPC   H3X23889   7.521   0.010   3.562 -1.6573  0.3579 -0.1153
  193DOPC   H3Y23890   7.387   0.123   3.583 -0.0713 -1.1124 -0.0033
  193DOPC   C3423891   7.514   0.106   3.754  0.0615 -0.4451 -0.1163
  193DOPC   H4X23892   7.506   0.209   3.793 -2.2950 -1.2773  1.8155
  193DOPC   H4Y23893   7.618   0.075   3.779  0.6932  0.8596 -0.9988
  193DOPC   C3523894   7.415   0.017   3.826 -0.6182  0.8383  0.3714
  193DOPC   H5X23895   7.469  -0.068   3.872 -0.0992  0.6611 -0.5496
  193DOPC   H5Y23896   7.351  -0.028   3.747 -1.3755 -0.5889  1.7418
  193DOPC   C3623897   7.314   0.090   3.917  1.1972 -0.3794  0.0795
  193DOPC   H6X23898   7.281   0.187   3.874 -0.3427 -1.6386 -1.7621
  193DOPC   H6Y23899   7.221   0.030   3.926 -0.5648  2.1730 -0.0580
  193DOPC   C3723900   7.368   0.117   4.063 -0.8273 -0.7980  0.4233
  193DOPC   H7X23901   7.395   0.014   4.093 -2.0583 -1.1965  0.1976
  193DOPC   H7Y23902   7.464   0.173   4.071 -1.0849 -0.1282 -0.7979
  193DOPC   C3823903   7.264   0.164   4.167  0.1283 -0.0947 -0.0318
  193DOPC   H8X23904   7.246   0.272   4.145  2.1131  0.0734 -0.9894
  193DOPC   H8Y23905   7.302   0.165   4.271 -0.7715  1.4555  0.3173
  193DOPC   C3923906   7.137   0.087   4.168 -0.0380 -0.8341 -0.1841
  193DOPC   H9X23907   7.052   0.135   4.118  1.5877  1.2614 -1.1075
  193DOPC  C31023908   7.122  -0.032   4.222  0.0182 -0.0681 -0.9903
  193DOPC  H10X23909   7.025  -0.083   4.212 -1.0293  2.0248 -2.2575
  193DOPC  C31123910   7.226  -0.126   4.275  0.1023  0.6907  0.4409
  193DOPC  H11X23911   7.206  -0.156   4.381  0.6359 -0.7189  0.1691
  193DOPC  H11Y23912   7.326  -0.079   4.272  0.7071 -0.5760  0.1825
  193DOPC  C31223913   7.220  -0.257   4.190  0.7043 -0.5472  0.4386
  193DOPC  H12X23914   7.114  -0.289   4.190  0.7764 -0.8346 -0.7877
  193DOPC  H12Y23915   7.283  -0.328   4.249  0.0250 -1.1010  0.5097
  193DOPC  C31323916   7.289  -0.248   4.053  0.0203  0.3794  0.0371
  193DOPC  H13X23917   7.244  -0.173   3.985 -0.9909  0.6622  0.9936
  193DOPC  H13Y23918   7.390  -0.212   4.083 -0.0366  0.0272  0.6502
  193DOPC  C31423919   7.312  -0.382   3.975  0.3347 -0.2485  0.2228
  193DOPC  H14X23920   7.214  -0.412   3.932  0.8658 -0.4915 -0.8641
  193DOPC  H14Y23921   7.390  -0.367   3.896 -0.2851 -0.4508 -0.4395
  193DOPC  C31523922   7.357  -0.490   4.073 -0.3472  0.1990  0.2084
  193DOPC  H15X23923   7.274  -0.521   4.139 -0.9269  1.1743 -0.0434
  193DOPC  H15Y23924   7.444  -0.445   4.126  0.6692  0.6414 -1.6951
  193DOPC  C31623925   7.402  -0.616   3.991  0.2038  0.2105 -0.0693
  193DOPC  H16X23926   7.450  -0.578   3.899  2.6832 -0.7676  0.7263
  193DOPC  H16Y23927   7.481  -0.679   4.038 -0.4187 -0.1119  0.5666
  193DOPC  C31723928   7.278  -0.701   3.956  0.0137 -0.5736 -0.4156
  193DOPC  H17X23929   7.253  -0.772   4.038 -2.3216 -0.4587 -0.9569
  193DOPC  H17Y23930   7.189  -0.635   3.946  0.9033  0.7477  0.1201
  193DOPC  C31823931   7.300  -0.790   3.826 -0.6508 -0.2560 -0.3833
  193DOPC  H18X23932   7.356  -0.723   3.757  1.1433 -0.7758  0.4834
  193DOPC  H18Y23933   7.367  -0.877   3.847  0.5494  0.7302  0.0421
  193DOPC  H18Z23934   7.204  -0.832   3.789 -1.8505  2.6527 -0.8261
  194DOPC     N23935   2.688   7.658   2.339 -0.2500 -0.0904 -0.8983
  194DOPC   C1223936   2.701   7.793   2.398  0.5046 -0.1936  0.2390
  194DOPC  H12A23937   2.656   7.867   2.334  0.1612  0.4256  1.1777
  194DOPC  H12B23938   2.808   7.804   2.402  0.5313 -0.7669  1.8313
  194DOPC   C1323939   2.548   7.620   2.298  0.4904  0.4899 -0.5071
  194DOPC  H13A23940   2.538   7.518   2.267  1.7215  0.7754 -2.0200
  194DOPC  H13B23941   2.487   7.621   2.386  1.9409  0.6013  0.5270
  194DOPC  H13C23942   2.497   7.688   2.230 -2.2895 -1.3988 -0.4505
  194DOPC   C1423943   2.738   7.549   2.440 -0.4444  0.4551  0.5542
  194DOPC  H14A23944   2.732   7.452   2.394 -1.2170  0.1963  1.1846
  194DOPC  H14B23945   2.845   7.559   2.455 -0.3623  1.6471 -0.6467
  194DOPC  H14C23946   2.683   7.544   2.533  1.5517  1.6342  1.8776
  194DOPC   C1523947   2.779   7.658   2.216  0.0033  0.1648 -0.3213
  194DOPC  H15A23948   2.747   7.720   2.133 -2.4067 -2.0275 -1.1766
  194DOPC  H15B23949   2.801   7.559   2.181  1.7338  0.8321 -1.2250
  194DOPC  H15C23950   2.878   7.691   2.244  0.3710 -2.1585  1.4610
  194DOPC   C1123951   2.631   7.810   2.541 -0.1042  0.0024 -0.5334
  194DOPC  H11A23952   2.680   7.742   2.614  0.0962 -0.0376 -0.7034
  194DOPC  H11B23953   2.663   7.909   2.580 -1.0463  1.7900 -3.8822
  194DOPC     P23954   2.402   7.744   2.634  0.2174 -0.2763 -0.3499
  194DOPC   O1323955   2.454   7.616   2.680 -0.0829  0.0520  0.1848
  194DOPC   O1423956   2.265   7.749   2.586  0.1716 -0.6930 -0.3283
  194DOPC   O1223957   2.489   7.804   2.525 -0.8044 -0.5535  0.6294
  194DOPC   O1123958   2.412   7.851   2.753 -0.2746 -0.4527  0.2076
  194DOPC    C123959   2.405   7.988   2.743 -0.6673  0.6348  0.5979
  194DOPC    HA23960   2.347   8.023   2.655 -0.7608  1.5782  1.0150
  194DOPC    HB23961   2.508   8.030   2.732 -0.3672 -0.1125  0.5056
  194DOPC    C223962   2.344   8.051   2.866  0.1199 -0.2425  0.3854
  194DOPC    HS23963   2.349   8.160   2.845  1.9407 -0.4197 -0.2323
  194DOPC   O2123964   2.402   8.012   2.995 -0.5857 -0.5673 -0.2887
  194DOPC   C2123965   2.513   8.079   3.025  0.1960  0.6156  0.0372
  194DOPC   O2223966   2.564   8.173   2.965  0.2905 -0.1939  0.2330
  194DOPC   C2223967   2.571   8.019   3.146 -0.4811 -0.0065 -0.3862
  194DOPC   H2R23968   2.659   7.956   3.120  0.7513  1.6304 -0.3394
  194DOPC   H2S23969   2.492   7.968   3.205  0.0204 -2.2092 -1.5039
  194DOPC    C323970   2.198   8.013   2.880  0.0181 -0.3119  0.4088
  194DOPC    HX23971   2.172   7.909   2.909 -0.5106  0.2824  2.1651
  194DOPC    HY23972   2.152   8.016   2.779  0.9285 -0.4396 -0.0188
  194DOPC   O3123973   2.128   8.108   2.959 -0.4526 -0.1877  0.3466
  194DOPC   C3123974   2.073   8.082   3.075 -0.1684  0.1824 -0.1984
  194DOPC   O3223975   2.076   7.973   3.132 -0.2588  0.1659 -0.1520
  194DOPC   C3223976   2.014   8.209   3.128 -0.3629 -0.3745  0.6754
  194DOPC   H2X23977   2.094   8.284   3.141  0.9053 -1.9694  2.6762
  194DOPC   H2Y23978   1.947   8.247   3.048 -0.7316  1.0336  1.6068
  194DOPC   C2323979   2.642   8.133   3.217 -0.5987  0.0866  0.3881
  194DOPC   H3R23980   2.570   8.210   3.251 -0.8928  0.2013 -0.4786
  194DOPC   H3S23981   2.723   8.171   3.151  0.6258 -3.5568 -0.4801
  194DOPC   C2423982   2.712   8.077   3.342 -0.0471 -0.2414  0.3824
  194DOPC   H4R23983   2.803   8.018   3.319 -1.4131 -1.8776 -1.0148
  194DOPC   H4S23984   2.648   8.004   3.396  0.0099 -1.4751 -1.1480
  194DOPC   C2523985   2.745   8.185   3.455 -0.4954 -0.5284  0.2492
  194DOPC   H5R23986   2.650   8.230   3.492  0.2600  1.1489  0.2588
  194DOPC   H5S23987   2.799   8.272   3.410  0.7072 -1.3263  0.1029
  194DOPC   C2623988   2.825   8.127   3.571  0.4535 -1.1050 -0.0665
  194DOPC   H6R23989   2.920   8.097   3.522  0.6080 -0.4829 -0.1511
  194DOPC   H6S23990   2.783   8.033   3.615  0.9117 -0.6621  1.3810
  194DOPC   C2723991   2.878   8.240   3.663 -1.1593  0.3590 -0.2840
  194DOPC   H7R23992   2.788   8.294   3.700 -2.2585 -0.9379 -0.9841
  194DOPC   H7S23993   2.935   8.318   3.608 -0.4872 -0.3535 -0.6067
  194DOPC   C2823994   2.955   8.180   3.777  0.5251  0.2118 -0.3472
  194DOPC   H8R23995   3.053   8.158   3.730  1.6838  0.4732  1.7987
  194DOPC   H8S23996   2.905   8.089   3.819 -2.4256  0.9223 -2.0104
  194DOPC   C2923997   2.981   8.271   3.895 -0.2558  0.2955 -0.2731
  194DOPC   H9R23998   3.033   8.365   3.869  0.3331 -0.5067 -2.1928
  194DOPC  C21023999   2.954   8.229   4.026  0.2415 -0.3226  0.3047
  194DOPC  H10R24000   2.992   8.292   4.107 -1.6662 -0.3201  1.2669
  194DOPC  C21124001   2.895   8.099   4.067 -0.1279  0.5898  0.0447
  194DOPC  H11R24002   2.959   8.011   4.043 -0.2525  0.7409 -0.8702
  194DOPC  H11S24003   2.802   8.073   4.014 -1.4534  2.0588  1.5282
  194DOPC  C21224004   2.845   8.081   4.212  0.7285  0.5164  0.3323
  194DOPC  H12R24005   2.772   8.162   4.229 -0.2657 -0.5435  1.2168
  194DOPC  H12S24006   2.930   8.100   4.281  1.4329  0.0670 -0.3872
  194DOPC  C21324007   2.774   7.952   4.246  0.3785  0.6689  0.7053
  194DOPC  H13R24008   2.720   7.897   4.166 -0.9534 -1.2260  2.8021
  194DOPC  H13S24009   2.696   7.982   4.318 -0.1857  0.7903  0.0594
  194DOPC  C21424010   2.872   7.851   4.307  0.2060 -0.0312  0.1631
  194DOPC  H14R24011   2.912   7.889   4.404  0.5969 -1.1513  0.4432
  194DOPC  H14S24012   2.964   7.841   4.247  1.3283 -0.0892  1.8100
  194DOPC  C21524013   2.820   7.711   4.332  0.0848 -0.0943  0.0383
  194DOPC  H15R24014   2.787   7.664   4.237  0.5265 -0.0818 -0.1236
  194DOPC  H15S24015   2.727   7.725   4.392  1.5787  0.7665  2.2583
  194DOPC  C21624016   2.910   7.626   4.421  0.0786 -0.2265  0.8015
  194DOPC  H16R24017   2.930   7.677   4.517  1.3871 -0.0458  0.4503
  194DOPC  H16S24018   3.000   7.605   4.358 -0.0048  2.2804 -0.2813
  194DOPC  C21724019   2.846   7.491   4.465 -1.1261  0.1399  0.4274
  194DOPC  H17R24020   2.810   7.437   4.375  5.2606  0.6483 -2.9918
  194DOPC  H17S24021   2.755   7.502   4.529 -1.1638 -2.2038  0.8806
  194DOPC  C21824022   2.955   7.400   4.531 -1.0594  0.3056 -0.1448
  194DOPC  H18R24023   2.920   7.295   4.532 -0.9141  0.2318 -1.1489
  194DOPC  H18S24024   2.983   7.431   4.634  0.1513 -1.5244  0.1020
  194DOPC  H18T24025   3.050   7.399   4.473  1.7615  1.8267  4.0043
  194DOPC   C3324026   1.937   8.176   3.251 -0.9752  0.2370 -0.0752
  194DOPC   H3X24027   2.016   8.148   3.324  0.2939 -1.3663 -1.9627
  194DOPC   H3Y24028   1.877   8.085   3.229  1.4178 -1.1515 -1.2386
  194DOPC   C3424029   1.843   8.284   3.302  0.1988 -0.2180 -0.6768
  194DOPC   H4X24030   1.773   8.322   3.225  0.8988  0.3691 -1.0321
  194DOPC   H4Y24031   1.913   8.362   3.340 -0.5725  0.4020 -0.5007
  194DOPC   C3524032   1.751   8.239   3.417 -0.4991  0.1803  0.3844
  194DOPC   H5X24033   1.686   8.156   3.383  1.3585 -1.9608  1.7872
  194DOPC   H5Y24034   1.685   8.323   3.449 -0.1791  0.4357  0.3896
  194DOPC   C3624035   1.827   8.185   3.534  0.2055  0.6822 -0.1482
  194DOPC   H6X24036   1.894   8.106   3.495  0.0185  1.0695 -1.2799
  194DOPC   H6Y24037   1.888   8.262   3.587 -0.7850  0.3984  1.4929
  194DOPC   C3724038   1.729   8.125   3.645 -0.3593 -0.9526 -0.2481
  194DOPC   H7X24039   1.686   8.208   3.703  2.4130 -0.0898  0.7510
  194DOPC   H7Y24040   1.641   8.089   3.587 -0.1738 -1.1230 -0.4272
  194DOPC   C3824041   1.780   8.023   3.735 -0.5402  0.2598 -0.2677
  194DOPC   H8X24042   1.801   7.925   3.686 -0.3422  0.2022 -0.0685
  194DOPC   H8Y24043   1.703   8.015   3.815  0.4104 -0.8879  0.5849
  194DOPC   C3924044   1.903   8.063   3.818  0.7107 -0.6510 -0.2906
  194DOPC   H9X24045   1.949   8.157   3.783 -0.1752 -0.1542 -0.1435
  194DOPC  C31024046   1.958   8.008   3.926 -0.2269  0.9274 -0.6295
  194DOPC  H10X24047   2.049   8.054   3.968 -0.1233  0.9194 -0.8459
  194DOPC  C31124048   1.918   7.885   4.001  0.1561  0.3206 -0.1521
  194DOPC  H11X24049   1.995   7.807   3.989  0.8110  0.6541  1.5973
  194DOPC  H11Y24050   1.822   7.853   3.955 -1.0541  0.6131  1.9989
  194DOPC  C31224051   1.893   7.914   4.153  0.1051  0.2339 -0.2416
  194DOPC  H12X24052   1.827   8.004   4.160 -0.7047 -0.4819  2.1574
  194DOPC  H12Y24053   1.991   7.947   4.193 -0.1382  0.2540  0.3539
  194DOPC  C31324054   1.834   7.797   4.222  0.0128  0.6902 -0.3073
  194DOPC  H13X24055   1.731   7.796   4.180 -0.1492  2.2020 -0.0172
  194DOPC  H13Y24056   1.886   7.705   4.188 -2.1131  0.4743 -3.4037
  194DOPC  C31424057   1.829   7.807   4.376 -0.1242  0.4229 -0.2067
  194DOPC  H14X24058   1.934   7.813   4.413  0.2977  0.7046 -1.4048
  194DOPC  H14Y24059   1.773   7.897   4.410  0.8192  0.9361  0.0225
  194DOPC  C31524060   1.746   7.695   4.441 -0.4539  0.2011  0.3074
  194DOPC  H15X24061   1.783   7.668   4.542 -3.4428 -3.7374  0.5679
  194DOPC  H15Y24062   1.767   7.607   4.377 -1.8192 -0.7426  1.1324
  194DOPC  C31624063   1.596   7.716   4.451 -0.0763 -0.2050 -0.2149
  194DOPC  H16X24064   1.576   7.806   4.513  0.6732 -0.0874 -0.1372
  194DOPC  H16Y24065   1.549   7.718   4.351 -1.2408 -2.9998  0.1681
  194DOPC  C31724066   1.530   7.597   4.524 -0.0373 -0.2715 -0.6696
  194DOPC  H17X24067   1.550   7.502   4.471  1.4066  1.3675 -3.3166
  194DOPC  H17Y24068   1.575   7.603   4.626 -1.3751  0.9974 -0.1150
  194DOPC  C31824069   1.382   7.619   4.550 -0.4380  0.2356 -0.4942
  194DOPC  H18X24070   1.328   7.613   4.453 -0.2120  4.2319 -1.0197
  194DOPC  H18Y24071   1.363   7.530   4.613  3.0080  0.0289  0.4809
  194DOPC  H18Z24072   1.358   7.713   4.604 -1.2614  0.7972 -1.8050
  195DOPC     N24073   0.039   6.372   2.990 -0.1325  0.2958  0.2869
  195DOPC   C1224074   0.064   6.486   3.087  0.3254 -0.2339  0.1719
  195DOPC  H12A24075   0.081   6.444   3.185  2.4261 -1.2751 -0.5631
  195DOPC  H12B24076  -0.013   6.561   3.098 -0.6938 -1.0546 -1.0679
  195DOPC   C1324077   0.025   6.418   2.842 -0.4070  0.2290  0.1273
  195DOPC  H13A24078  -0.054   6.492   2.838  0.0771  0.7395 -0.1357
  195DOPC  H13B24079   0.114   6.472   2.813  2.1608 -3.5085  0.3907
  195DOPC  H13C24080   0.001   6.335   2.776 -2.0074  0.4829  0.3334
  195DOPC   C1424081  -0.097   6.309   3.013 -0.2971  0.4850 -0.3226
  195DOPC  H14A24082  -0.110   6.223   2.949 -2.2250  0.8666 -0.4991
  195DOPC  H14B24083  -0.120   6.272   3.112  1.4771 -2.6777 -0.9559
  195DOPC  H14C24084  -0.179   6.372   2.982 -1.9561 -0.6103  1.6029
  195DOPC   C1524085   0.148   6.268   2.990 -0.7057 -0.1586  0.0233
  195DOPC  H15A24086   0.168   6.231   3.090  0.0401 -0.3857 -0.2001
  195DOPC  H15B24087   0.240   6.312   2.953 -0.1676 -1.5680 -0.4086
  195DOPC  H15C24088   0.116   6.186   2.927  0.4732 -1.0802  0.5645
  195DOPC   C1124089   0.193   6.573   3.055 -0.2163  0.0408 -0.7375
  195DOPC  H11A24090   0.213   6.603   2.950  0.8946 -1.3646 -0.9575
  195DOPC  H11B24091   0.184   6.669   3.110  0.4327 -0.1737 -0.2523
  195DOPC     P24092   0.361   6.485   3.246  0.5454 -0.0320  0.0811
  195DOPC   O1324093   0.505   6.475   3.241 -0.7243  0.0412  0.3840
  195DOPC   O1424094   0.283   6.380   3.313  0.0588  0.0530 -0.2583
  195DOPC   O1224095   0.302   6.503   3.097 -0.2857 -0.1065 -0.0021
  195DOPC   O1124096   0.326   6.630   3.293  0.4850 -0.5741  0.1716
  195DOPC    C124097   0.215   6.652   3.382 -0.2099  0.1383 -0.0045
  195DOPC    HA24098   0.134   6.578   3.367 -0.4032  0.0602  1.3434
  195DOPC    HB24099   0.169   6.748   3.352  0.7793  1.1484  1.5977
  195DOPC    C224100   0.259   6.658   3.533  0.3831 -0.1699 -0.1832
  195DOPC    HS24101   0.288   6.759   3.569  1.9097 -0.8524  0.6024
  195DOPC   O2124102   0.366   6.569   3.557 -0.6739  0.0853 -0.0034
  195DOPC   C2124103   0.459   6.611   3.644  0.4548  0.0688  0.0886
  195DOPC   O2224104   0.444   6.715   3.712  0.6456 -0.7210  0.2026
  195DOPC   C2224105   0.577   6.520   3.651 -0.4974 -0.3788 -0.1122
  195DOPC   H2R24106   0.598   6.471   3.554  0.0391  1.1240 -0.7839
  195DOPC   H2S24107   0.566   6.438   3.724  1.7997 -0.6101  0.0571
  195DOPC    C324108   0.141   6.614   3.625  0.5271  0.0701 -0.5832
  195DOPC    HX24109   0.106   6.521   3.576 -1.8207  0.5179  0.0942
  195DOPC    HY24110   0.048   6.674   3.629 -0.0125 -0.8073  1.1874
  195DOPC   O3124111   0.178   6.580   3.760 -0.1911 -0.1432 -0.6914
  195DOPC   C3124112   0.157   6.679   3.848 -0.0937 -0.5242 -0.3358
  195DOPC   O3224113   0.077   6.773   3.840  0.1624  0.4020  0.0928
  195DOPC   C3224114   0.235   6.640   3.968  0.1579  0.0738 -0.1256
  195DOPC   H2X24115   0.328   6.700   3.958  0.4610 -0.2977  0.3697
  195DOPC   H2Y24116   0.189   6.674   4.063  1.0270 -2.7763  1.4477
  195DOPC   C2324117   0.714   6.591   3.690  0.3438  0.1910  0.3239
  195DOPC   H3R24118   0.733   6.668   3.612 -0.8886  0.3340  0.1516
  195DOPC   H3S24119   0.791   6.513   3.672  0.7501  0.4427  0.9287
  195DOPC   C2424120   0.721   6.632   3.835 -0.4675 -0.6288 -0.5694
  195DOPC   H4R24121   0.649   6.712   3.864  0.2977  0.0254 -0.4397
  195DOPC   H4S24122   0.822   6.677   3.843 -1.1817  0.8896  0.4961
  195DOPC   C2524123   0.731   6.515   3.939 -0.5254 -0.4934 -0.5903
  195DOPC   H5R24124   0.825   6.463   3.910  0.4910  1.2785 -0.6541
  195DOPC   H5S24125   0.661   6.431   3.923 -1.4335  0.0071  0.6005
  195DOPC   C2624126   0.721   6.558   4.085 -0.2755 -0.4891  0.0132
  195DOPC   H6R24127   0.629   6.604   4.127  0.2517 -1.1339  1.9921
  195DOPC   H6S24128   0.796   6.639   4.103  0.8486 -0.9779 -2.0646
  195DOPC   C2724129   0.755   6.452   4.192  0.1796 -0.9948 -0.6749
  195DOPC   H7R24130   0.855   6.408   4.176  0.8589  0.8388 -1.6949
  195DOPC   H7S24131   0.677   6.373   4.200  0.3354 -1.1670 -0.8568
  195DOPC   C2824132   0.763   6.524   4.333 -0.6716 -0.6865 -0.3693
  195DOPC   H8R24133   0.663   6.559   4.364 -0.5156  0.1556 -0.7899
  195DOPC   H8S24134   0.830   6.611   4.318  0.7664 -1.7337 -0.2449
  195DOPC   C2924135   0.819   6.430   4.437  0.6484  0.1635 -0.4894
  195DOPC   H9R24136   0.799   6.323   4.421  1.8724 -0.5346  2.1302
  195DOPC  C21024137   0.875   6.460   4.554 -0.2348  0.3503  0.0979
  195DOPC  H10R24138   0.889   6.378   4.626  0.2136 -1.0145 -1.5055
  195DOPC  C21124139   0.902   6.595   4.609 -0.1726  0.7211  0.1794
  195DOPC  H11R24140   0.883   6.668   4.528  0.2278  1.5920  0.8562
  195DOPC  H11S24141   1.006   6.610   4.645 -0.6338  1.6566  1.1720
  195DOPC  C21224142   0.807   6.625   4.725  0.4248 -0.3670 -0.5931
  195DOPC  H12R24143   0.701   6.604   4.701  0.2799  0.5583 -0.8051
  195DOPC  H12S24144   0.810   6.734   4.748 -2.5545 -0.6340  1.6824
  195DOPC  C21324145   0.828   6.566   4.860 -0.6325  0.2764  0.6847
  195DOPC  H13R24146   0.926   6.597   4.902 -0.1703 -1.6262  1.0740
  195DOPC  H13S24147   0.827   6.455   4.858 -0.3954  0.2292  2.1498
  195DOPC  C21424148   0.720   6.609   4.959  0.0259  0.9179 -0.0884
  195DOPC  H14R24149   0.696   6.716   4.938 -0.6779  0.4452 -1.8974
  195DOPC  H14S24150   0.749   6.595   5.065 -3.0321 -0.1928  0.7184
  195DOPC  C21524151   0.582   6.529   4.953  0.0110 -0.0799 -0.4818
  195DOPC  H15R24152   0.605   6.423   4.928 -0.4715 -0.2292 -0.2793
  195DOPC  H15S24153   0.525   6.568   4.866 -1.0585  1.1446  0.7232
  195DOPC  C21624154   0.504   6.548   5.086 -1.0355  0.1250  0.3742
  195DOPC  H16R24155   0.550   6.638   5.132  0.3884 -0.8833  0.9820
  195DOPC  H16S24156   0.526   6.461   5.151  0.1297 -2.0786 -2.6724
  195DOPC  C21724157   0.353   6.557   5.073  0.1610  0.5083  0.9953
  195DOPC  H17R24158   0.311   6.523   5.171 -0.4883 -3.4651 -0.4659
  195DOPC  H17S24159   0.328   6.473   5.004 -0.6432  0.3483  1.4649
  195DOPC  C21824160   0.300   6.691   5.021  0.0573  0.0326  0.4798
  195DOPC  H18R24161   0.331   6.781   5.080 -0.8066  1.5660 -1.3018
  195DOPC  H18S24162   0.190   6.689   5.009 -0.0123 -3.5965  0.7302
  195DOPC  H18T24163   0.350   6.703   4.923  3.3399 -1.1310  1.8433
  195DOPC   C3324164   0.281   6.493   3.986  0.5502  0.1148 -0.4995
  195DOPC   H3X24165   0.358   6.464   3.912  1.9462  0.4014  0.8016
  195DOPC   H3Y24166   0.193   6.426   3.973  1.2868 -1.1701  0.8900
  195DOPC   C3424167   0.336   6.469   4.124  0.0592 -0.1458  0.6507
  195DOPC   H4X24168   0.255   6.470   4.200 -0.8107 -0.5959 -0.2415
  195DOPC   H4Y24169   0.417   6.536   4.159  0.4901 -0.7745  0.8664
  195DOPC   C3524170   0.398   6.325   4.146  0.4184 -0.0866 -0.0318
  195DOPC   H5X24171   0.488   6.314   4.082  1.0794  2.4199  0.3628
  195DOPC   H5Y24172   0.323   6.257   4.100  0.0334  2.0348 -2.7830
  195DOPC   C3624173   0.427   6.290   4.292  0.3839 -0.3103 -0.7520
  195DOPC   H6X24174   0.504   6.356   4.338  0.9531 -0.4262 -1.5300
  195DOPC   H6Y24175   0.329   6.316   4.338  0.8051 -0.6485  0.3832
  195DOPC   C3724176   0.472   6.146   4.315  0.1429  0.2618  0.8937
  195DOPC   H7X24177   0.396   6.076   4.274 -0.3310  0.3562  1.5954
  195DOPC   H7Y24178   0.566   6.133   4.259  1.7059  2.4009  2.8374
  195DOPC   C3824179   0.505   6.104   4.463  0.2533  0.0489  0.6908
  195DOPC   H8X24180   0.603   6.153   4.481  0.8104  0.0814 -1.8991
  195DOPC   H8Y24181   0.523   5.994   4.462 -2.0298 -0.3761 -1.0807
  195DOPC   C3924182   0.405   6.136   4.566 -0.0391 -0.1582 -1.0892
  195DOPC   H9X24183   0.306   6.132   4.520 -0.4693  0.2083 -0.2204
  195DOPC  C31024184   0.423   6.152   4.698  0.5306  0.6737  1.0931
  195DOPC  H10X24185   0.330   6.154   4.757 -0.4404 -1.3418 -0.2427
  195DOPC  C31124186   0.559   6.136   4.763  0.4646  0.6405 -0.0285
  195DOPC  H11X24187   0.604   6.236   4.780  3.1619 -0.6164  0.6480
  195DOPC  H11Y24188   0.643   6.084   4.712  0.3410  0.3484  0.0632
  195DOPC  C31224189   0.558   6.084   4.908  0.0139  0.1195 -0.6460
  195DOPC  H12X24190   0.496   5.992   4.917 -1.0650  0.9670  1.1548
  195DOPC  H12Y24191   0.505   6.161   4.969 -0.2632 -0.7496  0.2402
  195DOPC  C31324192   0.700   6.051   4.962 -0.2523 -0.3166 -0.0931
  195DOPC  H13X24193   0.758   5.985   4.894 -1.4284 -3.2830  1.5966
  195DOPC  H13Y24194   0.759   6.141   4.989 -0.1616 -0.7036  1.0815
  195DOPC  C31424195   0.703   5.966   5.093  1.1163  0.4053  0.2694
  195DOPC  H14X24196   0.649   5.873   5.065  0.2838  1.3275 -1.3197
  195DOPC  H14Y24197   0.807   5.934   5.116  0.4486 -0.8458  1.7277
  195DOPC  C31524198   0.665   6.036   5.215  0.0445  0.0327  1.1503
  195DOPC  H15X24199   0.564   6.077   5.194 -0.1634 -1.5527 -1.2936
  195DOPC  H15Y24200   0.731   6.126   5.223  1.7223 -0.8692 -1.3600
  195DOPC  C31624201   0.668   5.942   5.335 -0.1927 -0.0168  0.2217
  195DOPC  H16X24202   0.589   5.867   5.314  0.1710  0.4741 -3.6228
  195DOPC  H16Y24203   0.769   5.898   5.344  0.4699  1.6423  1.6051
  195DOPC  C31724204   0.639   6.007   5.474 -0.7457 -0.3392 -0.3161
  195DOPC  H17X24205   0.704   6.096   5.486 -2.9469  1.5776 -1.7651
  195DOPC  H17Y24206   0.538   6.054   5.475 -0.5289  0.1514 -1.2510
  195DOPC  C31824207   0.657   5.909   5.590 -0.1913  0.3780  0.3801
  195DOPC  H18X24208   0.599   5.814   5.584  0.7776 -0.2377  0.5368
  195DOPC  H18Y24209   0.763   5.879   5.576  0.6591  2.3957  2.0400
  195DOPC  H18Z24210   0.663   5.961   5.688  4.7261  0.0663  0.4921
  196DOPC     N24211   1.778   1.861   2.639 -0.2723  0.2117 -0.2323
  196DOPC   C1224212   1.677   1.753   2.625 -0.6066  0.3469 -0.0075
  196DOPC  H12A24213   1.697   1.705   2.531  0.2913  0.8270 -0.0723
  196DOPC  H12B24214   1.578   1.791   2.602 -1.0720 -0.8908 -0.1108
  196DOPC   C1324215   1.912   1.803   2.606 -0.0415 -0.0579  0.5749
  196DOPC  H13A24216   1.948   1.742   2.687  1.2398  0.3500  0.3311
  196DOPC  H13B24217   1.894   1.740   2.520  1.7878 -3.0552  2.2039
  196DOPC  H13C24218   1.983   1.878   2.574  2.0075 -1.8313  0.7147
  196DOPC   C1424219   1.782   1.922   2.771  0.4903 -1.1166 -0.4977
  196DOPC  H14A24220   1.688   1.969   2.794  1.0480 -0.3943  0.3710
  196DOPC  H14B24221   1.817   1.847   2.841  1.2096 -2.5083 -2.2775
  196DOPC  H14C24222   1.847   2.007   2.786 -1.0216  0.0660 -0.3681
  196DOPC   C1524223   1.755   1.968   2.536 -0.3451 -1.2097  0.4787
  196DOPC  H15A24224   1.834   2.040   2.549  2.4138 -3.7376 -0.9079
  196DOPC  H15B24225   1.662   2.022   2.546  0.1414 -0.0210 -1.0545
  196DOPC  H15C24226   1.768   1.927   2.437 -1.0408  0.6398 -0.4105
  196DOPC   C1124227   1.667   1.642   2.734 -0.6550 -0.5833  0.1548
  196DOPC  H11A24228   1.769   1.597   2.739 -0.0705  0.7379  0.8885
  196DOPC  H11B24229   1.659   1.702   2.828 -0.9369 -1.3268  0.6110
  196DOPC     P24230   1.410   1.574   2.709 -0.5533 -0.1097  0.0704
  196DOPC   O1324231   1.345   1.453   2.657  0.1846 -0.1296 -0.0162
  196DOPC   O1424232   1.371   1.705   2.649 -0.3508  0.3120 -0.3265
  196DOPC   O1224233   1.566   1.549   2.709 -0.3717  0.0317 -0.3885
  196DOPC   O1124234   1.376   1.592   2.862  0.0739  0.6010 -0.0204
  196DOPC    C124235   1.427   1.507   2.960  0.0287  0.0125  0.1631
  196DOPC    HA24236   1.470   1.571   3.039  1.7098 -1.2257  0.3207
  196DOPC    HB24237   1.507   1.434   2.932  1.3052  0.5073  2.3369
  196DOPC    C224238   1.318   1.425   3.028 -0.4004  0.2093  0.6598
  196DOPC    HS24239   1.283   1.356   2.948 -1.9524  1.3016  0.3553
  196DOPC   O2124240   1.209   1.513   3.068  0.1843  0.0726  0.0915
  196DOPC   C2124241   1.090   1.456   3.064  1.4315 -0.3698 -0.5085
  196DOPC   O2224242   1.063   1.338   3.043  0.2192 -0.0677  0.5421
  196DOPC   C2224243   0.990   1.557   3.099 -0.9358  0.5703 -0.1602
  196DOPC   H2R24244   0.907   1.558   3.024  0.0418  0.2386 -1.2716
  196DOPC   H2S24245   1.033   1.660   3.103 -0.2866  0.3499 -1.1660
  196DOPC    C324246   1.361   1.360   3.163 -0.1371 -0.3693  1.0774
  196DOPC    HX24247   1.282   1.306   3.219  1.2115  0.5596  4.1076
  196DOPC    HY24248   1.391   1.452   3.218  0.5202 -0.2084  0.4659
  196DOPC   O3124249   1.476   1.282   3.137 -0.0188 -0.2027 -0.2004
  196DOPC   C3124250   1.437   1.156   3.103 -0.8565 -0.1803  0.0912
  196DOPC   O3224251   1.326   1.126   3.059  0.0723  0.6636 -0.1760
  196DOPC   C3224252   1.556   1.066   3.095  0.6428 -0.3388  0.2825
  196DOPC   H2X24253   1.602   1.067   2.994  1.4114  0.1254  0.6222
  196DOPC   H2Y24254   1.621   1.088   3.183 -1.0355  2.2618  0.9689
  196DOPC   C2324255   0.935   1.530   3.244  1.1124 -0.3262  0.4618
  196DOPC   H3R24256   1.006   1.503   3.325  0.2387  0.0018  1.3456
  196DOPC   H3S24257   0.869   1.441   3.238 -1.0976  1.2960 -0.5288
  196DOPC   C2424258   0.852   1.652   3.291  0.2908  0.0906 -0.0658
  196DOPC   H4R24259   0.795   1.673   3.198 -0.4802 -2.0699 -0.1263
  196DOPC   H4S24260   0.909   1.730   3.345 -1.0673 -0.1285  1.7565
  196DOPC   C2524261   0.743   1.612   3.392 -0.8568  0.5288 -0.4457
  196DOPC   H5R24262   0.694   1.518   3.359  0.1090  0.3560 -1.4088
  196DOPC   H5S24263   0.670   1.696   3.389 -1.5570 -0.0171  0.4781
  196DOPC   C2624264   0.795   1.587   3.528  0.2757  0.0719 -0.0768
  196DOPC   H6R24265   0.826   1.687   3.567  1.0125  0.4132 -1.4587
  196DOPC   H6S24266   0.882   1.519   3.517  1.0673  0.9213  0.7195
  196DOPC   C2724267   0.691   1.514   3.608 -0.4146  0.9630 -0.4096
  196DOPC   H7R24268   0.642   1.425   3.564 -0.8626  0.2392  1.4290
  196DOPC   H7S24269   0.610   1.586   3.634 -2.0660 -1.9127  3.4455
  196DOPC   C2824270   0.751   1.480   3.752  0.6413  0.7431  0.1396
  196DOPC   H8R24271   0.672   1.449   3.824  0.6336  0.0197 -0.1667
  196DOPC   H8S24272   0.805   1.573   3.780 -0.7996  1.6262  0.1354
  196DOPC   C2924273   0.842   1.360   3.749  0.7146 -0.1627  0.0683
  196DOPC   H9R24274   0.945   1.382   3.715  1.2827 -1.9895  0.4596
  196DOPC  C21024275   0.826   1.241   3.807 -0.3823  0.0136  0.4039
  196DOPC  H10R24276   0.900   1.164   3.779 -1.7141 -1.1430 -0.0477
  196DOPC  C21124277   0.699   1.183   3.861  0.5739  0.7358 -0.3313
  196DOPC  H11R24278   0.706   1.074   3.842  2.1895  0.5652  0.9875
  196DOPC  H11S24279   0.614   1.230   3.806  1.7827  1.2093 -1.8640
  196DOPC  C21224280   0.677   1.191   4.011  0.2257 -0.7544 -0.2572
  196DOPC  H12R24281   0.689   1.294   4.052  2.8507 -0.6893 -0.9835
  196DOPC  H12S24282   0.756   1.126   4.056  2.0899  1.3261 -0.3295
  196DOPC  C21324283   0.543   1.133   4.051  0.4919  0.2462 -0.2441
  196DOPC  H13R24284   0.559   1.023   4.054  1.2325  0.3353 -0.6439
  196DOPC  H13S24285   0.475   1.166   3.970 -0.9075 -0.2181  0.7177
  196DOPC  C21424286   0.504   1.172   4.196  0.2424 -0.4586 -0.1657
  196DOPC  H14R24287   0.400   1.141   4.222  0.5310  1.2887  3.9171
  196DOPC  H14S24288   0.511   1.282   4.206  1.9366 -0.5895  0.3774
  196DOPC  C21524289   0.592   1.110   4.305 -0.3355 -0.6080 -0.2152
  196DOPC  H15R24290   0.699   1.126   4.280 -0.0278 -1.7382  0.3445
  196DOPC  H15S24291   0.573   1.000   4.304  0.6990 -0.8049 -1.5209
  196DOPC  C21624292   0.551   1.177   4.442  0.6204 -0.3062 -0.1968
  196DOPC  H16R24293   0.441   1.193   4.449  1.0114  3.4454 -0.7510
  196DOPC  H16S24294   0.589   1.281   4.441 -1.3424  0.4459 -0.9605
  196DOPC  C21724295   0.591   1.113   4.571 -0.7321  0.6593 -0.0836
  196DOPC  H17R24296   0.585   1.002   4.562 -0.9197  0.2044  3.8576
  196DOPC  H17S24297   0.514   1.137   4.648 -0.6139  0.7667  0.0025
  196DOPC  C21824298   0.733   1.143   4.617  0.3664  0.5481 -0.7229
  196DOPC  H18R24299   0.790   1.136   4.522 -2.9127  0.3050 -2.8328
  196DOPC  H18S24300   0.766   1.077   4.701 -2.1175  0.3963  0.2279
  196DOPC  H18T24301   0.737   1.247   4.656 -1.4333  0.0506  0.9547
  196DOPC   C3324302   1.522   0.908   3.104 -0.5304  0.1029  0.8004
  196DOPC   H3X24303   1.610   0.850   3.069 -0.2342  0.8056  0.3566
  196DOPC   H3Y24304   1.443   0.889   3.028  0.3115 -0.1932 -0.0169
  196DOPC   C3424305   1.468   0.852   3.238  0.1919 -0.9293 -0.5777
  196DOPC   H4X24306   1.451   0.743   3.228  1.1479 -1.2300  0.7651
  196DOPC   H4Y24307   1.366   0.891   3.255  0.4256 -1.1925  1.7876
  196DOPC   C3524308   1.545   0.882   3.364  0.7963 -0.1711 -0.2208
  196DOPC   H5X24309   1.552   0.991   3.383  1.3226  0.3340 -2.9229
  196DOPC   H5Y24310   1.650   0.847   3.359  0.3167 -1.8889  0.7527
  196DOPC   C3624311   1.472   0.815   3.484 -0.4264 -0.5934 -0.0951
  196DOPC   H6X24312   1.363   0.831   3.472 -0.5011 -1.6332 -0.9080
  196DOPC   H6Y24313   1.491   0.707   3.468 -1.3263 -0.7615 -0.0605
  196DOPC   C3724314   1.513   0.873   3.623  0.2985  0.1072  0.0739
  196DOPC   H7X24315   1.495   0.982   3.612  0.7818  0.2979  1.0529
  196DOPC   H7Y24316   1.457   0.833   3.711  0.1098 -0.4799 -0.3097
  196DOPC   C3824317   1.660   0.850   3.656  0.8540 -0.1778 -0.1984
  196DOPC   H8X24318   1.727   0.878   3.571  2.1245 -0.6846  0.6030
  196DOPC   H8Y24319   1.683   0.741   3.656  0.4396 -0.2989 -1.9025
  196DOPC   C3924320   1.687   0.929   3.786 -0.3852  0.6228  0.1208
  196DOPC   H9X24321   1.657   1.035   3.782  0.0323  0.8494  1.9505
  196DOPC  C31024322   1.717   0.876   3.900  0.7416 -0.7385 -0.3397
  196DOPC  H10X24323   1.715   0.942   3.989 -0.5168 -2.8623  1.2964
  196DOPC  C31124324   1.737   0.731   3.936  0.1052  0.2218 -1.1935
  196DOPC  H11X24325   1.801   0.713   4.025  0.5583 -2.4931 -1.9720
  196DOPC  H11Y24326   1.784   0.677   3.851  0.9635  0.6453 -0.9951
  196DOPC  C31224327   1.596   0.666   3.957  0.3615  0.1679  0.1941
  196DOPC  H12X24328   1.555   0.644   3.856  0.6706  1.3762 -0.2028
  196DOPC  H12Y24329   1.525   0.733   4.010  1.4716 -0.9752  3.3896
  196DOPC  C31324330   1.606   0.535   4.041  0.6669  0.1689 -0.0110
  196DOPC  H13X24331   1.519   0.469   4.024 -0.4264  1.7024 -0.5935
  196DOPC  H13Y24332   1.690   0.477   3.995 -0.1906 -1.6130  0.5706
  196DOPC  C31424333   1.649   0.553   4.181  0.0202 -0.4251 -0.9880
  196DOPC  H14X24334   1.758   0.547   4.200 -0.3999 -0.7569  1.8047
  196DOPC  H14Y24335   1.607   0.654   4.201 -2.2347 -1.2517 -1.3124
  196DOPC  C31524336   1.584   0.460   4.293 -0.0032 -0.4097 -0.8184
  196DOPC  H15X24337   1.645   0.474   4.385 -0.2497  2.1658 -0.9854
  196DOPC  H15Y24338   1.591   0.352   4.268 -2.9200 -1.1476  1.0298
  196DOPC  C31624339   1.442   0.492   4.329  0.9091  0.4782 -0.2192
  196DOPC  H16X24340   1.429   0.585   4.388 -1.3094 -0.8379  1.5016
  196DOPC  H16Y24341   1.394   0.516   4.232  2.1923  0.2147 -0.9374
  196DOPC  C31724342   1.367   0.379   4.405 -0.5397 -0.1138  0.1925
  196DOPC  H17X24343   1.354   0.282   4.352 -2.7752  0.6187 -0.7164
  196DOPC  H17Y24344   1.422   0.362   4.500 -0.3523 -0.2615  0.0587
  196DOPC  C31824345   1.226   0.444   4.428 -0.2439  0.2386  0.4794
  196DOPC  H18X24346   1.168   0.462   4.335  1.6183  0.6916 -0.6320
  196DOPC  H18Y24347   1.160   0.372   4.483 -2.0203 -0.5856 -2.5219
  196DOPC  H18Z24348   1.225   0.537   4.488 -1.0248  1.2896 -1.1049
  197DOPC     N24349   2.314   6.734   2.664 -0.1936  0.2571  0.2206
  197DOPC   C1224350   2.238   6.849   2.740  0.0456 -0.7144  0.0164
  197DOPC  H12A24351   2.152   6.880   2.682 -0.2045 -2.4541 -0.5891
  197DOPC  H12B24352   2.303   6.935   2.751 -0.3477 -0.5971  1.8102
  197DOPC   C1324353   2.368   6.790   2.534 -0.5727  1.1010  0.4772
  197DOPC  H13A24354   2.448   6.859   2.558 -1.0692  1.5556  0.8544
  197DOPC  H13B24355   2.405   6.709   2.473 -3.6625  1.3828 -2.0148
  197DOPC  H13C24356   2.292   6.849   2.485 -0.5317  2.2624  1.7621
  197DOPC   C1424357   2.222   6.626   2.640 -0.3334  0.1589  0.4618
  197DOPC  H14A24358   2.169   6.595   2.729  0.3837 -0.0306  0.8298
  197DOPC  H14B24359   2.152   6.658   2.564  1.0280  1.0338 -0.4697
  197DOPC  H14C24360   2.273   6.540   2.599 -1.0535 -1.4296  2.7013
  197DOPC   C1524361   2.432   6.682   2.750  0.7791  0.1354 -0.2323
  197DOPC  H15A24362   2.397   6.625   2.835  2.2237 -1.4673 -0.6566
  197DOPC  H15B24363   2.496   6.758   2.793 -0.8100  0.2912  2.1107
  197DOPC  H15C24364   2.491   6.617   2.689  1.9356  0.6916  0.2626
  197DOPC   C1124365   2.178   6.826   2.881  0.4539  0.0285 -0.7999
  197DOPC  H11A24366   2.259   6.815   2.956  0.5036  3.9119 -0.0674
  197DOPC  H11B24367   2.134   6.922   2.914 -0.6895 -1.0568  1.0043
  197DOPC     P24368   1.942   6.720   2.886  0.1615  0.1168  0.5180
  197DOPC   O1324369   1.894   6.581   2.882  0.1724  0.2907  0.8504
  197DOPC   O1424370   1.899   6.805   2.770 -0.1074  0.2165  0.5170
  197DOPC   O1224371   2.095   6.708   2.883 -0.3165  0.2620 -0.4739
  197DOPC   O1124372   1.919   6.794   3.024  0.1576  0.3552 -0.0984
  197DOPC    C124373   1.900   6.725   3.147  0.0049 -1.0245  0.3661
  197DOPC    HA24374   1.915   6.615   3.142  0.0559 -0.9712 -0.7358
  197DOPC    HB24375   1.792   6.746   3.166 -0.0667  0.7624 -1.7418
  197DOPC    C224376   1.971   6.775   3.269 -0.2590  0.7335 -0.4088
  197DOPC    HS24377   1.965   6.707   3.357 -1.5853  0.6014 -0.5712
  197DOPC   O2124378   1.919   6.898   3.315  0.2691 -0.0298 -0.3646
  197DOPC   C2124379   1.932   6.930   3.443  1.0970 -0.1565  0.5594
  197DOPC   O2224380   1.969   6.857   3.533 -0.4813 -0.1408 -0.3684
  197DOPC   C2224381   1.876   7.073   3.452  0.0961 -0.0828  0.3002
  197DOPC   H2R24382   1.765   7.069   3.460 -0.1284  0.5458 -1.8273
  197DOPC   H2S24383   1.897   7.130   3.359  0.3512  0.2233  0.5439
  197DOPC    C324384   2.123   6.797   3.237  0.0732  0.1826  0.3953
  197DOPC    HX24385   2.120   6.864   3.148 -2.2496 -0.8010 -0.3344
  197DOPC    HY24386   2.160   6.699   3.198  1.2311  0.4894  0.6952
  197DOPC   O3124387   2.200   6.861   3.344 -0.1932  0.4356  0.3153
  197DOPC   C3124388   2.242   6.775   3.434  0.2335  0.5505  0.2627
  197DOPC   O3224389   2.241   6.651   3.419 -0.5621  0.3369 -0.0734
  197DOPC   C3224390   2.294   6.860   3.555  0.1151 -0.0791 -0.5624
  197DOPC   H2X24391   2.397   6.891   3.526  0.0047  0.3287 -0.5247
  197DOPC   H2Y24392   2.221   6.941   3.574  1.3775  0.7779  0.7717
  197DOPC   C2324393   1.927   7.154   3.576 -0.4019 -0.2302 -0.3684
  197DOPC   H3R24394   2.036   7.174   3.574 -0.2612 -0.6363  1.5304
  197DOPC   H3S24395   1.908   7.096   3.669  2.3726  1.1531  1.1649
  197DOPC   C2424396   1.871   7.300   3.583  0.2684  0.3563 -0.0250
  197DOPC   H4R24397   1.760   7.301   3.579  0.1634 -0.0580  1.9155
  197DOPC   H4S24398   1.895   7.356   3.490 -2.7886 -0.4933 -1.4382
  197DOPC   C2524399   1.929   7.382   3.694 -0.1855 -0.2128 -0.2224
  197DOPC   H5R24400   2.038   7.393   3.672  0.0073 -2.1175 -0.3556
  197DOPC   H5S24401   1.929   7.338   3.796 -0.1893 -0.6847 -0.4233
  197DOPC   C2624402   1.866   7.522   3.710  0.8905 -0.4982 -0.4255
  197DOPC   H6R24403   1.882   7.571   3.612 -0.4809 -0.3134 -0.5683
  197DOPC   H6S24404   1.926   7.575   3.787  0.0998  1.7604 -1.2949
  197DOPC   C2724405   1.715   7.520   3.755 -0.2351 -0.2141  1.1092
  197DOPC   H7R24406   1.664   7.479   3.665  0.1747  0.9348  0.3238
  197DOPC   H7S24407   1.676   7.623   3.770 -2.8172 -0.4728 -2.4450
  197DOPC   C2824408   1.687   7.432   3.872 -0.2697 -0.2789  0.9621
  197DOPC   H8R24409   1.731   7.330   3.862  1.1060  0.2641  1.1770
  197DOPC   H8S24410   1.578   7.420   3.890 -0.3495 -0.4952  0.3658
  197DOPC   C2924411   1.739   7.497   4.003 -0.4300 -0.5910  0.0122
  197DOPC   H9R24412   1.848   7.506   4.003 -0.3303 -0.8332 -2.9374
  197DOPC  C21024413   1.674   7.504   4.123  0.7013 -0.8723  0.6064
  197DOPC  H10R24414   1.724   7.551   4.209 -0.6591  0.9720  0.4558
  197DOPC  C21124415   1.533   7.459   4.153  0.0462  0.0160 -0.6749
  197DOPC  H11R24416   1.468   7.469   4.063 -1.9228 -1.1355  0.5415
  197DOPC  H11S24417   1.485   7.517   4.235  0.4847  0.6907 -0.8847
  197DOPC  C21224418   1.535   7.315   4.204 -0.5715  0.0647  0.3282
  197DOPC  H12R24419   1.588   7.302   4.301  1.1198  0.7104 -0.4761
  197DOPC  H12S24420   1.580   7.251   4.124  0.6724 -0.0102  1.0638
  197DOPC  C21324421   1.392   7.258   4.234  0.3268  0.5819  0.0648
  197DOPC  H13R24422   1.403   7.151   4.261 -1.9890  1.1135  3.8922
  197DOPC  H13S24423   1.332   7.264   4.141  2.8252 -3.3481 -2.0473
  197DOPC  C21424424   1.322   7.318   4.353  0.0337  0.0610 -0.2412
  197DOPC  H14R24425   1.294   7.425   4.337 -1.8470 -0.5814 -1.5532
  197DOPC  H14S24426   1.396   7.322   4.436  1.2530  1.6905 -1.3367
  197DOPC  C21524427   1.199   7.239   4.406  0.2892 -0.2340 -0.3426
  197DOPC  H15R24428   1.229   7.215   4.510 -0.3955  1.4882  0.2902
  197DOPC  H15S24429   1.174   7.157   4.335 -1.0463 -0.1450 -0.0085
  197DOPC  C21624430   1.070   7.325   4.416 -0.0760 -0.2053  0.2206
  197DOPC  H16R24431   1.047   7.361   4.314 -0.7639  1.3144  0.8769
  197DOPC  H16S24432   1.093   7.421   4.468 -1.3796  0.9125 -1.1856
  197DOPC  C21724433   0.954   7.250   4.487  0.1592  0.5489  0.3044
  197DOPC  H17R24434   0.991   7.235   4.591  0.2131  1.2640  0.3932
  197DOPC  H17S24435   0.927   7.152   4.444  1.6454  0.8024 -1.3216
  197DOPC  C21824436   0.814   7.321   4.481 -0.4543 -1.2535  0.3011
  197DOPC  H18R24437   0.824   7.422   4.527 -0.2186 -0.6679 -0.9822
  197DOPC  H18S24438   0.736   7.276   4.546  0.9229 -1.1068  2.1241
  197DOPC  H18T24439   0.769   7.328   4.379  0.5344  1.5926 -0.0347
  197DOPC   C3324440   2.303   6.782   3.683  0.8691  0.3571 -0.0066
  197DOPC   H3X24441   2.375   6.836   3.749  1.9599  2.3963 -2.6851
  197DOPC   H3Y24442   2.356   6.684   3.679 -0.1660 -0.2371  0.2940
  197DOPC   C3424443   2.169   6.760   3.754  0.2276  0.0786 -0.2495
  197DOPC   H4X24444   2.101   6.715   3.678 -0.7651  0.4887  0.3763
  197DOPC   H4Y24445   2.128   6.852   3.800  0.7029  1.0004 -1.5985
  197DOPC   C3524446   2.168   6.661   3.878 -0.1398 -0.2740  0.3610
  197DOPC   H5X24447   2.207   6.565   3.837 -0.2317  0.5009 -1.6492
  197DOPC   H5Y24448   2.061   6.631   3.889 -0.5959  1.0340 -0.3781
  197DOPC   C3624449   2.238   6.698   4.005 -0.2333  0.2417 -0.5392
  197DOPC   H6X24450   2.230   6.603   4.063  0.0719  1.0947  0.9557
  197DOPC   H6Y24451   2.344   6.717   3.977  0.0920 -1.6683 -0.7017
  197DOPC   C3724452   2.187   6.816   4.097 -0.4649  0.2201  1.0328
  197DOPC   H7X24453   2.234   6.911   4.063  1.7472 -0.7837  1.1282
  197DOPC   H7Y24454   2.077   6.827   4.082 -0.0747  1.8862 -0.8995
  197DOPC   C3824455   2.227   6.786   4.240 -0.2014  0.6204  0.3887
  197DOPC   H8X24456   2.337   6.771   4.244  0.0845  2.7859  2.5695
  197DOPC   H8Y24457   2.190   6.681   4.253  0.0616  0.3111 -1.1872
  197DOPC   C3924458   2.167   6.870   4.349  0.1284 -0.2543  0.3509
  197DOPC   H9X24459   2.058   6.858   4.342 -0.0152  0.7128  0.7384
  197DOPC  C31024460   2.213   6.934   4.454  0.3013  0.4366  0.1681
  197DOPC  H10X24461   2.138   6.984   4.516 -0.1127 -2.3830  2.1409
  197DOPC  C31124462   2.359   6.944   4.492 -0.8737  0.6694  0.0204
  197DOPC  H11X24463   2.412   6.850   4.466  0.3413  1.7283 -1.5325
  197DOPC  H11Y24464   2.375   6.943   4.602 -0.8859 -0.7190  0.0361
  197DOPC  C31224465   2.439   7.064   4.422  0.2344  0.2863 -0.8679
  197DOPC  H12X24466   2.402   7.151   4.480 -0.2760 -0.1273 -0.5596
  197DOPC  H12Y24467   2.410   7.074   4.316 -1.1991 -0.6326 -0.5863
  197DOPC  C31324468   2.594   7.058   4.421 -0.5641  0.7516  0.7618
  197DOPC  H13X24469   2.628   7.055   4.527  2.9493  1.6743 -0.2032
  197DOPC  H13Y24470   2.630   6.965   4.372 -0.6110  1.7146 -1.2099
  197DOPC  C31424471   2.657   7.178   4.345 -0.3260 -0.0009  0.6779
  197DOPC  H14X24472   2.622   7.279   4.374 -0.9272  0.5261 -1.6717
  197DOPC  H14Y24473   2.763   7.175   4.378 -0.4263 -0.9387  0.9657
  197DOPC  C31524474   2.654   7.184   4.187  0.3794 -1.3058 -0.6221
  197DOPC  H15X24475   2.687   7.290   4.181 -1.9279 -0.1997  2.9668
  197DOPC  H15Y24476   2.550   7.169   4.152 -0.1040  1.0973 -0.3989
  197DOPC  C31624477   2.765   7.103   4.110  0.5118 -0.4804  0.7200
  197DOPC  H16X24478   2.785   7.153   4.012  1.7849 -0.2567  1.0703
  197DOPC  H16Y24479   2.865   7.121   4.156  0.3807  0.1490  0.7714
  197DOPC  C31724480   2.734   6.958   4.072  0.2496  0.2779 -0.1889
  197DOPC  H17X24481   2.826   6.912   4.031 -0.3091  2.0207 -3.7337
  197DOPC  H17Y24482   2.715   6.917   4.173  2.3292  2.1948  1.1036
  197DOPC  C31824483   2.610   6.934   3.985 -0.0136 -0.6195  0.3108
  197DOPC  H18X24484   2.633   6.955   3.878  0.1592  1.0023  0.6349
  197DOPC  H18Y24485   2.581   6.827   3.990  1.8534 -1.1742  0.0146
  197DOPC  H18Z24486   2.525   6.994   4.025 -0.5740 -1.1487 -0.0679
  198DOPC     N24487   1.768   5.511   2.824 -0.2544 -0.8153  0.4778
  198DOPC   C1224488   1.719   5.599   2.938 -0.1057  0.1772  0.1098
  198DOPC  H12A24489   1.611   5.605   2.938 -0.1523  0.2656 -1.8403
  198DOPC  H12B24490   1.751   5.702   2.929 -0.8870  0.6263  2.0105
  198DOPC   C1324491   1.917   5.492   2.827  0.4427 -0.5897 -0.3398
  198DOPC  H13A24492   1.957   5.424   2.754  1.5378 -0.2419 -0.0711
  198DOPC  H13B24493   1.960   5.588   2.804 -1.1694 -0.1781 -1.8336
  198DOPC  H13C24494   1.944   5.458   2.926 -2.5387  0.4852  0.9705
  198DOPC   C1424495   1.735   5.571   2.694 -0.0284 -0.5786  0.3354
  198DOPC  H14A24496   1.631   5.601   2.694  0.0758 -0.1904  0.9871
  198DOPC  H14B24497   1.795   5.659   2.675 -0.0750 -0.6044  0.0736
  198DOPC  H14C24498   1.739   5.503   2.611  0.5432 -1.1513  0.8147
  198DOPC   C1524499   1.698   5.385   2.832 -0.1871  0.3170 -0.0888
  198DOPC  H15A24500   1.723   5.327   2.920 -0.5706  2.9763  1.8894
  198DOPC  H15B24501   1.702   5.332   2.738 -3.2269  0.2979 -0.3135
  198DOPC  H15C24502   1.590   5.392   2.833 -0.2344 -0.1116 -0.9807
  198DOPC   C1124503   1.771   5.563   3.077  0.6116  0.2975  0.1918
  198DOPC  H11A24504   1.882   5.555   3.066  0.4547  1.1296 -3.1378
  198DOPC  H11B24505   1.768   5.648   3.149 -0.5346  1.9505 -1.6820
  198DOPC     P24506   1.565   5.448   3.176  0.3324 -0.0273 -0.1028
  198DOPC   O1324507   1.528   5.312   3.221 -0.0730  0.1409  0.1151
  198DOPC   O1424508   1.479   5.505   3.064 -0.3581 -0.2300  0.4181
  198DOPC   O1224509   1.717   5.448   3.131  0.3359  0.1292 -0.2045
  198DOPC   O1124510   1.569   5.559   3.294  0.0371  0.0317  0.3803
  198DOPC    C124511   1.637   5.534   3.414  0.1396  0.8642 -0.9273
  198DOPC    HA24512   1.702   5.617   3.449 -1.4306  0.9665  2.1197
  198DOPC    HB24513   1.721   5.461   3.406  0.0756  0.8204 -1.1981
  198DOPC    C224514   1.534   5.493   3.526  0.2393  0.2696  0.6933
  198DOPC    HS24515   1.477   5.406   3.484 -1.5338  0.5973  2.2847
  198DOPC   O2124516   1.444   5.608   3.556  0.2231  0.5331  0.1807
  198DOPC   C2124517   1.321   5.578   3.517 -0.1041 -0.2017  0.7257
  198DOPC   O2224518   1.274   5.473   3.483 -0.2883  0.0114  0.3862
  198DOPC   C2224519   1.237   5.708   3.528  0.2679  0.6992  0.2870
  198DOPC   H2R24520   1.235   5.753   3.427  0.0478  1.7570  0.7514
  198DOPC   H2S24521   1.296   5.781   3.587 -0.7476  0.6270  1.4251
  198DOPC    C324522   1.608   5.453   3.658 -0.3523  1.0682 -0.1876
  198DOPC    HX24523   1.676   5.536   3.686 -0.5909  1.5098 -0.8895
  198DOPC    HY24524   1.673   5.365   3.639 -2.7768 -1.3636  1.8477
  198DOPC   O3124525   1.511   5.432   3.758 -0.6019 -0.3782  0.5759
  198DOPC   C3124526   1.495   5.305   3.804 -0.2425 -0.2834  0.2944
  198DOPC   O3224527   1.543   5.207   3.748  0.0930  0.5048 -0.2796
  198DOPC   C3224528   1.414   5.298   3.940 -0.1724  0.3531  0.1794
  198DOPC   H2X24529   1.377   5.401   3.959  0.9518  0.8347 -0.1931
  198DOPC   H2Y24530   1.323   5.235   3.925 -1.4672  2.0526  0.5483
  198DOPC   C2324531   1.098   5.662   3.573  0.0640 -0.1961 -0.7866
  198DOPC   H3R24532   1.044   5.581   3.521  0.9827 -0.3151 -1.5775
  198DOPC   H3S24533   1.040   5.756   3.561 -0.7003 -0.8107 -2.0302
  198DOPC   C2424534   1.108   5.617   3.724  0.3439 -0.1708 -0.8915
  198DOPC   H4R24535   1.185   5.676   3.779  1.0505 -0.7113 -1.2723
  198DOPC   H4S24536   1.149   5.514   3.733  1.6535  0.4140  0.2210
  198DOPC   C2524537   0.966   5.609   3.786 -0.1267  0.0184  0.0647
  198DOPC   H5R24538   0.898   5.563   3.711  0.7874  1.3949 -1.6893
  198DOPC   H5S24539   0.929   5.713   3.799 -2.1012 -0.4441 -1.4015
  198DOPC   C2624540   0.948   5.542   3.922  0.4575 -0.0816  0.2739
  198DOPC   H6R24541   0.989   5.439   3.918  0.1001 -0.1788 -1.2119
  198DOPC   H6S24542   0.837   5.539   3.932  0.3599 -0.1731 -0.8069
  198DOPC   C2724543   1.011   5.627   4.029 -0.1437 -0.2057 -0.4530
  198DOPC   H7R24544   0.964   5.726   4.046 -1.2536 -0.5345 -1.4703
  198DOPC   H7S24545   1.116   5.648   4.000 -0.3914 -1.6581 -2.6530
  198DOPC   C2824546   1.008   5.560   4.167  0.4778  0.3984 -0.2067
  198DOPC   H8R24547   1.046   5.632   4.242  2.7232 -0.9665  0.0741
  198DOPC   H8S24548   1.079   5.474   4.169 -1.5327 -1.3658 -1.2276
  198DOPC   C2924549   0.870   5.516   4.214  0.1745  0.1551  0.0667
  198DOPC   H9R24550   0.782   5.577   4.188 -0.7714 -0.3132  2.0003
  198DOPC  C21024551   0.856   5.399   4.272 -0.2319 -0.1766  0.0152
  198DOPC  H10R24552   0.752   5.374   4.298 -0.3090  0.0171 -0.1019
  198DOPC  C21124553   0.950   5.296   4.319  0.1209 -0.4891  0.1801
  198DOPC  H11R24554   0.944   5.261   4.425 -1.6341 -0.2972  0.1724
  198DOPC  H11S24555   1.054   5.334   4.324  0.3809 -1.1780  0.1474
  198DOPC  C21224556   0.936   5.173   4.228 -0.5919  0.1174  0.2314
  198DOPC  H12R24557   0.946   5.219   4.128  0.2468  1.6896  0.9992
  198DOPC  H12S24558   0.841   5.117   4.239 -0.4445 -0.0006  1.0044
  198DOPC  C21324559   1.055   5.080   4.224  0.0171  0.1449  0.4766
  198DOPC  H13R24560   1.091   5.051   4.325  0.9747  1.0794  0.4235
  198DOPC  H13S24561   1.134   5.144   4.179 -1.2132  0.1879 -1.7338
  198DOPC  C21424562   1.030   4.955   4.138  0.5548  0.0055  0.0736
  198DOPC  H14R24563   0.952   4.892   4.186  1.0753  0.0901  1.0708
  198DOPC  H14S24564   1.120   4.892   4.151  0.3987 -0.0489  0.9976
  198DOPC  C21524565   0.993   4.992   3.993 -0.0453 -0.0592 -0.0951
  198DOPC  H15R24566   0.891   5.036   3.987 -1.3003 -2.8356 -0.2579
  198DOPC  H15S24567   0.995   4.890   3.951  4.0690 -0.7052  1.2339
  198DOPC  C21624568   1.100   5.061   3.908 -0.0099 -0.4788 -0.9150
  198DOPC  H16R24569   1.183   4.989   3.892 -0.6751 -1.2781 -0.8399
  198DOPC  H16S24570   1.126   5.160   3.951  1.4843 -0.7047 -1.2523
  198DOPC  C21724571   1.038   5.113   3.773  0.7053  0.3328 -0.3772
  198DOPC  H17R24572   0.966   5.196   3.790 -1.4807 -1.8861  1.9014
  198DOPC  H17S24573   0.996   5.025   3.720 -0.3827 -0.1295  1.2068
  198DOPC  C21824574   1.151   5.162   3.683  0.1686 -0.0160 -0.8928
  198DOPC  H18R24575   1.107   5.190   3.584  0.7304  0.6451 -0.9646
  198DOPC  H18S24576   1.230   5.089   3.657  0.4434 -0.0036 -0.1021
  198DOPC  H18T24577   1.204   5.254   3.716 -0.2074 -0.3918  0.8485
  198DOPC   C3324578   1.509   5.259   4.061  0.3687  0.3197  0.4230
  198DOPC   H3X24579   1.583   5.333   4.097  0.9719  1.2133 -2.4527
  198DOPC   H3Y24580   1.573   5.179   4.018 -1.6827 -0.2700 -1.7709
  198DOPC   C3424581   1.435   5.193   4.172 -0.0684 -0.0724 -0.1580
  198DOPC   H4X24582   1.512   5.141   4.234  0.5651  1.0459  0.0056
  198DOPC   H4Y24583   1.375   5.117   4.117 -0.3903 -0.5933  0.8772
  198DOPC   C3524584   1.341   5.288   4.248 -0.3583  0.3255 -0.2014
  198DOPC   H5X24585   1.291   5.232   4.329  0.4971  0.5718  0.5166
  198DOPC   H5Y24586   1.266   5.340   4.185  1.4037  1.7959 -1.1990
  198DOPC   C3624587   1.425   5.400   4.319 -0.3767  0.4251  0.1625
  198DOPC   H6X24588   1.486   5.353   4.399 -1.1925 -1.2000 -0.1279
  198DOPC   H6Y24589   1.501   5.441   4.248 -0.1916 -0.0877  0.0588
  198DOPC   C3724590   1.342   5.512   4.378  0.0010  0.4123  1.2332
  198DOPC   H7X24591   1.399   5.607   4.394 -1.7781  2.0160 -1.3244
  198DOPC   H7Y24592   1.262   5.522   4.302 -0.9731 -3.6233  1.5213
  198DOPC   C3824593   1.279   5.470   4.514 -0.6206 -0.1945 -0.2539
  198DOPC   H8X24594   1.361   5.425   4.574 -1.0196  0.8089  1.0833
  198DOPC   H8Y24595   1.202   5.391   4.499  1.5570 -2.9121  1.7700
  198DOPC   C3924596   1.226   5.588   4.592 -0.6774 -0.5467 -0.2349
  198DOPC   H9X24597   1.313   5.647   4.625 -0.8533 -0.2446 -0.3117
  198DOPC  C31024598   1.104   5.606   4.643  0.0014 -0.0764 -0.1123
  198DOPC  H10X24599   1.078   5.700   4.694 -0.4600  1.3858 -2.8285
  198DOPC  C31124600   0.990   5.511   4.613 -0.6885 -0.5901 -0.2783
  198DOPC  H11X24601   1.029   5.407   4.606  1.3647 -0.3021  3.6911
  198DOPC  H11Y24602   0.945   5.544   4.517 -0.2026  1.7289  0.2362
  198DOPC  C31224603   0.876   5.539   4.715 -0.5012  0.2379 -0.1331
  198DOPC  H12X24604   0.804   5.459   4.689  0.2050 -0.1850 -0.8274
  198DOPC  H12Y24605   0.829   5.638   4.696  1.4208  0.9806 -1.3192
  198DOPC  C31324606   0.928   5.524   4.863  0.5173 -0.0156  0.0741
  198DOPC  H13X24607   0.956   5.416   4.864 -1.2647 -0.5412 -1.2279
  198DOPC  H13Y24608   1.016   5.583   4.896  0.2294  0.0328  0.7760
  198DOPC  C31424609   0.810   5.549   4.957  0.0016 -0.5815 -1.1238
  198DOPC  H14X24610   0.772   5.649   4.927 -0.3861 -0.1005  0.8183
  198DOPC  H14Y24611   0.723   5.485   4.931 -2.0116  1.5788 -0.1372
  198DOPC  C31524612   0.837   5.542   5.107 -0.3685 -0.1699  0.3075
  198DOPC  H15X24613   0.903   5.626   5.138  0.2616 -0.0978 -1.1514
  198DOPC  H15Y24614   0.895   5.449   5.124 -0.4850 -0.1397  0.8992
  198DOPC  C31624615   0.716   5.555   5.193  0.4121 -0.4167 -0.5966
  198DOPC  H16X24616   0.671   5.654   5.170  0.1859 -0.3285  0.1910
  198DOPC  H16Y24617   0.646   5.472   5.170  0.4136 -0.5521 -0.1163
  198DOPC  C31724618   0.727   5.546   5.346 -0.0346 -0.5328  0.6917
  198DOPC  H17X24619   0.822   5.493   5.370  0.0972 -0.0299  1.3171
  198DOPC  H17Y24620   0.725   5.652   5.381 -0.7515 -0.4347  0.3647
  198DOPC  C31824621   0.604   5.489   5.416 -0.0658 -0.0710  0.4795
  198DOPC  H18X24622   0.646   5.470   5.517  2.1013  0.2681 -0.3030
  198DOPC  H18Y24623   0.518   5.558   5.425 -0.6250 -0.5259 -1.0488
  198DOPC  H18Z24624   0.571   5.397   5.363 -0.8576 -0.2507  1.2552
  199DOPC     N24625   1.544   6.915   2.690 -0.0543  0.7853  0.3197
  199DOPC   C1224626   1.623   6.968   2.804 -0.5256  0.0838  0.3235
  199DOPC  H12A24627   1.627   7.076   2.810  0.0683  0.0092  1.5772
  199DOPC  H12B24628   1.725   6.932   2.799  0.4318  2.5588  0.5908
  199DOPC   C1324629   1.580   7.003   2.572 -0.3073 -0.1743  0.2550
  199DOPC  H13A24630   1.544   6.972   2.475  0.7385  0.8568 -0.4806
  199DOPC  H13B24631   1.540   7.102   2.593 -0.4256 -0.0734 -0.4285
  199DOPC  H13C24632   1.684   7.024   2.554 -0.4485 -0.3139 -0.8083
  199DOPC   C1424633   1.401   6.918   2.709  0.2255  0.5543  0.1260
  199DOPC  H14A24634   1.346   6.896   2.619  1.8326  0.2011 -0.8094
  199DOPC  H14B24635   1.363   6.851   2.785  0.7613 -1.2021 -1.1053
  199DOPC  H14C24636   1.365   7.011   2.751 -1.5911  0.0083 -0.1421
  199DOPC   C1524637   1.581   6.772   2.663  0.0206  0.1664 -0.6993
  199DOPC  H15A24638   1.512   6.732   2.589  1.3078  0.9331 -2.3985
  199DOPC  H15B24639   1.575   6.712   2.753  1.8373 -0.8386 -1.2035
  199DOPC  H15C24640   1.687   6.760   2.644  0.4283 -0.0698  1.5255
  199DOPC   C1124641   1.576   6.930   2.945  0.0914  0.3502  0.0738
  199DOPC  H11A24642   1.573   6.819   2.943  2.3558  0.2225  0.9491
  199DOPC  H11B24643   1.645   6.960   3.027 -0.5596  1.1320  0.3439
  199DOPC     P24644   1.442   7.124   3.046 -0.5075 -0.3512 -0.1963
  199DOPC   O1324645   1.298   7.173   3.045  0.3196  0.5701  0.0773
  199DOPC   O1424646   1.540   7.219   3.000 -0.1981  0.3363  0.4203
  199DOPC   O1224647   1.450   6.984   2.969  0.7172  0.0893  0.2356
  199DOPC   O1124648   1.487   7.067   3.191  0.1426  0.6070  0.0090
  199DOPC    C124649   1.418   6.951   3.253 -0.0551  0.1715  0.1880
  199DOPC    HA24650   1.475   6.892   3.326 -2.7067 -1.1840  1.3044
  199DOPC    HB24651   1.376   6.879   3.180 -1.2570  0.4393  0.5903
  199DOPC    C224652   1.310   7.010   3.344 -0.2376  0.0114 -0.7220
  199DOPC    HS24653   1.248   7.080   3.284  0.1281  1.6010  0.6796
  199DOPC   O2124654   1.381   7.067   3.460  0.0538  0.3349  0.2418
  199DOPC   C2124655   1.335   7.184   3.496  0.5616 -0.1642  0.4073
  199DOPC   O2224656   1.242   7.250   3.446  0.5334 -0.0873  0.1278
  199DOPC   C2224657   1.422   7.231   3.609  0.2849  0.4767 -0.0026
  199DOPC   H2R24658   1.411   7.340   3.630  1.4664  0.6201 -0.0446
  199DOPC   H2S24659   1.529   7.224   3.579  0.6259  1.3709  0.9152
  199DOPC    C324660   1.206   6.903   3.392  0.5321 -0.2349  0.2248
  199DOPC    HX24661   1.262   6.817   3.434  0.9267 -0.3459 -0.5057
  199DOPC    HY24662   1.149   6.873   3.302 -0.0821  0.6152  0.3182
  199DOPC   O3124663   1.125   6.954   3.495  0.1034 -0.5377 -0.0741
  199DOPC   C3124664   1.001   7.005   3.460 -0.6410  0.0413  0.3093
  199DOPC   O3224665   0.964   7.023   3.343 -0.8174  0.7761 -1.3222
  199DOPC   C3224666   0.929   7.042   3.586 -0.4164  0.3863 -0.1138
  199DOPC   H2X24667   0.913   6.950   3.647  1.7521 -0.7377 -1.1178
  199DOPC   H2Y24668   0.999   7.100   3.650  1.1531 -0.0443 -1.3709
  199DOPC   C2324669   1.403   7.152   3.739  0.2807  0.2774  0.6037
  199DOPC   H3R24670   1.477   7.191   3.813  0.9945  0.3689 -0.1398
  199DOPC   H3S24671   1.440   7.048   3.734 -0.6616 -0.2041  2.7516
  199DOPC   C2424672   1.272   7.148   3.812  0.1288  0.2081  0.3720
  199DOPC   H4R24673   1.289   7.104   3.913 -1.0866 -1.2540 -0.0283
  199DOPC   H4S24674   1.206   7.083   3.751 -0.3821  1.3254 -0.2846
  199DOPC   C2524675   1.202   7.286   3.828 -0.5333  0.1142 -0.1754
  199DOPC   H5R24676   1.195   7.349   3.736 -1.9066 -0.6106 -0.6081
  199DOPC   H5S24677   1.257   7.338   3.908  0.0311 -1.5721  0.5790
  199DOPC   C2624678   1.053   7.278   3.884 -0.6600  0.8591  0.4734
  199DOPC   H6R24679   1.005   7.210   3.812  1.7786 -0.1144 -0.3577
  199DOPC   H6S24680   1.007   7.379   3.876 -0.7700  0.7166 -0.9059
  199DOPC   C2724681   1.037   7.238   4.031 -0.0052  0.4539  0.6229
  199DOPC   H7R24682   1.088   7.319   4.087  2.7641 -0.5355 -0.3045
  199DOPC   H7S24683   1.087   7.140   4.046  1.1503  0.9334  0.0297
  199DOPC   C2824684   0.892   7.225   4.071  0.3873  0.1202 -0.1379
  199DOPC   H8R24685   0.845   7.317   4.028 -2.2238 -0.1281  1.9007
  199DOPC   H8S24686   0.886   7.242   4.180  1.0944  1.3659 -0.2768
  199DOPC   C2924687   0.821   7.102   4.017 -0.2612  0.0525  0.6537
  199DOPC   H9R24688   0.850   7.080   3.914 -0.0352 -0.9078  0.9094
  199DOPC  C21024689   0.751   7.010   4.083 -0.1836  0.3576  0.0409
  199DOPC  H10R24690   0.695   6.931   4.029 -1.4770  0.4021  1.2630
  199DOPC  C21124691   0.698   7.006   4.224  0.3653 -0.0061  0.0354
  199DOPC  H11R24692   0.589   6.990   4.226  0.4361 -0.8771 -1.7114
  199DOPC  H11S24693   0.701   7.107   4.271 -3.4136  1.4174 -2.3945
  199DOPC  C21224694   0.764   6.901   4.318 -0.8069 -0.3061  0.0164
  199DOPC  H12R24695   0.860   6.925   4.369 -0.4377  0.3364 -0.9669
  199DOPC  H12S24696   0.778   6.808   4.258 -0.1991 -1.2766  1.5810
  199DOPC  C21324697   0.663   6.868   4.420  0.1448  0.0340 -0.5585
  199DOPC  H13R24698   0.680   6.770   4.470 -1.6957  0.3160  0.7076
  199DOPC  H13S24699   0.565   6.856   4.369 -0.7188  0.9942  0.8143
  199DOPC  C21424700   0.657   6.982   4.530  0.7378 -0.1459  0.1187
  199DOPC  H14R24701   0.648   7.080   4.478 -1.0228 -0.6234 -0.5534
  199DOPC  H14S24702   0.756   6.991   4.580  0.0125  1.8359  1.3012
  199DOPC  C21524703   0.536   6.972   4.630 -0.2985  0.1359  0.0310
  199DOPC  H15R24704   0.535   6.869   4.673 -2.4217 -0.0399 -0.3266
  199DOPC  H15S24705   0.437   6.989   4.582 -0.3399 -0.4973 -0.1143
  199DOPC  C21624706   0.539   7.074   4.747 -0.2805 -0.2445  0.5464
  199DOPC  H16R24707   0.503   7.172   4.711  1.1839 -0.0360 -0.4048
  199DOPC  H16S24708   0.642   7.094   4.783 -0.4892 -0.3082  1.1939
  199DOPC  C21724709   0.465   7.035   4.872 -0.4470 -0.1950 -0.2968
  199DOPC  H17R24710   0.506   6.934   4.892  1.4348  0.7367  0.7671
  199DOPC  H17S24711   0.355   7.027   4.854 -0.7212 -0.2856  1.2467
  199DOPC  C21824712   0.485   7.127   4.997  0.1677  0.6306 -0.3984
  199DOPC  H18R24713   0.590   7.161   5.001  0.1993  0.5014 -0.0347
  199DOPC  H18S24714   0.460   7.066   5.087  0.9820  0.1301 -0.5013
  199DOPC  H18T24715   0.426   7.221   4.999 -0.2762  0.3644 -0.7185
  199DOPC   C3324716   0.800   7.114   3.567 -0.3806 -0.5779  0.2776
  199DOPC   H3X24717   0.802   7.173   3.473 -0.6192 -0.4002  0.3818
  199DOPC   H3Y24718   0.777   7.188   3.647  0.1033  1.1325 -1.1080
  199DOPC   C3424719   0.690   7.019   3.529  0.0799  0.6058 -0.3150
  199DOPC   H4X24720   0.738   6.931   3.482  0.1690 -0.0223  0.8968
  199DOPC   H4Y24721   0.625   7.055   3.446 -0.1487 -0.8125 -0.7818
  199DOPC   C3524722   0.597   6.967   3.645  0.3086 -0.6190 -0.6792
  199DOPC   H5X24723   0.659   6.913   3.720 -0.5543  0.8385  1.1756
  199DOPC   H5Y24724   0.511   6.919   3.594 -0.5222  2.2124 -2.2023
  199DOPC   C3624725   0.523   7.083   3.726 -0.0174  0.1985  1.4496
  199DOPC   H6X24726   0.595   7.139   3.788  0.8310  2.1607 -1.1150
  199DOPC   H6Y24727   0.483   7.165   3.662  1.3078 -0.0091  0.3093
  199DOPC   C3724728   0.412   7.029   3.813  0.3645 -0.0832  1.0088
  199DOPC   H7X24729   0.339   6.992   3.738  0.1062  0.7404  0.8513
  199DOPC   H7Y24730   0.449   6.943   3.872  0.8055  0.6415  1.8089
  199DOPC   C3824731   0.338   7.122   3.902 -0.0291  0.1396 -0.1256
  199DOPC   H8X24732   0.337   7.216   3.843 -1.9714  0.3065  0.1351
  199DOPC   H8Y24733   0.397   7.141   3.995 -0.5731  0.7318  0.1013
  199DOPC   C3924734   0.204   7.078   3.951  0.7698  0.1282 -0.0275
  199DOPC   H9X24735   0.141   7.030   3.875  0.3749 -0.3509  0.5896
  199DOPC  C31024736   0.149   7.086   4.070 -0.6026 -0.0285 -0.3244
  199DOPC  H10X24737   0.054   7.030   4.076  0.2849 -2.1351 -3.3107
  199DOPC  C31124738   0.209   7.132   4.198 -0.3771 -0.3253 -0.3905
  199DOPC  H11X24739   0.172   7.233   4.227  0.5370 -0.5201  1.6005
  199DOPC  H11Y24740   0.318   7.152   4.192 -0.7637  1.9267 -0.7236
  199DOPC  C31224741   0.187   7.037   4.321  0.5282 -0.3901  0.8140
  199DOPC  H12X24742   0.077   7.036   4.341  0.3861  2.7043  0.6139
  199DOPC  H12Y24743   0.236   7.071   4.415 -0.6053 -0.5792  1.5023
  199DOPC  C31324744   0.255   6.906   4.296  0.1226 -0.7609 -0.8160
  199DOPC  H13X24745   0.199   6.855   4.215 -1.1328  0.6569 -0.8865
  199DOPC  H13Y24746   0.360   6.927   4.268  0.9689 -1.1434  1.7685
  199DOPC  C31424747   0.243   6.814   4.419  0.2488  0.9487 -0.2617
  199DOPC  H14X24748   0.307   6.844   4.505  2.3635 -1.0148 -1.0347
  199DOPC  H14Y24749   0.136   6.813   4.446 -0.0019  0.9837 -1.1987
  199DOPC  C31524750   0.278   6.661   4.385  0.0711  0.5971 -0.3666
  199DOPC  H15X24751   0.364   6.668   4.314 -1.6878  1.7175 -2.5477
  199DOPC  H15Y24752   0.191   6.634   4.322  0.5481  1.9277 -1.6828
  199DOPC  C31624753   0.295   6.580   4.509 -0.2741  0.8114  0.3032
  199DOPC  H16X24754   0.362   6.496   4.480 -2.0329 -0.5972  0.1885
  199DOPC  H16Y24755   0.352   6.632   4.589 -0.9572 -1.0186  2.0583
  199DOPC  C31724756   0.165   6.519   4.572  0.3656 -0.8725  0.2081
  199DOPC  H17X24757   0.197   6.480   4.671  2.4723 -0.4820 -0.2657
  199DOPC  H17Y24758   0.096   6.603   4.593 -0.2980 -0.7968 -1.9828
  199DOPC  C31824759   0.101   6.410   4.484  0.2729 -0.0439 -0.8106
  199DOPC  H18X24760   0.108   6.450   4.381 -1.3034 -0.3281 -1.0509
  199DOPC  H18Y24761   0.156   6.314   4.491 -0.6487 -0.8667 -3.5090
  199DOPC  H18Z24762  -0.007   6.400   4.509  0.0274 -0.8255 -2.1373
  200DOPC     N24763   1.490   7.592   2.980  0.6198  0.5001 -0.2533
  200DOPC   C1224764   1.635   7.557   2.950  0.5354 -0.5408  0.5541
  200DOPC  H12A24765   1.643   7.449   2.951 -0.3641 -0.6293 -0.2791
  200DOPC  H12B24766   1.701   7.583   3.031  2.9648  1.2446 -1.8212
  200DOPC   C1324767   1.445   7.507   3.098 -0.9715  0.1945  0.0127
  200DOPC  H13A24768   1.499   7.538   3.187 -1.0319 -0.2223  0.1960
  200DOPC  H13B24769   1.340   7.518   3.118 -0.7158  2.7304  0.3000
  200DOPC  H13C24770   1.485   7.409   3.077  4.5639  2.0997  0.0727
  200DOPC   C1424771   1.397   7.556   2.867 -0.1856 -0.0754  0.7535
  200DOPC  H14A24772   1.414   7.458   2.825  1.6974  0.0960  1.0580
  200DOPC  H14B24773   1.296   7.546   2.905 -0.3947 -0.4266  0.1324
  200DOPC  H14C24774   1.400   7.629   2.787 -0.4658 -1.1535 -0.2679
  200DOPC   C1524775   1.472   7.737   3.017  0.4533 -0.1865 -0.0704
  200DOPC  H15A24776   1.493   7.796   2.929  2.2297  0.0357  0.4743
  200DOPC  H15B24777   1.535   7.768   3.099  0.4790 -0.2832 -0.0529
  200DOPC  H15C24778   1.369   7.759   3.040  0.8054  0.6526  0.7596
  200DOPC   C1124779   1.693   7.603   2.815 -0.0893 -0.2809 -0.0825
  200DOPC  H11A24780   1.781   7.536   2.810 -1.0031 -1.4355 -1.5406
  200DOPC  H11B24781   1.625   7.586   2.728 -0.6518  0.1591  0.2652
  200DOPC     P24782   1.854   7.814   2.814  0.0993 -0.0471  0.3801
  200DOPC   O1324783   1.839   7.951   2.873 -0.0919  0.8086  0.0978
  200DOPC   O1424784   1.908   7.812   2.681 -0.3468  0.8542  0.6479
  200DOPC   O1224785   1.712   7.743   2.820 -0.4131 -0.1642  0.0147
  200DOPC   O1124786   1.945   7.723   2.916  0.0890 -0.0908 -0.3759
  200DOPC    C124787   2.033   7.628   2.853  0.2191 -0.0585  0.0352
  200DOPC    HA24788   2.113   7.682   2.797 -1.8068  0.2835 -2.7252
  200DOPC    HB24789   1.988   7.560   2.777  1.9014  0.3368 -1.3849
  200DOPC    C224790   2.093   7.534   2.966  0.4076  0.4634 -0.7205
  200DOPC    HS24791   2.004   7.473   2.991  0.2937  0.0504 -2.0734
  200DOPC   O2124792   2.150   7.607   3.074  0.7802  0.3810 -0.3861
  200DOPC   C2124793   2.093   7.578   3.193 -0.6106 -0.5219 -0.1649
  200DOPC   O2224794   2.011   7.493   3.215  0.0550 -0.0581  0.6574
  200DOPC   C2224795   2.148   7.671   3.301  1.2484  0.1550  0.4115
  200DOPC   H2R24796   2.139   7.774   3.262 -0.8183  0.0510  0.5241
  200DOPC   H2S24797   2.257   7.648   3.305  0.6351 -3.2488  1.4379
  200DOPC    C324798   2.196   7.438   2.913  0.2754 -0.3442  0.3669
  200DOPC    HX24799   2.277   7.508   2.887  0.1354 -0.6646 -1.0498
  200DOPC    HY24800   2.171   7.393   2.814  0.5455  0.3193 -0.0025
  200DOPC   O3124801   2.240   7.345   3.013  0.0805 -0.1477 -0.2770
  200DOPC   C3124802   2.155   7.249   3.034  0.2768 -0.1538  0.1137
  200DOPC   O3224803   2.060   7.221   2.961 -0.0147 -0.3993  0.1534
  200DOPC   C3224804   2.177   7.166   3.157  0.6973  0.2672 -0.1045
  200DOPC   H2X24805   2.076   7.154   3.203  0.4427  0.7133 -0.5346
  200DOPC   H2Y24806   2.215   7.064   3.134 -0.6633  0.2330 -2.6525
  200DOPC   C2324807   2.078   7.647   3.440  0.1413 -0.7353  0.1572
  200DOPC   H3R24808   2.099   7.546   3.483 -0.0406 -0.5320  0.7312
  200DOPC   H3S24809   1.968   7.637   3.428  0.0802  0.9555 -0.9783
  200DOPC   C2424810   2.124   7.757   3.540 -0.6322  0.7743 -0.1649
  200DOPC   H4R24811   2.066   7.747   3.634 -1.0229  1.3490 -0.3368
  200DOPC   H4S24812   2.110   7.855   3.490  0.8638  1.0083 -0.1531
  200DOPC   C2524813   2.278   7.754   3.570  0.1950 -0.3642  0.0532
  200DOPC   H5R24814   2.316   7.849   3.611  0.0323  0.8414 -2.4236
  200DOPC   H5S24815   2.329   7.735   3.473 -1.7720  0.0517 -1.1147
  200DOPC   C2624816   2.327   7.649   3.672 -0.6097 -0.6855  0.0344
  200DOPC   H6R24817   2.271   7.555   3.654  0.2998 -1.7004  2.2064
  200DOPC   H6S24818   2.285   7.679   3.770  0.0621 -0.3846  0.2352
  200DOPC   C2724819   2.479   7.625   3.669 -0.3382 -1.2317 -0.2428
  200DOPC   H7R24820   2.509   7.608   3.563 -0.9705  1.2051 -0.8780
  200DOPC   H7S24821   2.492   7.535   3.733  0.5054  0.0855  1.5318
  200DOPC   C2824822   2.565   7.743   3.726 -0.4091 -0.1134 -0.5802
  200DOPC   H8R24823   2.541   7.832   3.664  0.2597  0.1164 -0.5140
  200DOPC   H8S24824   2.675   7.732   3.719 -0.0201  3.4934 -2.6343
  200DOPC   C2924825   2.543   7.770   3.873  0.4237  0.0221 -0.3827
  200DOPC   H9R24826   2.527   7.678   3.932 -2.6166 -0.1438 -1.2970
  200DOPC  C21024827   2.517   7.889   3.929 -0.2816 -0.1896 -0.0329
  200DOPC  H10R24828   2.485   7.888   4.034  2.1598 -1.0302  0.7689
  200DOPC  C21124829   2.525   8.022   3.859  0.8407  0.3210 -0.0672
  200DOPC  H11R24830   2.590   8.025   3.769  0.4605 -1.3353 -0.4270
  200DOPC  H11S24831   2.574   8.091   3.930 -0.1111  1.4525 -0.4711
  200DOPC  C21224832   2.384   8.066   3.819  0.8585  0.0682 -0.3146
  200DOPC  H12R24833   2.333   8.081   3.917  1.6685 -0.3038  0.1775
  200DOPC  H12S24834   2.316   7.986   3.784 -2.7431  2.5540  0.4368
  200DOPC  C21324835   2.371   8.188   3.736  0.1580 -0.6358  0.1074
  200DOPC  H13R24836   2.441   8.174   3.651  0.5825 -0.4601  0.4214
  200DOPC  H13S24837   2.415   8.278   3.785 -3.6743  1.2917  0.3882
  200DOPC  C21424838   2.223   8.217   3.690 -0.0161 -0.1229  0.8013
  200DOPC  H14R24839   2.162   8.251   3.776 -1.4929  1.2911 -0.7424
  200DOPC  H14S24840   2.184   8.120   3.653  0.4192  0.4066 -1.1177
  200DOPC  C21524841   2.214   8.327   3.581 -0.0583  0.6548 -0.0851
  200DOPC  H15R24842   2.277   8.413   3.611  0.9894 -0.2928  0.5253
  200DOPC  H15S24843   2.112   8.367   3.562 -1.1448 -2.1117 -0.6201
  200DOPC  C21624844   2.277   8.285   3.443  0.2734  0.1398 -0.5938
  200DOPC  H16R24845   2.215   8.204   3.400  0.0218 -0.9014  1.5678
  200DOPC  H16S24846   2.381   8.253   3.468  0.3421  1.6295  1.2190
  200DOPC  C21724847   2.283   8.407   3.346 -0.0529  0.1719  0.2101
  200DOPC  H17R24848   2.352   8.484   3.388 -2.0503  2.2480 -0.0860
  200DOPC  H17S24849   2.179   8.446   3.352 -0.1399 -0.0993  0.4912
  200DOPC  C21824850   2.350   8.372   3.207  0.5423  0.2035 -0.7999
  200DOPC  H18R24851   2.460   8.370   3.221  0.2314  2.4298  3.8722
  200DOPC  H18S24852   2.319   8.450   3.134 -0.1560 -0.0832 -0.8169
  200DOPC  H18T24853   2.323   8.270   3.174  1.4535  0.0790 -1.1685
  200DOPC   C3324854   2.265   7.245   3.257  0.1948 -0.3567  0.4115
  200DOPC   H3X24855   2.205   7.335   3.283 -0.4145 -0.8069  0.5806
  200DOPC   H3Y24856   2.363   7.269   3.211 -0.6605  0.8061 -0.8730
  200DOPC   C3424857   2.301   7.178   3.389 -0.6883 -0.2108  0.3048
  200DOPC   H4X24858   2.338   7.076   3.363  0.8519  0.8306 -1.9850
  200DOPC   H4Y24859   2.208   7.155   3.444 -0.5475 -1.4499  0.0553
  200DOPC   C3524860   2.396   7.268   3.467 -0.1995 -0.2161  0.3449
  200DOPC   H5X24861   2.350   7.369   3.469  2.2415  0.9440  3.0776
  200DOPC   H5Y24862   2.489   7.266   3.407  0.6172 -0.1683  1.5748
  200DOPC   C3624863   2.429   7.227   3.612 -0.3507 -0.1584 -0.6556
  200DOPC   H6X24864   2.478   7.127   3.615  2.3252  1.0450  2.2180
  200DOPC   H6Y24865   2.495   7.304   3.657  1.5093 -1.2821 -1.3334
  200DOPC   C3724866   2.298   7.211   3.692 -0.3160 -0.0747 -0.6681
  200DOPC   H7X24867   2.231   7.299   3.686  0.3255  0.4727 -0.0243
  200DOPC   H7Y24868   2.243   7.123   3.654 -0.7259 -0.0205 -0.2147
  200DOPC   C3824869   2.323   7.201   3.841  0.1660  0.4755  0.3806
  200DOPC   H8X24870   2.363   7.302   3.865  0.1419  0.3943  0.7777
  200DOPC   H8Y24871   2.406   7.128   3.852  1.6786  1.7124 -2.1521
  200DOPC   C3924872   2.201   7.172   3.922  0.0832  0.0688  0.1875
  200DOPC   H9X24873   2.137   7.094   3.879 -0.2750  0.9336 -0.8969
  200DOPC  C31024874   2.163   7.221   4.038 -0.5006  0.2152  0.2813
  200DOPC  H10X24875   2.062   7.195   4.071 -0.2276  1.7000  2.5279
  200DOPC  C31124876   2.227   7.330   4.113 -0.0631 -0.2941  0.1015
  200DOPC  H11X24877   2.305   7.384   4.056 -0.1034  0.9335  1.1511
  200DOPC  H11Y24878   2.274   7.287   4.203  0.1122  0.6453  0.4728
  200DOPC  C31224879   2.129   7.450   4.151 -0.3224  0.2479  0.5492
  200DOPC  H12X24880   2.043   7.406   4.207 -0.9529 -0.6119 -1.0408
  200DOPC  H12Y24881   2.075   7.491   4.063  2.0857 -0.1399 -1.1888
  200DOPC  C31324882   2.201   7.566   4.227 -0.5825  0.0524 -0.0537
  200DOPC  H13X24883   2.251   7.626   4.148  0.7431  0.4684  1.0690
  200DOPC  H13Y24884   2.126   7.631   4.277 -0.3980  1.5859 -1.6675
  200DOPC  C31424885   2.308   7.525   4.325 -0.3985  0.7096  0.0822
  200DOPC  H14X24886   2.388   7.465   4.276 -1.0515 -0.2863  0.2088
  200DOPC  H14Y24887   2.355   7.620   4.358  3.3702 -1.0196  0.3265
  200DOPC  C31524888   2.253   7.445   4.446  0.0859  0.4210  0.2201
  200DOPC  H15X24889   2.237   7.338   4.422 -0.8205 -0.0063  2.4578
  200DOPC  H15Y24890   2.159   7.498   4.473 -0.3017 -0.5939  0.9360
  200DOPC  C31624891   2.341   7.446   4.572  0.3930  0.3598  0.5743
  200DOPC  H16X24892   2.436   7.392   4.552  0.0375  0.2749 -0.9754
  200DOPC  H16Y24893   2.370   7.551   4.594 -2.2433  1.7899 -2.0086
  200DOPC  C31724894   2.272   7.391   4.699  0.3758 -0.7692  0.7648
  200DOPC  H17X24895   2.164   7.409   4.718  0.6661 -0.5791  2.3805
  200DOPC  H17Y24896   2.273   7.282   4.679  0.6451 -0.7389  0.6016
  200DOPC  C31824897   2.343   7.418   4.833 -0.2652 -0.1750  0.1978
  200DOPC  H18X24898   2.349   7.526   4.857 -1.2548 -0.3542  1.3401
  200DOPC  H18Y24899   2.295   7.361   4.915  0.6599 -1.8925 -0.3886
  200DOPC  H18Z24900   2.446   7.377   4.824 -0.8114 -1.3334 -1.2600
  201SOD    SOD24901   7.034   7.640   7.857 -0.0488  0.5911  0.1840
  202SOD    SOD24902   6.908   2.720   2.609  0.7369 -0.2187  0.3605
  203SOD    SOD24903   0.314   7.401   7.219  0.0843  0.1803  0.0760
  204SOD    SOD24904   2.317   5.554   1.576  0.1160 -0.0833  0.0294
  205SOD    SOD24905   2.224   6.683   6.919  1.0334  0.2629  0.3052
  206SOD    SOD24906   1.661   7.226   1.971  0.1377 -0.1977  0.7454
  207SOD    SOD24907   0.523   4.563   1.438  0.2911 -0.7263 -0.3565
  208SOD    SOD24908   2.941   3.097   8.355  0.2751 -0.7788  1.0290
  209SOD    SOD24909   2.810   7.121   2.006 -0.6322 -0.0225 -0.7942
  210SOD    SOD24910   6.789   1.798   8.958  0.1529  0.1433 -0.2317
  211SOD    SOD24911   2.839   5.983   7.630 -0.1458  0.0046  0.1927
  212SOD    SOD24912   5.749   4.916   8.894  0.0634 -0.6905  0.2366
  213SOD    SOD24913   4.938   1.347   0.954 -0.7250  0.3385  0.3619
  214SOD    SOD24914   3.380   1.630   7.559 -0.3253  0.8315  0.2549
  215SOD    SOD24915   3.135   1.915   8.164 -0.5252  0.3410  0.0624
  216SOD    SOD24916   7.252   4.271   8.216 -0.6493 -0.2528  0.0272
  217SOD    SOD24917   1.562   3.468   1.591 -0.0317  0.1262 -0.1384
  218SOD    SOD24918   4.962   0.576   6.813 -0.0860  0.3096  0.1112
  219SOD    SOD24919   2.445   6.191   6.896  0.4636  0.4671 -0.3956
  220SOD    SOD24920   7.093   5.215   2.168  0.4576 -0.0325 -0.2657
  221SOD    SOD24921   6.119   5.259   3.238  0.2291 -0.1278  0.2481
  222SOD    SOD24922   1.374   4.521   7.583  0.1604  0.1179 -0.3476
  223SOD    SOD24923   2.006   3.744   2.866 -0.1208  0.1986 -0.3026
  224SOD    SOD24924   6.153   2.475   2.017 -0.4481  0.1524 -0.2335
  225SOD    SOD24925   6.629   7.559   1.428  0.1081 -0.8229 -0.4199
  226SOD    SOD24926   6.914   2.421   8.450  0.3533  0.2731  0.2801
  227CLA    CLA24927   7.218   3.250   2.132 -0.1207 -0.4074  0.0678
  228CLA    CLA24928   7.394   6.640   1.275 -0.2096  0.2840  0.0001
  229CLA    CLA24929   5.543   4.716   1.197 -0.3473  0.3613  0.4032
  230CLA    CLA24930   0.816   5.629   7.182 -0.2857  0.1637 -0.3944
  231CLA    CLA24931   1.115   0.537   7.610  0.3104  0.3359 -0.1138
  232CLA    CLA24932   2.372   3.320   8.572  0.0218  0.2754  0.4310
  233CLA    CLA24933   4.643   2.344   9.182 -0.1154 -0.1804  0.1523
  234CLA    CLA24934   2.908   1.302   7.330 -0.2072 -0.6265  0.0997
  235CLA    CLA24935   4.962   2.017   1.083 -0.2495  0.3346  0.0927
  236CLA    CLA24936   6.126   1.800   8.395 -0.1387  0.3123 -0.0483
  237CLA    CLA24937   7.247   4.015   8.996  0.0226 -0.3123 -0.1819
  238CLA    CLA24938   5.375   4.497   2.101  0.4194  0.3291 -0.3392
  239CLA    CLA24939   6.774   6.892   2.753  0.3767 -0.0876 -0.4468
  240CLA    CLA24940   7.645   1.258   8.139 -0.0579  0.1140 -0.1550
  241CLA    CLA24941   6.766   0.109   2.072 -0.2643 -0.5439 -0.2616
  242CLA    CLA24942   3.690   1.529   9.301 -0.2649  0.1365 -0.1219
  243CLA    CLA24943   7.677   5.057   1.165  0.1084 -0.1958  0.2587
  244CLA    CLA24944   2.589   3.607   2.415 -0.3827 -0.2602 -0.1721
  245CLA    CLA24945   1.358   7.282   2.617 -0.1337 -0.0697 -0.0485
  246CLA    CLA24946   5.970   6.842   7.882  0.2390 -0.3299 -0.1799
  247CLA    CLA24947   4.067   6.602   0.809 -0.2672 -0.2331 -0.1370
  248CLA    CLA24948   1.164   4.917   2.278 -0.2040 -0.3087  0.0625
  249CLA    CLA24949   4.030   3.451   2.130 -0.2408 -0.3147 -0.0988
  250CLA    CLA24950   4.899   1.849   8.049  0.3290  0.2138 -0.2653
  251CLA    CLA24951   3.995   5.203   9.071 -0.4264  0.2819  0.2307
  252CLA    CLA24952   6.655   2.719   1.387 -0.0546 -0.0500  0.0662
  253TIP3   OH224953   5.366   3.389   6.682 -0.0742  0.5377  0.0062
  253TIP3    H124954   5.460   3.384   6.664 -0.4295  1.8334 -2.5947
  253TIP3    H224955   5.331   3.305   6.653  0.4861 -0.9416  3.1949
  254TIP3   OH224956   0.688   0.414   6.748 -0.0894  0.0467  0.5701
  254TIP3    H124957   0.755   0.424   6.681 -1.8918 -0.4109 -1.3998
  254TIP3    H224958   0.614   0.466   6.716 -0.3185  1.5699  3.2729
  255TIP3   OH224959   0.231   2.514   9.364  0.3930 -0.3743 -0.5976
  255TIP3    H124960   0.182   2.531   9.283 -0.9338 -0.0910  0.2268
  255TIP3    H224961   0.276   2.431   9.348  0.3604 -0.1978 -1.7151
  256TIP3   OH224962   0.013   0.414   9.051  0.3050 -0.7377 -0.9114
  256TIP3    H124963   0.040   0.359   9.124 -2.1784 -0.6854  0.1283
  256TIP3    H224964   0.005   0.502   9.089  2.3962  0.0452 -2.1177
  257TIP3   OH224965   6.555   0.740   8.157 -0.1398 -0.2235  0.0316
  257TIP3    H124966   6.640   0.703   8.180 -0.4419 -0.3810  0.9373
  257TIP3    H224967   6.575   0.824   8.117  0.4269 -0.0941  0.5743
  258TIP3   OH224968   7.441   1.948   7.597 -0.2964 -0.4483  0.2688
  258TIP3    H124969   7.451   1.936   7.503  1.0255  0.3530  0.2901
  258TIP3    H224970   7.350   1.978   7.607 -0.3002 -0.0544 -0.7927
  259TIP3   OH224971   3.751   0.918   7.545  0.9583 -0.0414  0.0768
  259TIP3    H124972   3.664   0.957   7.533  1.4020  1.3566  1.2120
  259TIP3    H224973   3.783   0.905   7.456 -0.0335  0.3027 -0.3506
  260TIP3   OH224974   0.653   1.345   8.760 -0.0299 -0.4690 -0.2231
  260TIP3    H124975   0.611   1.280   8.704  0.9715 -1.2155 -0.1311
  260TIP3    H224976   0.684   1.412   8.699  1.5929 -1.5680 -0.6919
  261TIP3   OH224977   7.440   1.659   8.626 -0.6787  0.1867  0.3333
  261TIP3    H124978   7.407   1.587   8.681 -2.0209  0.4320 -0.1127
  261TIP3    H224979   7.513   1.695   8.676 -1.8749  0.4344  2.0029
  262TIP3   OH224980   6.296   1.605   8.226 -0.5206 -0.2206  0.5564
  262TIP3    H124981   6.348   1.563   8.294 -0.7256 -0.1663  0.7498
  262TIP3    H224982   6.232   1.657   8.274 -2.8015 -2.6917  0.4155
  263TIP3   OH224983   1.394   0.470   7.173 -0.0376 -0.5095  0.8651
  263TIP3    H124984   1.431   0.533   7.111  1.2964 -0.7452  1.3843
  263TIP3    H224985   1.344   0.409   7.119  0.4081 -0.2228  0.1239
  264TIP3   OH224986   6.116   3.263   7.316 -0.7716 -0.0314  0.6118
  264TIP3    H124987   6.099   3.357   7.327 -1.6799 -0.2266  0.9620
  264TIP3    H224988   6.149   3.255   7.227 -1.5720  0.5142  0.2483
  265TIP3   OH224989   4.565   4.020   9.485  0.5154 -0.2265 -0.6113
  265TIP3    H124990   4.547   3.963   9.559  0.4249 -0.1563 -0.5773
  265TIP3    H224991   4.479   4.034   9.445 -0.0676  2.4776  1.2612
  266TIP3   OH224992   0.722   0.670   8.440  0.5486  0.0025  0.1302
  266TIP3    H124993   0.718   0.697   8.348  2.0819  1.3735  0.4062
  266TIP3    H224994   0.755   0.581   8.438 -0.9324 -0.5612 -0.6849
  267TIP3   OH224995   7.357   3.372   9.472  0.0692 -0.5836  0.1130
  267TIP3    H124996   7.417   3.337   9.407 -0.3677 -0.7251 -0.2140
  267TIP3    H224997   7.284   3.310   9.474 -0.9244  0.5044 -0.7862
  268TIP3   OH224998   3.515   0.765   7.680 -0.1397 -0.2147 -0.2534
  268TIP3    H124999   3.537   0.796   7.592  1.2446 -0.4198 -0.0085
  268TIP3    H225000   3.552   0.832   7.738 -2.2286  0.6342  0.1824
  269TIP3   OH225001   2.449   6.410   7.054  0.6538 -0.0802 -0.4375
  269TIP3    H125002   2.533   6.441   7.086  0.0929  2.2285 -1.0106
  269TIP3    H225003   2.386   6.440   7.119  0.0978 -0.3488 -0.8387
  270TIP3   OH225004   6.899   0.745   7.595  0.2137  0.0938 -0.3643
  270TIP3    H125005   6.889   0.722   7.688  0.6945 -0.5293 -0.4659
  270TIP3    H225006   6.833   0.813   7.581  1.1549  1.3138  0.8130
  271TIP3   OH225007   2.058   2.081   8.665 -0.1747 -0.8158  0.4874
  271TIP3    H125008   2.000   2.121   8.600  1.2371  1.5039  0.5484
  271TIP3    H225009   2.138   2.059   8.616 -0.0874 -1.5303  0.9348
  272TIP3   OH225010   0.108   2.555   7.953  0.0768 -0.0907 -0.2839
  272TIP3    H125011   0.194   2.525   7.926  0.9346  1.1830  0.9214
  272TIP3    H225012   0.124   2.634   8.003 -1.6319 -0.7538  1.4575
  273TIP3   OH225013   0.845   7.564   7.280 -0.3177  0.4894  0.0713
  273TIP3    H125014   0.849   7.659   7.293  1.2994  0.5361 -0.4732
  273TIP3    H225015   0.905   7.529   7.346 -1.0823 -0.1822  0.4186
  274TIP3   OH225016   0.819   1.099   7.612 -0.0344 -0.4562 -0.4429
  274TIP3    H125017   0.870   1.180   7.604  0.5678 -0.8362 -0.5481
  274TIP3    H225018   0.742   1.114   7.557  0.0605  0.0517 -0.4440
  275TIP3   OH225019   3.321   2.943   8.516  0.4535 -0.4038  0.5119
  275TIP3    H125020   3.407   2.928   8.477 -0.1289 -0.0871 -0.9536
  275TIP3    H225021   3.287   2.855   8.534  0.4166 -0.6055 -0.4690
  276TIP3   OH225022   6.063   1.125   8.880  0.0319 -0.2755 -0.3260
  276TIP3    H125023   6.032   1.208   8.918 -0.4775 -1.3058  1.6856
  276TIP3    H225024   6.157   1.137   8.868 -0.1062  0.7313 -0.4488
  277TIP3   OH225025   5.815   4.153   7.693 -0.1818 -0.1354 -0.0519
  277TIP3    H125026   5.889   4.105   7.730 -0.0320  1.2577  1.5605
  277TIP3    H225027   5.847   4.185   7.608  0.8384 -0.1242  0.3212
  278TIP3   OH225028   4.352   1.507   7.473 -0.4170  0.5576  0.8561
  278TIP3    H125029   4.427   1.449   7.487 -1.9700 -1.3666  1.7485
  278TIP3    H225030   4.308   1.469   7.396 -0.8536  1.2329  0.7706
  279TIP3   OH225031   2.111   7.380   9.513  0.5481 -0.1941 -0.1781
  279TIP3    H125032   2.099   7.285   9.518 -1.1959  0.0467  1.2993
  279TIP3    H225033   2.199   7.391   9.476  0.0787 -2.3379 -2.1920
  280TIP3   OH225034   6.313   0.657   7.294  0.8895 -0.2862 -0.5654
  280TIP3    H125035   6.308   0.724   7.226 -0.7110  0.3209  0.0928
  280TIP3    H225036   6.256   0.586   7.262  0.9173 -0.4234 -0.3095
  281TIP3   OH225037   4.318   5.431   8.149 -0.1648  0.0679  0.4361
  281TIP3    H125038   4.249   5.406   8.211 -0.2305 -1.8884 -0.3615
  281TIP3    H225039   4.369   5.351   8.138 -0.3939  0.2326 -2.3317
  282TIP3   OH225040   5.118   6.259   7.326  0.4711 -0.1612  0.5494
  282TIP3    H125041   5.059   6.334   7.314  0.6996 -0.1991 -0.9969
  282TIP3    H225042   5.202   6.297   7.352  1.0679  0.2990 -1.8821
  283TIP3   OH225043   0.828   3.106   8.548  0.3368  0.0498  0.0634
  283TIP3    H125044   0.831   3.059   8.465  0.9840  1.2382 -0.6052
  283TIP3    H225045   0.794   3.042   8.610 -0.9744 -0.6185 -1.2805
  284TIP3   OH225046   0.449   3.176   1.450 -0.0306 -0.0816 -0.1922
  284TIP3    H125047   0.526   3.125   1.428  0.2805 -0.6111  1.8734
  284TIP3    H225048   0.465   3.262   1.412  1.1895 -0.4294 -0.5035
  285TIP3   OH225049   3.599   1.083   1.197  0.6150  0.1784  0.3974
  285TIP3    H125050   3.535   1.092   1.126 -1.1061 -0.7210  1.7506
  285TIP3    H225051   3.671   1.140   1.172  0.6862 -1.0905 -2.7003
  286TIP3   OH225052   5.173   5.707   3.478 -0.2221  0.0105  0.1373
  286TIP3    H125053   5.088   5.683   3.515 -0.1621  0.4146  0.5529
  286TIP3    H225054   5.192   5.639   3.413 -1.5847  0.7640 -1.1079
  287TIP3   OH225055   1.936   3.331   0.442 -0.8603 -0.1234  0.2063
  287TIP3    H125056   1.939   3.253   0.497 -0.2845  0.1053  0.5073
  287TIP3    H225057   2.010   3.320   0.381  0.9257  1.4244  1.9703
  288TIP3   OH225058   1.496   2.560   2.004  0.2081 -0.1033 -0.4665
  288TIP3    H125059   1.511   2.579   2.096  0.2858  0.4662 -0.5914
  288TIP3    H225060   1.572   2.508   1.977  1.5943  2.0373 -0.8900
  289TIP3   OH225061   1.525   7.237   1.031 -0.2526  0.4798 -0.1844
  289TIP3    H125062   1.450   7.273   0.983  0.6172  0.7257 -1.4058
  289TIP3    H225063   1.591   7.305   1.028  0.4212 -0.1566 -0.1012
  290TIP3   OH225064   0.833   3.670   1.630 -0.3634  0.2649  0.0832
  290TIP3    H125065   0.836   3.648   1.537 -0.8232  0.6880 -0.0344
  290TIP3    H225066   0.878   3.754   1.637  1.0274 -0.4628  0.4753
  291TIP3   OH225067   4.926   2.182   1.601 -0.0797  0.3749  0.3181
  291TIP3    H125068   4.969   2.167   1.686 -0.4576 -0.2962  0.3926
  291TIP3    H225069   4.837   2.207   1.623  0.1625  1.4576  0.1482
  292TIP3   OH225070   1.013   3.564   1.849 -0.1390  0.2022  0.0199
  292TIP3    H125071   1.080   3.572   1.917  1.9825  1.3813 -2.0576
  292TIP3    H225072   0.971   3.650   1.846 -0.8490 -0.1250  0.4246
  293TIP3   OH225073   3.003   6.829   0.915 -0.0273 -0.0609  0.0078
  293TIP3    H125074   3.034   6.864   0.832  1.9680  0.5531  0.9603
  293TIP3    H225075   3.063   6.757   0.936  0.0527  0.3539  1.3157
  294TIP3   OH225076   6.051   1.789   1.215 -0.0326 -0.9775  0.0200
  294TIP3    H125077   6.146   1.804   1.207 -0.2474  2.2870  1.6395
  294TIP3    H225078   6.044   1.705   1.260  2.3137  0.1195  2.7752
  295TIP3   OH225079   1.922   6.406   2.649  0.0716 -0.2432 -0.4773
  295TIP3    H125080   1.925   6.438   2.739 -0.0469 -0.8320 -0.2662
  295TIP3    H225081   1.968   6.322   2.652  0.5400 -0.0172 -1.0700
  296TIP3   OH225082   3.104   2.662   1.522  0.3738 -0.1438  0.2673
  296TIP3    H125083   3.101   2.756   1.539  0.9624 -0.1862  0.6523
  296TIP3    H225084   3.123   2.623   1.607 -0.7981 -0.6931  0.3025
  297TIP3   OH225085   1.491   2.159   0.967  0.4965  0.1084  0.0567
  297TIP3    H125086   1.477   2.091   1.032 -1.0097 -0.6658 -1.0094
  297TIP3    H225087   1.521   2.112   0.889 -1.7393  0.4196 -1.0881
  298TIP3   OH225088   3.797   2.451   1.878  0.3537 -0.3096 -0.6303
  298TIP3    H125089   3.721   2.446   1.936  0.7901  1.0033  0.0846
  298TIP3    H225090   3.826   2.542   1.884  2.1535 -0.8539 -0.6909
  299TIP3   OH225091   3.245   6.199   2.130  0.6751  0.7496  0.2416
  299TIP3    H125092   3.229   6.218   2.222 -0.0711  1.1076  0.0484
  299TIP3    H225093   3.263   6.105   2.127  2.4605  1.0326  0.9581
  300TIP3   OH225094   0.942   3.626   2.802 -0.6291  0.1186 -0.2524
  300TIP3    H125095   0.962   3.588   2.888 -2.7125 -1.2475 -0.3049
  300TIP3    H225096   0.906   3.713   2.823 -0.3244  0.1423  0.1963
  301TIP3   OH225097   6.829   1.983   0.633 -0.2170 -0.0003  0.0729
  301TIP3    H125098   6.852   1.962   0.543  0.8714  1.2914  0.0046
  301TIP3    H225099   6.852   1.905   0.683  1.2062  0.0179 -0.4927
  302TIP3   OH225100   2.770   4.241   1.917  0.0444 -0.5244 -0.1422
  302TIP3    H125101   2.833   4.300   1.875 -0.3196  1.0680  1.4146
  302TIP3    H225102   2.691   4.249   1.864  0.8196 -1.8511 -1.5889
  303TIP3   OH225103   1.401   0.718   1.489 -0.3698  0.2293  0.5715
  303TIP3    H125104   1.350   0.674   1.421  0.1015  0.0639  0.3203
  303TIP3    H225105   1.417   0.806   1.454 -0.2590  0.1952  0.5367
  304TIP3   OH225106   1.084   4.894   2.879  0.3677 -0.1704 -0.1551
  304TIP3    H125107   1.135   4.907   2.959 -0.3837  0.8989  0.1664
  304TIP3    H225108   1.139   4.931   2.810 -0.6940  2.7814  0.4357
  305TIP3   OH225109   5.334   5.404   0.762 -0.1510 -0.6752  0.5672
  305TIP3    H125110   5.405   5.339   0.760  0.9440  0.4699  0.4716
  305TIP3    H225111   5.290   5.390   0.845 -0.5132 -2.1236  0.1462
  306TIP3   OH225112   3.602   0.892   0.827 -0.5652  0.8914  0.1545
  306TIP3    H125113   3.605   0.879   0.732 -0.1594 -0.1879  0.3081
  306TIP3    H225114   3.648   0.975   0.840 -0.1347  0.7726 -0.5453
  307TIP3   OH225115   4.996   0.156   2.087  0.2861 -0.0100  0.3901
  307TIP3    H125116   4.971   0.144   1.995  1.1892  0.9673  0.0059
  307TIP3    H225117   4.957   0.080   2.132 -1.9433  0.5710 -0.4243
  308TIP3   OH225118   5.447   4.122   0.858  0.1374  0.3100 -0.0504
  308TIP3    H125119   5.380   4.056   0.839 -0.6437  0.9969  0.2510
  308TIP3    H225120   5.427   4.150   0.947 -0.7109  2.2863 -0.8119
  309TIP3   OH225121   6.248   2.936   2.765 -0.1063  0.0080  0.1251
  309TIP3    H125122   6.320   2.904   2.711  0.5470 -2.1173  2.0905
  309TIP3    H225123   6.175   2.877   2.747 -0.7518  0.9265 -0.3646
  310TIP3   OH225124   2.747   3.703   1.873  0.1720 -0.8656 -0.0253
  310TIP3    H125125   2.842   3.698   1.858  0.1413  1.5140 -1.5084
  310TIP3    H225126   2.736   3.775   1.934 -0.6164 -2.7105  2.1549
  311TIP3   OH225127   0.023   2.464   1.152 -0.1236 -0.5076 -0.5174
  311TIP3    H125128   0.019   2.510   1.069 -0.1121 -2.4818 -1.6705
  311TIP3    H225129  -0.022   2.522   1.214  2.6710  2.5369 -1.0728
  312TIP3   OH225130   7.129   1.116   1.109 -0.8417  0.1280  0.1293
  312TIP3    H125131   7.202   1.164   1.069  0.3780 -0.8333  1.1431
  312TIP3    H225132   7.108   1.165   1.188 -1.9986  0.9703 -0.6742
  313TIP3   OH225133   1.530   4.143   2.353 -0.4598 -0.3131 -0.7930
  313TIP3    H125134   1.583   4.183   2.422 -1.3376 -1.1268  0.4047
  313TIP3    H225135   1.591   4.127   2.281  0.2243  1.7493 -0.7361
  314TIP3   OH225136   5.930   4.675   0.533 -0.0729  0.5588 -0.4378
  314TIP3    H125137   5.875   4.725   0.473  0.5707  1.6190 -0.1679
  314TIP3    H225138   5.980   4.741   0.580  0.6399 -0.3390  0.0912
  315TIP3   OH225139   6.760   3.607   2.266  0.0473 -0.3170 -0.1821
  315TIP3    H125140   6.727   3.673   2.206 -3.9598 -1.2198  0.7487
  315TIP3    H225141   6.839   3.646   2.304 -0.4093  2.5584 -1.9524
  316TIP3   OH225142   0.613   6.845   0.937 -0.4761 -0.0349  0.7752
  316TIP3    H125143   0.633   6.864   0.845  0.4478 -2.7265  0.3466
  316TIP3    H225144   0.539   6.784   0.933  0.3395 -1.1161  1.7548
  317TIP3   OH225145   2.125   3.217   3.175 -0.3148 -0.0138 -0.0046
  317TIP3    H125146   2.136   3.310   3.197  0.1651  0.1670 -0.9317
  317TIP3    H225147   2.199   3.198   3.116 -0.5884 -0.9000 -0.0710
  318TIP3   OH225148   7.168   2.975   3.494  0.3527 -0.0760 -0.0445
  318TIP3    H125149   7.098   3.034   3.523  0.1071 -0.0925 -0.5941
  318TIP3    H225150   7.190   2.923   3.572 -0.0563  0.1169  0.2006
  319TIP3   OH225151   0.116   1.802   3.039 -0.2218 -0.2861  0.7247
  319TIP3    H125152   0.141   1.877   3.093 -1.0338  0.6856 -0.2208
  319TIP3    H225153   0.195   1.782   2.989 -0.3992  0.8544 -0.0458
  320TIP3   OH225154   5.210   3.740   2.152 -0.6352 -0.0158 -0.5236
  320TIP3    H125155   5.150   3.677   2.111 -1.7742 -0.3714  1.5622
  320TIP3    H225156   5.155   3.816   2.172  0.2289  0.7422 -0.9439
  321TIP3   OH225157   5.528   6.246   2.770 -0.2567  0.2835 -0.0261
  321TIP3    H125158   5.621   6.242   2.748 -0.2566 -0.5364  0.0996
  321TIP3    H225159   5.524   6.225   2.864 -0.5715  0.1864 -0.0578
  322TIP3   OH225160   6.526   6.801   1.987 -0.0345 -0.2600  0.1699
  322TIP3    H125161   6.494   6.882   1.948  2.3003  0.0471 -1.3121
  322TIP3    H225162   6.529   6.739   1.914 -0.2642 -1.1978  0.9432
  323TIP3   OH225163   0.824   5.482   7.437 -0.5729  0.1893  0.0965
  323TIP3    H125164   0.848   5.525   7.356  0.2959 -0.2069  0.1305
  323TIP3    H225165   0.735   5.450   7.422  0.1658 -1.3683 -1.3475
  324TIP3   OH225166   2.180   5.825   8.322 -0.3506  0.7496 -0.2205
  324TIP3    H125167   2.118   5.894   8.299 -1.9740 -0.9600 -1.2647
  324TIP3    H225168   2.208   5.847   8.411 -0.9460  2.6167 -0.4428
  325TIP3   OH225169   1.042   5.926   7.075 -0.0737  0.1040 -0.5551
  325TIP3    H125170   1.081   5.840   7.085 -1.6566 -0.4559  1.5058
  325TIP3    H225171   1.113   5.982   7.043  1.2024 -1.7465 -1.0534
  326TIP3   OH225172   0.895   4.211   9.173  0.6022  0.1010  0.4115
  326TIP3    H125173   0.876   4.133   9.226  0.1097  0.3958  0.6796
  326TIP3    H225174   0.883   4.182   9.083  1.3226 -0.3730  0.4548
  327TIP3   OH225175   4.045   1.809   9.287  0.3508  0.2432 -0.3860
  327TIP3    H125176   3.956   1.795   9.317  0.4674  0.2166 -0.0509
  327TIP3    H225177   4.100   1.776   9.358  0.6568 -1.6317 -1.4230
  328TIP3   OH225178   0.992   6.404   9.301 -0.1015 -0.7450 -0.0847
  328TIP3    H125179   1.062   6.453   9.257 -0.1475 -1.1579 -0.6431
  328TIP3    H225180   0.939   6.470   9.345  0.0686 -0.3346 -0.4919
  329TIP3   OH225181   0.494   1.587   8.277 -0.1567 -0.6678 -0.3447
  329TIP3    H125182   0.497   1.493   8.261 -0.7874 -0.6427 -0.6474
  329TIP3    H225183   0.574   1.606   8.326 -0.4717 -1.5079  0.5231
  330TIP3   OH225184   3.953   7.159   9.625  0.5614  0.1025 -0.3110
  330TIP3    H125185   4.024   7.135   9.564  1.2268  0.2013  0.4094
  330TIP3    H225186   3.994   7.155   9.711 -0.7428 -1.4463  0.2776
  331TIP3   OH225187   3.776   1.817   9.438  0.1076  0.0130 -0.4096
  331TIP3    H125188   3.749   1.728   9.416  0.6807  0.2544 -2.2586
  331TIP3    H225189   3.694   1.867   9.445 -0.1666 -0.4517 -0.3064
  332TIP3   OH225190   0.409   3.274   9.346  0.3369 -0.4070 -0.4211
  332TIP3    H125191   0.434   3.366   9.350  1.7978 -0.7858 -0.4842
  332TIP3    H225192   0.405   3.253   9.253 -1.3765 -0.0813 -0.4641
  333TIP3   OH225193   0.711   7.281   8.156 -0.2343 -0.1666  0.7016
  333TIP3    H125194   0.715   7.376   8.167 -1.1515  0.0287 -0.5485
  333TIP3    H225195   0.665   7.250   8.234  0.1124  0.4012  1.1391
  334TIP3   OH225196   4.704   7.611   7.428 -0.7126  0.8137  0.2864
  334TIP3    H125197   4.613   7.599   7.403 -0.0293 -1.5740 -1.4215
  334TIP3    H225198   4.748   7.635   7.346  0.6086 -0.8974  0.4408
  335TIP3   OH225199   5.426   4.811   9.245 -0.3046 -0.5791 -0.1500
  335TIP3    H125200   5.462   4.722   9.237 -1.8056 -1.1516 -1.1168
  335TIP3    H225201   5.348   4.800   9.299 -2.3542 -0.5268 -2.8577
  336TIP3   OH225202   4.310   7.420   8.830 -0.1328 -0.4780 -0.2134
  336TIP3    H125203   4.298   7.327   8.810 -0.4427 -0.9980  2.1327
  336TIP3    H225204   4.367   7.422   8.906  1.1182  1.3644 -1.1035
  337TIP3   OH225205   1.436   1.087   7.191 -0.5542 -0.3114  0.8500
  337TIP3    H125206   1.524   1.118   7.170 -0.7246  1.0059  1.9373
  337TIP3    H225207   1.444   0.991   7.189  0.3899 -0.2412 -1.0104
  338TIP3   OH225208   1.103   1.419   8.574 -0.4359  0.3912  0.6007
  338TIP3    H125209   1.023   1.450   8.532 -1.2894 -0.8380  1.2547
  338TIP3    H225210   1.116   1.331   8.538  0.2336  0.3117  1.0168
  339TIP3   OH225211   5.037   6.794   8.902 -0.5991 -0.3473  0.2550
  339TIP3    H125212   4.948   6.809   8.936 -0.1268  1.5812  0.7136
  339TIP3    H225213   5.094   6.808   8.978  0.1885 -0.4288 -0.3121
  340TIP3   OH225214   3.840   3.968   7.741 -0.1431  0.6546 -0.4173
  340TIP3    H125215   3.772   4.024   7.778 -0.1976 -0.1191  0.6844
  340TIP3    H225216   3.848   3.997   7.650 -0.0091  2.5877  0.1746
  341TIP3   OH225217   3.434   3.168   7.325 -0.0132  0.4239 -0.0425
  341TIP3    H125218   3.460   3.260   7.327  0.8073  0.2133 -0.6267
  341TIP3    H225219   3.348   3.167   7.366  0.4244  1.2989  0.9444
  342TIP3   OH225220   0.397   1.897   9.010  0.4176  0.3723 -0.2571
  342TIP3    H125221   0.344   1.889   9.089 -1.7395  0.3009 -1.6278
  342TIP3    H225222   0.487   1.891   9.040 -0.3710 -0.6699  2.0619
  343TIP3   OH225223   6.126   5.206   8.793 -0.4724 -0.4510  0.7313
  343TIP3    H125224   6.094   5.285   8.837 -0.2109 -0.4333  0.8861
  343TIP3    H225225   6.204   5.181   8.841  0.1532 -0.0957 -0.0722
  344TIP3   OH225226   3.067   5.899   8.736  0.3635 -0.3194 -0.4306
  344TIP3    H125227   2.976   5.888   8.765  1.0168 -1.2840  1.4015
  344TIP3    H225228   3.101   5.810   8.729  1.6912  0.0445  0.7933
  345TIP3   OH225229   1.276   2.376   8.542 -0.4437 -0.2815 -0.0118
  345TIP3    H125230   1.210   2.442   8.566 -1.1117 -1.3179  1.1030
  345TIP3    H225231   1.349   2.428   8.508 -0.2113  1.2382  2.4637
  346TIP3   OH225232   4.380   2.411   8.230  0.2654 -0.1258 -0.2862
  346TIP3    H125233   4.424   2.434   8.148  0.8676  0.1358  0.1083
  346TIP3    H225234   4.321   2.339   8.205  0.3425  0.0370 -0.9753
  347TIP3   OH225235   6.659   6.539   9.221  0.4695 -1.0354 -0.4679
  347TIP3    H125236   6.696   6.616   9.178  0.8328 -1.6675 -1.3144
  347TIP3    H225237   6.627   6.572   9.305 -1.2233  0.4774 -1.6144
  348TIP3   OH225238   3.786   2.856   8.473 -0.5041  0.1956 -0.3555
  348TIP3    H125239   3.775   2.949   8.491 -0.1541  0.0087  0.9488
  348TIP3    H225240   3.818   2.852   8.383 -1.3975  1.2751 -0.7368
  349TIP3   OH225241   6.925   0.097   8.734 -0.5723 -0.5939  0.4022
  349TIP3    H125242   6.952   0.183   8.702  0.1065 -1.1327 -0.5344
  349TIP3    H225243   6.830   0.097   8.726 -0.5895  0.1170  0.5484
  350TIP3   OH225244   1.079   0.994   8.918 -0.0120 -0.4546 -0.0836
  350TIP3    H125245   1.036   1.065   8.967  1.1007 -0.1964  0.5638
  350TIP3    H225246   1.036   0.914   8.949 -0.2678 -0.1781  0.2912
  351TIP3   OH225247   0.237   1.176   8.462  0.0594 -0.0813 -0.3447
  351TIP3    H125248   0.177   1.121   8.412  1.8469 -1.9690 -0.5709
  351TIP3    H225249   0.211   1.266   8.442 -0.8382 -0.8104 -2.7124
  352TIP3   OH225250   0.740   7.364   7.137 -0.0732 -0.1578 -0.1386
  352TIP3    H125251   0.786   7.415   7.204  0.7125 -0.4385 -0.4523
  352TIP3    H225252   0.667   7.419   7.110  0.4057  0.5334 -0.0354
  353TIP3   OH225253   4.404   3.627   7.951  0.3302 -0.2104  0.5761
  353TIP3    H125254   4.467   3.567   7.991  0.5315  0.1121  0.7390
  353TIP3    H225255   4.370   3.578   7.875 -0.0088 -0.7954  1.0934
  354TIP3   OH225256   4.671   5.027   8.004  0.1781 -0.1958 -0.1342
  354TIP3    H125257   4.733   4.958   8.027  0.0708  0.6822  3.3502
  354TIP3    H225258   4.604   4.982   7.951  0.3272 -2.7086  1.6345
  355TIP3   OH225259   1.527   0.619   8.087  0.2107  0.3181 -0.1487
  355TIP3    H125260   1.537   0.618   7.992  0.4580 -0.7411 -0.1275
  355TIP3    H225261   1.446   0.571   8.103 -1.3309  2.8340  0.0635
  356TIP3   OH225262   5.688   3.919   7.612  0.0681 -0.2352  0.9215
  356TIP3    H125263   5.742   3.988   7.651  0.2348  0.5613 -0.6371
  356TIP3    H225264   5.681   3.944   7.519 -1.6611 -1.1674  0.7641
  357TIP3   OH225265   1.616   4.308   8.273  0.1848  0.0123  0.0100
  357TIP3    H125266   1.554   4.249   8.230  1.5837 -1.7770  0.3705
  357TIP3    H225267   1.702   4.276   8.247  1.0072  2.2393 -0.1970
  358TIP3   OH225268   5.606   5.647   7.138  0.6361  0.2096 -0.3149
  358TIP3    H125269   5.622   5.706   7.064  1.1152  2.8618  1.7314
  358TIP3    H225270   5.511   5.642   7.145  0.4990 -1.9525 -2.3798
  359TIP3   OH225271   7.446   1.360   7.025 -0.5299  0.6395  0.0395
  359TIP3    H125272   7.446   1.287   6.963 -1.0178  1.1069 -0.5195
  359TIP3    H225273   7.528   1.406   7.007 -1.1382  1.3612 -0.9791
  360TIP3   OH225274   3.873   6.161   9.089  0.3357  0.5008 -0.3256
  360TIP3    H125275   3.918   6.192   9.168 -2.9385  1.4537  1.3546
  360TIP3    H225276   3.874   6.236   9.030  1.8192  0.1561 -0.7689
  361TIP3   OH225277   2.906   6.466   8.564  0.1104  0.6671  0.6492
  361TIP3    H125278   2.919   6.371   8.571 -1.0065  0.2703 -1.4701
  361TIP3    H225279   2.994   6.503   8.561  0.5716 -0.3766  0.9359
  362TIP3   OH225280   3.043   7.306   8.238 -0.1911 -0.4185 -0.7598
  362TIP3    H125281   3.012   7.216   8.250 -0.2724 -0.2587  0.2985
  362TIP3    H225282   3.023   7.326   8.147 -2.1485 -0.7419 -0.4502
  363TIP3   OH225283   2.755   0.339   8.611  0.0030  0.1424  0.2818
  363TIP3    H125284   2.782   0.252   8.581  0.7640 -0.5921  2.8707
  363TIP3    H225285   2.663   0.346   8.585 -0.0765 -1.4374  0.0456
  364TIP3   OH225286   1.137   2.820   9.592 -0.0553 -0.1117  0.6919
  364TIP3    H125287   1.120   2.913   9.580  1.6765 -0.0978 -2.6028
  364TIP3    H225288   1.051   2.783   9.611 -1.2329  1.8277 -0.5234
  365TIP3   OH225289   4.242   1.435   7.212 -0.4810 -0.0840 -0.3303
  365TIP3    H125290   4.296   1.390   7.147 -0.9541 -1.4675  0.1970
  365TIP3    H225291   4.295   1.510   7.239 -0.1581  0.3699 -2.0839
  366TIP3   OH225292   4.493   1.216   9.007 -0.0693 -0.0411 -0.5350
  366TIP3    H125293   4.542   1.159   8.947 -2.1572 -1.8144 -0.6470
  366TIP3    H225294   4.481   1.163   9.085 -0.0130  1.1608  0.3084
  367TIP3   OH225295   2.363   7.139   8.601  0.7677  0.0632 -0.1879
  367TIP3    H125296   2.364   7.060   8.655 -0.5875  0.2679  0.1765
  367TIP3    H225297   2.306   7.199   8.648  0.0580  0.4789 -1.5249
  368TIP3   OH225298   5.728   6.510   8.199 -0.1711  0.1929 -0.6702
  368TIP3    H125299   5.719   6.533   8.106 -0.4472 -0.1050 -0.7201
  368TIP3    H225300   5.799   6.446   8.201 -0.4914 -0.1710 -0.7432
  369TIP3   OH225301   1.771   4.299   8.611 -0.3503 -0.5187  0.0564
  369TIP3    H125302   1.845   4.324   8.666 -2.5900  1.0467  2.5880
  369TIP3    H225303   1.765   4.204   8.621 -0.2742 -0.3514  2.0676
  370TIP3   OH225304   5.462   3.929   7.335 -0.1886  0.0992  0.2069
  370TIP3    H125305   5.555   3.953   7.342 -0.0646 -0.5768  1.1617
  370TIP3    H225306   5.458   3.871   7.259  0.2267 -0.0654  0.3052
  371TIP3   OH225307   5.188   2.930   7.348 -0.2236 -0.1123 -0.3621
  371TIP3    H125308   5.168   3.007   7.295  1.1946  0.5072 -0.0447
  371TIP3    H225309   5.186   2.857   7.286  0.2983  0.4473 -1.0577
  372TIP3   OH225310   2.069   3.035   7.733  0.3507 -0.3826 -0.4795
  372TIP3    H125311   2.018   3.036   7.652 -0.3024  1.0816 -0.0918
  372TIP3    H225312   2.034   3.109   7.784  2.5530  0.4182 -0.0111
  373TIP3   OH225313   0.782   5.355   8.662  0.1222 -0.4378  0.7476
  373TIP3    H125314   0.808   5.376   8.752  0.9999 -0.3569  0.4819
  373TIP3    H225315   0.864   5.331   8.619 -0.5238 -2.3080  0.4659
  374TIP3   OH225316   2.258   4.699   8.470  0.3748  0.2778 -0.0121
  374TIP3    H125317   2.257   4.792   8.444  1.2398  0.5031  0.7276
  374TIP3    H225318   2.186   4.691   8.532  0.1014  0.3803 -0.3102
  375TIP3   OH225319   4.911   5.501   8.817 -0.2612  0.1655  0.7406
  375TIP3    H125320   4.877   5.521   8.729  0.1317  1.7085  0.9057
  375TIP3    H225321   4.928   5.587   8.855  1.9045 -0.5122  1.4180
  376TIP3   OH225322   7.631   1.271   8.777  0.6961 -0.0428  0.4396
  376TIP3    H125323   7.621   1.204   8.709  1.8346 -1.7793  1.8960
  376TIP3    H225324   7.641   1.222   8.858  0.4905  1.9455  1.7474
  377TIP3   OH225325   5.997   5.811   8.931 -0.3582 -0.1485  0.1458
  377TIP3    H125326   5.975   5.756   9.006  0.0314  0.1347  0.4723
  377TIP3    H225327   6.092   5.821   8.936 -0.1958 -0.9307 -0.9392
  378TIP3   OH225328   6.555   2.122   8.337 -0.3717 -0.2166 -0.4041
  378TIP3    H125329   6.617   2.049   8.338 -0.7270 -0.5241  0.9099
  378TIP3    H225330   6.477   2.085   8.295 -0.4881 -0.5461  0.0948
  379TIP3   OH225331   4.359   4.462   8.162  0.0954  0.0546 -0.1374
  379TIP3    H125332   4.453   4.478   8.175 -0.2646  1.7755  0.5855
  379TIP3    H225333   4.333   4.409   8.237  0.2981  0.4057  0.1831
  380TIP3   OH225334   0.462   2.937   7.821  0.2527  0.3427 -0.4046
  380TIP3    H125335   0.531   2.898   7.876 -0.0329 -0.1379 -0.3824
  380TIP3    H225336   0.505   3.011   7.778  0.3771  0.9919  0.7890
  381TIP3   OH225337   2.611   0.222   8.239 -0.6599  0.3250 -0.4893
  381TIP3    H125338   2.583   0.239   8.329  1.4189 -0.6024  0.3934
  381TIP3    H225339   2.569   0.138   8.217 -3.1202  1.6815 -1.3415
  382TIP3   OH225340   2.852   5.491   9.257 -0.1074 -0.4710 -0.1059
  382TIP3    H125341   2.911   5.566   9.256 -1.1510  0.3851  0.3372
  382TIP3    H225342   2.805   5.498   9.174 -0.4609 -0.4132  0.0970
  383TIP3   OH225343   5.162   1.681   9.534 -0.3401  0.0896 -0.4253
  383TIP3    H125344   5.122   1.595   9.519  1.4151 -0.6074 -1.4660
  383TIP3    H225345   5.246   1.676   9.489  0.0663  2.1674  0.0084
  384TIP3   OH225346   5.331   4.952   8.465 -0.2854  0.0749 -0.4684
  384TIP3    H125347   5.334   5.038   8.507 -0.3970  0.4052 -1.1184
  384TIP3    H225348   5.386   4.962   8.387  2.2606 -1.3432  1.0295
  385TIP3   OH225349   1.245   6.063   8.943 -0.4654  0.5798  0.4875
  385TIP3    H125350   1.308   6.091   9.010 -0.3908  1.6707 -0.0090
  385TIP3    H225351   1.261   6.123   8.870 -0.8354 -0.3265 -0.3474
  386TIP3   OH225352   4.227   6.304   9.094  0.2988  0.1987 -0.3494
  386TIP3    H125353   4.161   6.279   9.159 -0.3974  0.7382 -0.8415
  386TIP3    H225354   4.309   6.270   9.130  0.1681  1.6532  1.5106
  387TIP3   OH225355   4.399   6.189   7.832  0.2987 -0.0552 -1.1062
  387TIP3    H125356   4.384   6.218   7.921  1.2025 -1.2935 -0.5164
  387TIP3    H225357   4.339   6.241   7.779  1.2395  2.2363 -0.0566
  388TIP3   OH225358   2.060   5.299   8.365  0.2371  0.2948  0.4920
  388TIP3    H125359   2.114   5.356   8.311 -2.3285  1.5623 -0.9165
  388TIP3    H225360   2.041   5.351   8.443  1.1862 -0.2346  1.0886
  389TIP3   OH225361   2.804   4.493   6.965  0.0474 -0.4665 -0.3384
  389TIP3    H125362   2.747   4.552   7.015  1.7147  0.4205  0.6040
  389TIP3    H225363   2.745   4.425   6.932 -1.3445 -0.3459  1.7068
  390TIP3   OH225364   6.937   0.206   9.472  0.0622 -0.0717  0.0709
  390TIP3    H125365   6.976   0.275   9.418  2.3976 -1.4918 -0.2387
  390TIP3    H225366   6.903   0.251   9.549  3.6030  1.3218  1.0219
  391TIP3   OH225367   2.142   5.222   7.465 -0.3559  0.0798 -0.1966
  391TIP3    H125368   2.147   5.132   7.433  0.2611 -0.2677  0.8451
  391TIP3    H225369   2.084   5.266   7.402 -1.9702 -1.4280  0.1602
  392TIP3   OH225370   1.312   2.923   8.163 -0.0502  0.0753  0.0188
  392TIP3    H125371   1.302   2.835   8.198 -0.0398 -0.8057 -2.0339
  392TIP3    H225372   1.253   2.977   8.216 -2.1271 -1.6818 -0.3611
  393TIP3   OH225373   0.872   1.536   8.932 -0.2787 -0.3750 -0.8074
  393TIP3    H125374   0.846   1.621   8.966  0.8228 -0.1745 -0.4170
  393TIP3    H225375   0.795   1.504   8.884 -1.3106  0.0518  0.4986
  394TIP3   OH225376   1.454   7.606   8.824 -0.1451  0.2443 -0.0540
  394TIP3    H125377   1.486   7.604   8.914 -1.5255 -0.4025  0.4378
  394TIP3    H225378   1.361   7.626   8.831  0.0605  2.0153 -1.4567
  395TIP3   OH225379   6.832   6.436   8.676  0.2576  0.0977  0.0124
  395TIP3    H125380   6.772   6.371   8.638 -0.4037  1.1859 -0.8680
  395TIP3    H225381   6.847   6.405   8.765 -0.8168 -0.7547 -0.0786
  396TIP3   OH225382   2.438   3.717   7.400 -0.3479 -0.2609  0.6123
  396TIP3    H125383   2.404   3.628   7.398 -0.1772 -0.3739  2.1111
  396TIP3    H225384   2.460   3.733   7.492  0.9855  0.8065  0.1448
  397TIP3   OH225385   1.596   7.339   8.043 -0.4991  0.8001 -0.0807
  397TIP3    H125386   1.666   7.286   8.005 -1.2967 -0.2085 -0.1944
  397TIP3    H225387   1.576   7.404   7.976  0.0045  0.7853 -0.2428
  398TIP3   OH225388   3.960   2.060   7.617 -0.4438 -0.1036  1.0446
  398TIP3    H125389   4.049   2.082   7.588 -1.3043  1.2166 -0.8892
  398TIP3    H225390   3.935   1.985   7.563 -1.1936  0.8394  0.0197
  399TIP3   OH225391   5.821   4.508   8.483  0.3122 -0.4736 -0.4810
  399TIP3    H125392   5.845   4.566   8.555  0.3661 -1.4595  0.3232
  399TIP3    H225393   5.725   4.513   8.479  0.3983  1.0292 -1.6111
  400TIP3   OH225394   0.858   5.923   8.319 -0.0003 -0.2623  0.4389
  400TIP3    H125395   0.831   5.895   8.232  1.3349 -0.2831  0.0176
  400TIP3    H225396   0.893   5.843   8.359 -1.4390 -0.4770  1.3595
  401TIP3   OH225397   4.342   3.928   7.198  0.0986 -0.4561 -0.0032
  401TIP3    H125398   4.302   3.861   7.142  1.3950 -1.6033  0.3786
  401TIP3    H225399   4.431   3.895   7.215  0.9224  1.5433 -0.0881
  402TIP3   OH225400   7.026   7.110   7.203 -0.7247  0.2337  0.8298
  402TIP3    H125401   7.098   7.161   7.166  0.0657 -1.2448  0.2299
  402TIP3    H225402   6.948   7.161   7.183 -0.1049  0.5856 -0.9177
  403TIP3   OH225403   2.840   0.906   8.987  0.3314  0.2432  0.3315
  403TIP3    H125404   2.877   0.989   9.016  0.1861  1.0797 -1.7446
  403TIP3    H225405   2.904   0.873   8.923 -1.0750  0.3129 -1.1718
  404TIP3   OH225406   4.026   6.353   8.307 -0.5511  0.0648 -0.0300
  404TIP3    H125407   4.080   6.384   8.380  0.3185 -0.4841 -0.4174
  404TIP3    H225408   4.046   6.413   8.236 -0.2286 -0.3054 -0.2556
  405TIP3   OH225409   6.542   0.496   8.669 -0.2218 -0.7688 -1.0930
  405TIP3    H125410   6.624   0.451   8.653 -0.5515 -2.2547  0.9979
  405TIP3    H225411   6.475   0.428   8.666 -1.2753  0.2402 -1.7456
  406TIP3   OH225412   6.878   3.244   7.698  0.1580 -0.5240  0.2997
  406TIP3    H125413   6.825   3.277   7.625  0.2733  1.1315  0.9410
  406TIP3    H225414   6.869   3.149   7.691 -2.0862 -0.3493 -0.2273
  407TIP3   OH225415   3.473   3.686   9.222 -0.0449  0.5726  0.1482
  407TIP3    H125416   3.467   3.595   9.253 -1.3961  1.5920  3.2663
  407TIP3    H225417   3.429   3.685   9.137 -1.3720 -1.4380  0.7759
  408TIP3   OH225418   2.434   4.522   7.230 -0.5439 -0.4582 -0.2446
  408TIP3    H125419   2.447   4.450   7.168  0.2397 -0.8865  0.3989
  408TIP3    H225420   2.483   4.495   7.308  1.9749  1.9218 -0.8614
  409TIP3   OH225421   3.783   1.936   7.789 -0.0368  0.2924  0.1411
  409TIP3    H125422   3.845   1.900   7.852 -0.1897 -1.2384 -0.5502
  409TIP3    H225423   3.833   2.002   7.741  0.2744  0.9798  1.3797
  410TIP3   OH225424   0.600   5.556   8.089  0.0186 -0.8100  0.2205
  410TIP3    H125425   0.518   5.605   8.103  0.4953 -0.0583  0.4290
  410TIP3    H225426   0.633   5.588   8.005  1.4750  0.9170  1.3779
  411TIP3   OH225427   6.478   7.064   7.693 -0.2059  0.2002  0.1627
  411TIP3    H125428   6.410   7.061   7.760  0.2021  1.6244  0.6750
  411TIP3    H225429   6.436   7.104   7.617 -0.0981  0.5270  0.2758
  412TIP3   OH225430   4.229   3.960   8.396  0.3354 -0.6888 -0.2798
  412TIP3    H125431   4.286   3.924   8.329  0.6401  0.1766 -0.5034
  412TIP3    H225432   4.198   4.043   8.360  2.2207  0.8867  1.4544
  413TIP3   OH225433   1.819   7.475   7.574  0.3386  0.3114  0.2006
  413TIP3    H125434   1.841   7.538   7.504 -2.3060  0.9466 -0.1523
  413TIP3    H225435   1.885   7.406   7.565  1.4968  1.5396 -1.3749
  414TIP3   OH225436   0.425   7.203   7.145 -0.6825  0.2180  0.6374
  414TIP3    H125437   0.399   7.158   7.065 -1.4715  0.5757  0.6829
  414TIP3    H225438   0.516   7.175   7.160 -0.9425 -0.8491  0.3192
  415TIP3   OH225439   1.317   6.698   8.163  0.3494 -0.2832  0.5465
  415TIP3    H125440   1.314   6.663   8.074  1.5622 -0.2268  0.4783
  415TIP3    H225441   1.286   6.625   8.218  0.8861 -0.7741  0.2073
  416TIP3   OH225442   0.443   0.898   7.430  0.8083  0.3671  0.1864
  416TIP3    H125443   0.374   0.835   7.448  1.0298  0.4301  1.2900
  416TIP3    H225444   0.507   0.849   7.378  0.3317  0.0779 -0.1324
  417TIP3   OH225445   4.795   1.258   9.548 -0.2198  0.0029 -0.1026
  417TIP3    H125446   4.872   1.211   9.513  0.6817  1.9435 -0.8680
  417TIP3    H225447   4.757   1.197   9.611  0.6643 -1.8972 -1.2986
  418TIP3   OH225448   6.857   2.950   7.673 -0.0907 -0.2368 -0.0900
  418TIP3    H125449   6.858   2.927   7.581  2.0001  0.2500 -0.2422
  418TIP3    H225450   6.765   2.945   7.699 -0.9904  1.3085 -2.6313
  419TIP3   OH225451   4.280   7.400   7.574  0.3002 -0.4079  0.3579
  419TIP3    H125452   4.283   7.345   7.496  0.5896  1.0548 -0.7180
  419TIP3    H225453   4.350   7.464   7.560 -0.9403  1.1259  0.8263
  420TIP3   OH225454   1.254   1.938   7.102 -0.4244 -0.2198  0.5830
  420TIP3    H125455   1.204   1.895   7.033 -1.7331 -1.6792  2.3207
  420TIP3    H225456   1.335   1.966   7.061 -1.1562 -1.0233 -1.5078
  421TIP3   OH225457   3.990   0.362   9.079 -0.2912  0.4218 -0.2951
  421TIP3    H125458   4.028   0.450   9.073  0.2802  0.1904 -0.1427
  421TIP3    H225459   3.932   0.366   9.155 -0.1083  0.6093 -0.1634
  422TIP3   OH225460   7.534   5.629   9.295 -0.0069  0.4283  0.4792
  422TIP3    H125461   7.507   5.643   9.205 -3.6661 -1.9273  1.0133
  422TIP3    H225462   7.559   5.536   9.299  0.8199  0.6733  1.7673
  423TIP3   OH225463   1.901   7.633   7.368 -0.4224 -0.1539  0.2383
  423TIP3    H125464   1.837   7.703   7.382  0.2157  0.1082  2.0564
  423TIP3    H225465   1.983   7.670   7.400  0.3949 -0.9636 -0.8480
  424TIP3   OH225466   1.562   7.673   6.642 -0.2752 -0.3589 -0.3894
  424TIP3    H125467   1.469   7.686   6.623 -0.8208  0.3324  2.3249
  424TIP3    H225468   1.595   7.625   6.566 -2.8527 -0.7342 -1.3956
  425TIP3   OH225469   2.182   4.450   6.493 -0.2097 -0.2712  0.6428
  425TIP3    H125470   2.242   4.493   6.554 -0.0776  0.0537  0.2842
  425TIP3    H225471   2.237   4.393   6.440  0.1946  1.8018 -1.3190
  426TIP3   OH225472   7.588   2.233   8.657  0.0486 -0.0036 -0.2232
  426TIP3    H125473   7.648   2.159   8.670  2.4978  1.9021  0.0596
  426TIP3    H225474   7.609   2.266   8.570  0.4160  1.5144  0.4081
  427TIP3   OH225475   5.667   3.848   9.353  0.1909 -0.0083  0.4713
  427TIP3    H125476   5.648   3.926   9.300 -0.4244  0.5470  1.4820
  427TIP3    H225477   5.602   3.784   9.326  0.4380 -0.0343 -0.0698
  428TIP3   OH225478   0.398   4.940   9.378  0.7905 -0.3610 -0.4796
  428TIP3    H125479   0.359   5.021   9.342 -1.4400 -0.5727  1.2390
  428TIP3    H225480   0.462   4.971   9.442 -1.0119  0.1679  1.1794
  429TIP3   OH225481   0.271   1.002   8.784 -0.1211 -0.6314  0.1043
  429TIP3    H125482   0.333   0.933   8.760  0.7726  0.7355 -1.7434
  429TIP3    H225483   0.216   1.014   8.707 -1.5756 -0.6295  1.1127
  430TIP3   OH225484   6.303   1.208   9.110  0.4613 -0.0330 -0.1641
  430TIP3    H125485   6.293   1.202   9.205  0.7396 -0.0761 -0.1369
  430TIP3    H225486   6.311   1.302   9.093 -2.1171  0.2358 -0.4105
  431TIP3   OH225487   5.738   4.678   9.331  0.2664  0.7703  0.1622
  431TIP3    H125488   5.651   4.644   9.310  0.4226  1.6950 -2.4163
  431TIP3    H225489   5.794   4.601   9.332 -0.0504  0.4517 -1.6858
  432TIP3   OH225490   6.789   7.364   7.387  0.6933  0.0061 -0.2067
  432TIP3    H125491   6.766   7.306   7.314  1.9917  0.6636 -1.1878
  432TIP3    H225492   6.815   7.446   7.345  0.3814  0.7881  1.0714
  433TIP3   OH225493   0.379   0.821   8.370  0.0817 -0.3332  0.3281
  433TIP3    H125494   0.346   0.877   8.300  0.6972 -0.0896  0.2235
  433TIP3    H225495   0.455   0.868   8.404  1.5063 -1.7525 -0.7063
  434TIP3   OH225496   6.462   3.874   7.070 -0.3855  0.2758 -0.4084
  434TIP3    H125497   6.428   3.963   7.063 -2.9185 -0.5287  0.7022
  434TIP3    H225498   6.392   3.824   7.113  1.3219 -2.0533 -0.1188
  435TIP3   OH225499   0.975   6.090   9.407 -0.0617  0.3859  0.0519
  435TIP3    H125500   1.041   6.054   9.347  0.9880  0.5919  1.0439
  435TIP3    H225501   0.996   6.183   9.412  1.2197  0.0469  2.3106
  436TIP3   OH225502   3.442   6.215   7.668 -0.3641  0.5038  0.0220
  436TIP3    H125503   3.403   6.302   7.657 -0.0957  0.5458 -0.6473
  436TIP3    H225504   3.536   6.231   7.668 -0.2274 -0.0092 -2.4056
  437TIP3   OH225505   1.479   3.471   9.466 -0.2895  0.0701  0.1086
  437TIP3    H125506   1.496   3.380   9.441  0.6924  0.6135 -1.3218
  437TIP3    H225507   1.509   3.477   9.557  1.5243 -0.5629 -0.4030
  438TIP3   OH225508   4.503   4.317   7.270  0.1350  0.3879  0.0829
  438TIP3    H125509   4.567   4.306   7.200 -0.5206  0.3767 -0.5245
  438TIP3    H225510   4.419   4.295   7.230 -0.1284 -0.6657  1.1531
  439TIP3   OH225511   5.907   7.156   9.325  1.0021  0.1940 -0.2725
  439TIP3    H125512   5.913   7.176   9.232  0.5353  1.1501 -0.1064
  439TIP3    H225513   5.888   7.062   9.327  0.9223  0.1775 -1.1413
  440TIP3   OH225514   0.432   7.426   8.247  0.4129 -0.7276 -0.2402
  440TIP3    H125515   0.482   7.348   8.271 -1.4041 -2.2148 -0.9754
  440TIP3    H225516   0.464   7.495   8.305  3.3582 -1.5220 -0.7951
  441TIP3   OH225517   5.117   3.370   9.037  0.5787 -0.1339  0.2235
  441TIP3    H125518   5.047   3.319   9.078 -0.4798  0.6622 -0.5510
  441TIP3    H225519   5.157   3.419   9.109 -1.2061  1.1883  0.3626
  442TIP3   OH225520   6.304   4.625   6.944 -0.0751  0.2981  0.1729
  442TIP3    H125521   6.242   4.685   6.904 -0.5715 -0.4478 -0.2090
  442TIP3    H225522   6.315   4.555   6.878 -0.7197 -0.8283  1.2199
  443TIP3   OH225523   4.685   2.679   9.882  0.0976 -0.1342  0.4519
  443TIP3    H125524   4.761   2.737   9.872  0.9298 -1.2233  0.3099
  443TIP3    H225525   4.719   2.602   9.927  0.2346 -2.6873 -3.5216
  444TIP3   OH225526   6.455   5.384   9.218 -0.7290 -0.3674 -0.5740
  444TIP3    H125527   6.481   5.440   9.145 -0.9925 -1.8590 -1.8431
  444TIP3    H225528   6.529   5.325   9.230  0.1763  1.0693  1.7106
  445TIP3   OH225529   7.366   6.912   8.695  0.0879 -0.4025  0.1640
  445TIP3    H125530   7.282   6.956   8.703  0.4328  0.1545  0.8588
  445TIP3    H225531   7.344   6.819   8.688 -0.6917 -0.1032 -2.0956
  446TIP3   OH225532   3.246   6.243   7.173  0.3417  0.1164 -0.4617
  446TIP3    H125533   3.320   6.239   7.112  0.6261  0.1589 -0.1264
  446TIP3    H225534   3.191   6.168   7.149  1.5120 -1.1317  0.5628
  447TIP3   OH225535   0.036   0.972   9.210 -0.2025  0.0077 -0.8694
  447TIP3    H125536   0.107   0.975   9.146 -0.5198  0.2465 -1.2181
  447TIP3    H225537   0.068   1.022   9.285 -0.3453  0.8846 -1.3814
  448TIP3   OH225538   7.499   5.800   8.260 -0.1267 -0.8221 -0.1156
  448TIP3    H125539   7.574   5.839   8.305 -2.0512  1.4557  1.3000
  448TIP3    H225540   7.495   5.711   8.294  1.5294 -0.7926  0.2633
  449TIP3   OH225541   3.587   7.103   7.113 -0.3601 -0.1695 -0.1958
  449TIP3    H125542   3.539   7.043   7.170 -1.2289  0.8896  0.2369
  449TIP3    H225543   3.557   7.190   7.140  0.0989  0.4154 -1.4805
  450TIP3   OH225544   5.066   4.218   9.511  0.3553  0.4258  0.0592
  450TIP3    H125545   5.138   4.197   9.453 -0.0564  0.8693 -0.6236
  450TIP3    H225546   5.082   4.309   9.538 -0.7367  1.0760 -1.3295
  451TIP3   OH225547   6.619   1.232   8.859  0.6567 -0.2799 -0.2700
  451TIP3    H125548   6.551   1.173   8.892  1.7543 -0.6808  1.3629
  451TIP3    H225549   6.576   1.281   8.788 -1.2200 -0.7435  0.4997
  452TIP3   OH225550   3.275   2.071   9.445 -0.0006 -0.1732  0.3455
  452TIP3    H125551   3.299   2.038   9.532 -0.6194 -0.8548  0.2719
  452TIP3    H225552   3.323   2.153   9.436 -0.0687 -0.0036  1.4046
  453TIP3   OH225553   6.746   5.779   8.775  0.2047  0.2867 -0.0127
  453TIP3    H125554   6.692   5.727   8.835 -1.3858  2.4224  0.5392
  453TIP3    H225555   6.706   5.765   8.689 -1.8209  2.3960  0.4899
  454TIP3   OH225556   3.005   2.603   7.981  0.2718 -0.1160  0.6207
  454TIP3    H125557   3.028   2.586   8.073 -1.4391 -0.5021  1.0010
  454TIP3    H225558   2.972   2.693   7.981  1.9965  0.5635  0.0086
  455TIP3   OH225559   2.161   4.121   8.533  0.6909  0.4245 -0.1756
  455TIP3    H125560   2.145   4.074   8.615 -0.1225  1.4038  0.2570
  455TIP3    H225561   2.130   4.061   8.465  0.9031 -0.1945  0.2617
  456TIP3   OH225562   3.422   4.989   7.962 -0.0526  0.4847  0.2947
  456TIP3    H125563   3.364   4.965   8.034  0.1881  0.4616  0.4842
  456TIP3    H225564   3.510   4.977   7.998  0.0814  1.5402  0.3543
  457TIP3   OH225565   0.989   1.391   7.389  1.1807  0.3859  0.3312
  457TIP3    H125566   0.932   1.436   7.325 -0.2883 -2.2553 -0.3764
  457TIP3    H225567   1.067   1.368   7.339  0.2127 -1.3001 -0.4972
  458TIP3   OH225568   3.825   4.843   7.790 -0.4270 -0.1189 -0.1208
  458TIP3    H125569   3.901   4.813   7.840  0.0608  1.0143 -0.1503
  458TIP3    H225570   3.828   4.791   7.709  0.2563 -0.1641 -0.0730
  459TIP3   OH225571   5.582   6.224   7.472  0.1450  0.5419 -0.1801
  459TIP3    H125572   5.546   6.215   7.384  1.0265 -1.1263 -0.4085
  459TIP3    H225573   5.567   6.316   7.495 -0.7081  0.8355 -1.7856
  460TIP3   OH225574   2.942   2.225   7.163  0.3666 -0.0334 -0.0914
  460TIP3    H125575   3.002   2.192   7.096  0.7740 -2.5473  1.3699
  460TIP3    H225576   2.973   2.313   7.182  2.0383 -0.3477 -1.1516
  461TIP3   OH225577   4.193   6.658   8.270 -1.0014  0.5617 -0.0620
  461TIP3    H125578   4.158   6.642   8.358 -1.0279 -0.1819 -0.2023
  461TIP3    H225579   4.118   6.691   8.220 -1.2547 -0.0343 -0.0855
  462TIP3   OH225580   0.920   6.763   7.905 -0.3770 -0.1667 -0.4848
  462TIP3    H125581   0.985   6.797   7.966 -0.0013  2.5756 -2.2394
  462TIP3    H225582   0.836   6.792   7.940 -0.4705 -1.3844  0.3586
  463TIP3   OH225583   7.544   0.729   7.148 -0.2897 -0.0553  0.1162
  463TIP3    H125584   7.569   0.784   7.074 -0.7495 -2.4955 -1.9548
  463TIP3    H225585   7.453   0.753   7.166 -0.3651  0.1351 -0.4969
  464TIP3   OH225586   1.668   7.310   7.181  0.7082  0.1310 -0.6777
  464TIP3    H125587   1.758   7.276   7.176  0.9570  0.7920 -0.7786
  464TIP3    H225588   1.614   7.239   7.147  1.3093  0.1856 -1.7984
  465TIP3   OH225589   3.844   5.016   9.305  0.2893  0.6540  0.2468
  465TIP3    H125590   3.884   5.072   9.239  0.1140  1.4174  0.7606
  465TIP3    H225591   3.840   4.929   9.265  1.7101  0.7302 -0.1037
  466TIP3   OH225592   7.107   3.887   7.677 -0.3096  0.0199 -0.0921
  466TIP3    H125593   7.173   3.954   7.659 -0.8210  0.3864 -0.6383
  466TIP3    H225594   7.023   3.931   7.664 -0.6828 -0.3450  0.9161
  467TIP3   OH225595   2.410   1.831   7.637 -0.8627  0.7430 -0.6422
  467TIP3    H125596   2.445   1.796   7.719  0.8422 -0.1250 -1.6856
  467TIP3    H225597   2.462   1.789   7.569 -2.2826  1.3913 -2.1943
  468TIP3   OH225598   7.582   5.375   7.882 -0.4349  0.0074 -0.1946
  468TIP3    H125599   7.564   5.375   7.788 -2.1591  0.1235  0.0956
  468TIP3    H225600   7.555   5.288   7.911 -1.0268  0.3703  0.3702
  469TIP3   OH225601   3.160   4.245   9.061  0.1807  0.3880  0.3049
  469TIP3    H125602   3.218   4.321   9.070  1.8535 -1.0369  2.8340
  469TIP3    H225603   3.206   4.187   9.000  1.9089 -0.9821  2.7201
  470TIP3   OH225604   0.877   0.282   9.021  0.6377 -0.1722 -1.1774
  470TIP3    H125605   0.950   0.337   8.994 -0.9942  4.1480  2.1315
  470TIP3    H225606   0.896   0.257   9.111 -2.3173  2.3871  0.3684
  471TIP3   OH225607   3.319   0.279   8.789  0.2030 -1.0167 -0.3461
  471TIP3    H125608   3.241   0.324   8.820  0.2899 -1.7325  0.9875
  471TIP3    H225609   3.387   0.301   8.853  0.8238 -1.2130 -0.9275
  472TIP3   OH225610   3.531   7.590   9.624  0.1026  0.0410  0.3376
  472TIP3    H125611   3.607   7.534   9.611  0.0398 -0.0582  0.3950
  472TIP3    H225612   3.465   7.533   9.663  0.2309  0.2931  0.9336
  473TIP3   OH225613   4.255   4.783   8.249  0.3176 -0.1195  0.6749
  473TIP3    H125614   4.223   4.693   8.264  0.4902 -0.4535 -0.7643
  473TIP3    H225615   4.346   4.771   8.221  0.3484  0.5113  0.5061
  474TIP3   OH225616   5.438   5.144   9.000 -0.1898  0.0145 -0.9497
  474TIP3    H125617   5.416   5.214   9.061  1.2738 -0.5390  0.2944
  474TIP3    H225618   5.379   5.156   8.926  0.9209  3.4064 -1.4613
  475TIP3   OH225619   5.159   0.532   8.840  0.7464  0.6375  0.0719
  475TIP3    H125620   5.223   0.462   8.823 -2.9281 -2.9008 -0.8414
  475TIP3    H225621   5.154   0.580   8.757  1.9982  0.7829  0.0715
  476TIP3   OH225622   7.029   3.261   9.418 -0.1059  0.3786 -0.4789
  476TIP3    H125623   6.960   3.311   9.460 -0.0403  0.5202 -0.5382
  476TIP3    H225624   7.009   3.170   9.438  0.8274  0.5052  1.2784
  477TIP3   OH225625   2.162   4.729   9.401 -0.3810  0.3034 -0.1724
  477TIP3    H125626   2.222   4.654   9.398 -0.8018 -0.0307 -0.4512
  477TIP3    H225627   2.206   4.793   9.457  0.0411 -0.1033 -0.0310
  478TIP3   OH225628   3.339   0.663   9.525 -0.5670 -0.5595 -0.2664
  478TIP3    H125629   3.372   0.620   9.603 -1.5965 -0.3443  0.3098
  478TIP3    H225630   3.252   0.695   9.550 -1.3284 -1.3184 -1.7884
  479TIP3   OH225631   2.988   7.395   7.992 -0.0775  0.0104  0.4628
  479TIP3    H125632   2.948   7.325   7.941  0.7223 -1.0801  1.2841
  479TIP3    H225633   3.028   7.452   7.926 -1.0499 -0.0819 -0.2346
  480TIP3   OH225634   7.316   0.779   9.103 -0.3149  0.1651 -0.2930
  480TIP3    H125635   7.354   0.815   9.184  1.1352 -0.1644 -0.7844
  480TIP3    H225636   7.239   0.833   9.087 -0.9119 -0.0531  1.5544
  481TIP3   OH225637   1.906   3.892   8.440  0.2325  0.0358  0.6408
  481TIP3    H125638   1.863   3.808   8.422 -0.4762  0.4921  0.1192
  481TIP3    H225639   1.859   3.927   8.516 -0.8928  0.9015 -0.4134
  482TIP3   OH225640   5.411   2.955   8.952  1.0101  0.6442 -0.6121
  482TIP3    H125641   5.328   2.909   8.947  1.2176  0.3996 -2.3126
  482TIP3    H225642   5.477   2.889   8.930  1.2819  1.7681 -3.6015
  483TIP3   OH225643   2.228   4.442   8.398  0.4212 -0.3652 -0.3677
  483TIP3    H125644   2.296   4.437   8.466  0.9184 -1.2019 -0.9072
  483TIP3    H225645   2.210   4.535   8.389  0.2902 -0.2476  0.9699
  484TIP3   OH225646   3.717   3.785   9.303 -0.4200 -0.1922 -0.6284
  484TIP3    H125647   3.635   3.744   9.277 -1.3373  1.6776 -0.8725
  484TIP3    H225648   3.776   3.771   9.229 -0.3674 -1.8833 -0.2924
  485TIP3   OH225649   3.736   1.859   9.059 -0.0141  0.2605  0.7184
  485TIP3    H125650   3.756   1.923   8.991 -1.1149  0.1551  0.2744
  485TIP3    H225651   3.758   1.903   9.141  0.8883  0.5561  0.3383
  486TIP3   OH225652   5.020   2.473   7.464  0.0215  0.0782  0.1651
  486TIP3    H125653   5.030   2.438   7.376  1.7081 -2.5666  1.3054
  486TIP3    H225654   4.933   2.445   7.492  0.8116 -2.1665  0.5438
  487TIP3   OH225655   5.948   4.590   8.136  0.5182 -0.0782  0.1912
  487TIP3    H125656   5.975   4.656   8.072 -0.8641  0.8696  0.5321
  487TIP3    H225657   5.980   4.622   8.220  1.7086 -0.9611  0.0994
  488TIP3   OH225658   6.043   0.961   9.155 -0.0642  0.2186  0.5560
  488TIP3    H125659   6.129   0.952   9.196  0.1698 -0.0631  0.0130
  488TIP3    H225660   6.053   1.037   9.097 -0.2749  0.3788  0.7312
  489TIP3   OH225661   3.796   6.611   8.817 -0.3329 -0.0034 -0.4929
  489TIP3    H125662   3.711   6.594   8.858 -0.4204 -0.9889 -1.0338
  489TIP3    H225663   3.791   6.565   8.733  0.1079  1.3666 -1.2991
  490TIP3   OH225664   1.399   1.471   7.991 -0.3757 -0.0352 -0.4171
  490TIP3    H125665   1.384   1.379   7.967 -0.5292  0.0296 -0.5707
  490TIP3    H225666   1.416   1.515   7.908 -0.0613  0.0312 -0.3173
  491TIP3   OH225667   2.564   0.512   8.350  0.7470  0.4446 -0.1144
  491TIP3    H125668   2.495   0.522   8.415  0.0988 -2.5919 -0.1924
  491TIP3    H225669   2.645   0.526   8.399  0.3017 -2.2195  1.5967
  492TIP3   OH225670   6.046   1.513   9.734  0.0575 -0.0989 -0.2126
  492TIP3    H125671   6.035   1.482   9.644 -0.4395 -2.0254  0.4616
  492TIP3    H225672   6.126   1.470   9.764 -0.1468  0.0021  0.4757
  493TIP3   OH225673   1.582   5.432   8.558  0.5018 -0.2006 -0.0708
  493TIP3    H125674   1.667   5.422   8.517  0.9967 -1.8955  1.2523
  493TIP3    H225675   1.547   5.343   8.564 -0.4432  0.2222  1.2815
  494TIP3   OH225676   6.764   7.636   7.211  0.1408  0.2090 -0.0946
  494TIP3    H125677   6.699   7.566   7.204  1.2981 -0.8929 -0.2601
  494TIP3    H225678   6.714   7.714   7.235 -1.0321 -0.9861  1.5916
  495TIP3   OH225679   1.865   3.066   7.217  0.0166 -0.3423  0.5958
  495TIP3    H125680   1.847   2.995   7.156 -0.8289  0.8536 -0.6053
  495TIP3    H225681   1.960   3.067   7.225  0.1075 -0.8679 -0.3025
  496TIP3   OH225682   4.096   3.672   7.298 -0.6151 -0.0727 -0.3138
  496TIP3    H125683   4.045   3.594   7.277  1.8170 -1.3681 -1.8899
  496TIP3    H225684   4.187   3.642   7.298  0.3182  2.4903  0.4810
  497TIP3   OH225685   1.776   3.192   7.644  0.0750  0.3216  0.4634
  497TIP3    H125686   1.818   3.235   7.719 -0.4624  0.4954  0.6675
  497TIP3    H225687   1.787   3.254   7.572  0.4150  0.2426  0.4455
  498TIP3   OH225688   5.776   6.697   8.480  0.1680  0.2423 -0.4936
  498TIP3    H125689   5.697   6.670   8.525 -0.7222  2.0608 -0.8558
  498TIP3    H225690   5.750   6.704   8.388  1.1990 -0.6728 -0.8822
  499TIP3   OH225691   0.520   0.935   8.593 -0.0025  0.0919  0.0615
  499TIP3    H125692   0.463   0.860   8.605 -2.3912  1.9675  1.4890
  499TIP3    H225693   0.559   0.950   8.679 -0.7987  1.3384  0.2453
  500TIP3   OH225694   2.418   4.466   8.605 -0.2443 -0.5209  0.0010
  500TIP3    H125695   2.478   4.393   8.620  1.3194  0.9946  1.6144
  500TIP3    H225696   2.374   4.478   8.689 -1.8878 -0.7394 -0.7805
  501TIP3   OH225697   0.405   1.537   8.017  0.4788 -0.5366 -0.1518
  501TIP3    H125698   0.335   1.537   8.082  0.4564  1.6694 -0.1084
  501TIP3    H225699   0.466   1.469   8.047 -0.0756 -0.3205  1.5597
  502TIP3   OH225700   0.488   5.260   8.239  0.3470 -0.5424 -0.0216
  502TIP3    H125701   0.455   5.328   8.298  1.9686  1.1959 -1.0001
  502TIP3    H225702   0.532   5.197   8.297  1.9548  1.1552  0.7180
  503TIP3   OH225703   3.780   6.804   9.436  0.3467 -0.0618 -0.1888
  503TIP3    H125704   3.698   6.849   9.416  0.3400  0.6953  1.3759
  503TIP3    H225705   3.836   6.820   9.361 -0.7913 -0.2258 -1.0958
  504TIP3   OH225706   4.840   6.986   8.230  0.0605 -0.0793 -0.3133
  504TIP3    H125707   4.889   6.925   8.284  0.2968 -0.7272 -1.2315
  504TIP3    H225708   4.892   7.067   8.232 -0.1646  0.0523  0.7644
  505TIP3   OH225709   4.487   3.853   7.787  0.1487  0.0704  0.1528
  505TIP3    H125710   4.446   3.793   7.849 -0.9709 -0.5057 -1.1207
  505TIP3    H225711   4.415   3.904   7.750  0.6284 -0.4549 -1.5828
  506TIP3   OH225712   7.527   2.708   9.126  0.3108 -0.2603 -0.4377
  506TIP3    H125713   7.530   2.763   9.204  0.2661  1.2728 -1.4684
  506TIP3    H225714   7.460   2.642   9.144  0.7786 -0.3556  1.0585
  507TIP3   OH225715   7.258   7.141   8.950 -0.2885 -0.8109 -0.2264
  507TIP3    H125716   7.225   7.201   8.883  1.0901 -0.0241 -0.2373
  507TIP3    H225717   7.182   7.087   8.973 -1.6947  1.1741  0.0489
  508TIP3   OH225718   6.510   6.797   8.210  0.2017  0.4624 -0.0843
  508TIP3    H125719   6.489   6.803   8.117  0.8320 -2.7064 -0.5463
  508TIP3    H225720   6.428   6.767   8.251  0.9332 -2.0421 -0.3155
  509TIP3   OH225721   6.142   7.491   7.940 -0.1119  0.5907 -0.2783
  509TIP3    H125722   6.085   7.553   7.895 -0.6923  1.6091  1.7304
  509TIP3    H225723   6.198   7.455   7.871 -2.2308  0.5695 -2.0988
  510TIP3   OH225724   0.379   5.164   8.558  0.3527  0.0898 -0.0367
  510TIP3    H125725   0.368   5.236   8.496 -0.5735  1.4451  1.5991
  510TIP3    H225726   0.440   5.198   8.624 -1.2055 -0.0444  1.5398
  511TIP3   OH225727   2.528   0.597   8.056 -0.3043  0.3309  0.2609
  511TIP3    H125728   2.551   0.544   8.133  1.4838 -0.1644 -0.5514
  511TIP3    H225729   2.600   0.659   8.047 -1.8904  2.3473  0.6158
  512TIP3   OH225730   3.784   6.109   7.446  0.0649  0.6246  0.0345
  512TIP3    H125731   3.854   6.174   7.443  0.6194  0.2141  2.2680
  512TIP3    H225732   3.803   6.056   7.524 -2.5072  0.2500  0.5193
  513TIP3   OH225733   2.264   1.615   9.140 -0.0391  0.1570 -0.5250
  513TIP3    H125734   2.315   1.583   9.065  2.0153  0.8781  0.4949
  513TIP3    H225735   2.326   1.669   9.189 -1.6028  0.4345  1.2236
  514TIP3   OH225736   3.979   5.155   7.978 -0.0651 -0.3300 -0.0847
  514TIP3    H125737   4.021   5.093   8.037  0.5261 -0.4046 -0.5685
  514TIP3    H225738   4.038   5.159   7.902 -0.9535 -0.4585 -0.7903
  515TIP3   OH225739   0.947   1.515   9.216 -0.6408 -0.0878 -0.5514
  515TIP3    H125740   1.033   1.552   9.234 -0.7703  0.2243 -0.5586
  515TIP3    H225741   0.901   1.585   9.168 -0.7646 -0.3949 -0.8822
  516TIP3   OH225742   6.167   7.220   9.153 -0.1232 -0.4137  0.3199
  516TIP3    H125743   6.161   7.227   9.248 -0.9559 -0.2367  0.2625
  516TIP3    H225744   6.257   7.193   9.136  0.4049  0.7634  1.0955
  517TIP3   OH225745   3.770   3.789   9.009 -0.5197  0.0334 -0.2106
  517TIP3    H125746   3.816   3.768   8.928  0.0861  1.0496 -0.1471
  517TIP3    H225747   3.756   3.704   9.051 -1.1106 -0.5409 -1.5035
  518TIP3   OH225748   7.013   7.316   9.217  0.5694 -0.1321  0.0026
  518TIP3    H125749   7.070   7.337   9.143 -0.7371 -0.4815 -1.1220
  518TIP3    H225750   6.928   7.352   9.195 -0.0314 -0.8453  1.0168
  519TIP3   OH225751   2.636   0.205   8.945 -0.1318 -0.0617  0.2060
  519TIP3    H125752   2.647   0.262   8.869 -3.1787 -0.4788 -0.7085
  519TIP3    H225753   2.676   0.122   8.919 -0.8104 -0.0819 -0.8215
  520TIP3   OH225754   0.010   4.868   8.788 -0.1978 -0.4241  0.0924
  520TIP3    H125755  -0.085   4.873   8.797 -0.2940  0.3467 -1.1376
  520TIP3    H225756   0.044   4.918   8.862 -0.6095 -3.3135  2.4542
  521TIP3   OH225757   1.808   3.433   8.374  0.6082 -0.0258  0.3238
  521TIP3    H125758   1.742   3.366   8.391  0.1526  0.3008 -0.1602
  521TIP3    H225759   1.808   3.443   8.279  1.1862  0.1510  0.3407
  522TIP3   OH225760   4.605   7.306   8.401  1.1382  0.0952  0.6404
  522TIP3    H125761   4.640   7.394   8.414 -1.2193  1.2138  0.0433
  522TIP3    H225762   4.585   7.302   8.308 -2.9047  0.7304  1.2915
  523TIP3   OH225763   5.635   5.504   8.304 -0.2261 -0.3286 -0.1387
  523TIP3    H125764   5.552   5.533   8.266 -0.0890  0.5929  0.2521
  523TIP3    H225765   5.642   5.553   8.386  1.3016  0.5190 -0.7510
  524TIP3   OH225766   1.880   2.348   9.118 -0.5379 -0.3471  0.4250
  524TIP3    H125767   1.843   2.320   9.035 -1.9125  0.2391  0.8212
  524TIP3    H225768   1.965   2.303   9.123 -1.1502 -1.6660 -0.5397
  525TIP3   OH225769   4.485   6.638   9.404 -0.6846 -0.5462  0.3220
  525TIP3    H125770   4.466   6.730   9.423 -0.0058  0.6897 -3.9136
  525TIP3    H225771   4.405   6.592   9.429 -1.4680  1.3235  1.5302
  526TIP3   OH225772   7.195   6.757   7.757 -0.8197 -0.1252 -0.6408
  526TIP3    H125773   7.187   6.710   7.840 -0.9527 -0.9208 -1.0928
  526TIP3    H225774   7.106   6.757   7.721 -0.9081  0.8621 -0.4487
  527TIP3   OH225775   1.736   5.515   8.263 -0.4331  0.3237  0.0959
  527TIP3    H125776   1.816   5.531   8.314 -0.4733 -0.2108  0.3327
  527TIP3    H225777   1.766   5.466   8.187 -0.3466  1.2851 -0.4980
  528TIP3   OH225778   5.003   6.410   8.097 -0.2387  0.0302  0.2036
  528TIP3    H125779   4.977   6.502   8.095  0.8725  0.3611 -0.7691
  528TIP3    H225780   5.092   6.410   8.062 -0.1104 -1.3862  0.4672
  529TIP3   OH225781   5.127   3.373   7.606 -0.0442 -0.3126 -0.5090
  529TIP3    H125782   5.161   3.357   7.518 -1.1670  1.4772 -1.3202
  529TIP3    H225783   5.197   3.420   7.651  0.3643 -0.8512 -0.5692
  530TIP3   OH225784   7.111   1.105   9.498 -0.2718 -0.4830  0.2836
  530TIP3    H125785   7.122   1.013   9.524  0.3118 -0.3645  0.4597
  530TIP3    H225786   7.041   1.102   9.432 -0.5013 -1.0081  0.5378
  531TIP3   OH225787   5.385   0.811   9.701  0.0381 -0.4819 -0.3015
  531TIP3    H125788   5.296   0.841   9.720 -0.7788 -2.7116 -0.3822
  531TIP3    H225789   5.435   0.834   9.779 -0.9079 -0.3975  0.2929
  532TIP3   OH225790   4.146   0.371   6.738  0.5262 -0.6050 -0.0320
  532TIP3    H125791   4.207   0.379   6.812  2.5860 -0.2976 -1.6851
  532TIP3    H225792   4.146   0.278   6.718  0.9626 -0.5215 -0.4305
  533TIP3   OH225793   6.266   6.974   7.860 -0.6241 -0.5524 -0.4713
  533TIP3    H125794   6.187   6.929   7.832 -1.7253  0.5734  0.6825
  533TIP3    H225795   6.236   7.062   7.884  0.7992 -0.4235  0.9849
  534TIP3   OH225796   1.556   6.729   8.993 -0.2620  0.1226 -0.3249
  534TIP3    H125797   1.526   6.751   9.081 -1.9563 -0.5730 -0.6933
  534TIP3    H225798   1.476   6.721   8.942  0.5503 -1.6162 -1.4121
  535TIP3   OH225799   6.061   0.494   9.172 -0.1315  0.9505 -0.3816
  535TIP3    H125800   5.997   0.426   9.148  0.9861 -0.3083  0.0874
  535TIP3    H225801   6.056   0.558   9.101 -2.5952  1.4132  0.1077
  536TIP3   OH225802   2.504   5.891   8.325  0.4666  0.6684  0.3613
  536TIP3    H125803   2.474   5.981   8.339  2.9456  1.3722  1.5871
  536TIP3    H225804   2.580   5.881   8.382  1.2072 -1.7165 -0.9036
  537TIP3   OH225805   3.937   6.877   9.205 -0.4602 -0.1416 -0.6593
  537TIP3    H125806   3.905   6.962   9.174  1.1851 -0.1989 -2.7937
  537TIP3    H225807   3.991   6.897   9.281 -0.0331  0.7407 -1.1872
  538TIP3   OH225808   2.686   7.374   9.503  0.2207 -0.0540 -0.9169
  538TIP3    H125809   2.715   7.465   9.509  0.4941 -0.2428  2.1441
  538TIP3    H225810   2.767   7.323   9.508 -0.0776 -0.4663 -0.1035
  539TIP3   OH225811   4.177   0.907   7.345 -0.1327 -0.3769  0.2417
  539TIP3    H125812   4.224   0.990   7.346 -1.0839  0.2074 -0.8154
  539TIP3    H225813   4.085   0.931   7.354 -0.4321 -1.3005 -0.2065
  540TIP3   OH225814   3.451   4.446   6.813 -0.5228 -0.1874 -0.2417
  540TIP3    H125815   3.539   4.452   6.852  0.2586  2.2420 -2.0784
  540TIP3    H225816   3.408   4.527   6.841 -1.8608 -0.9021 -0.1585
  541TIP3   OH225817   1.570   2.885   7.952 -0.5451  0.3115  0.2335
  541TIP3    H125818   1.613   2.813   7.907 -2.3729 -1.9413  1.8306
  541TIP3    H225819   1.540   2.943   7.882 -0.6942 -1.4872 -1.2682
  542TIP3   OH225820   0.730   3.153   6.816  0.2149 -0.1570 -0.2366
  542TIP3    H125821   0.689   3.069   6.836  1.0615 -0.3009  1.0142
  542TIP3    H225822   0.803   3.160   6.878 -1.1333  2.5060  1.2268
  543TIP3   OH225823   1.934   4.065   7.143 -0.2022  0.6224  0.5675
  543TIP3    H125824   1.893   4.054   7.057  0.1917  1.5388  0.2514
  543TIP3    H225825   1.969   4.154   7.142  1.3218  0.0533  1.0326
  544TIP3   OH225826   5.130   5.071   7.391  0.2189 -0.2021 -0.1404
  544TIP3    H125827   5.112   5.002   7.326 -0.1422 -0.3551  0.1172
  544TIP3    H225828   5.183   5.028   7.458  0.9307  0.0586 -0.5262
  545TIP3   OH225829   0.991   5.324   7.615 -0.5404 -0.6439 -0.3924
  545TIP3    H125830   0.942   5.242   7.610 -1.0135 -0.3490 -0.7836
  545TIP3    H225831   0.958   5.376   7.541 -0.0942 -0.1878 -0.2766
  546TIP3   OH225832   2.655   6.853   9.123  0.1176  0.1242  0.1347
  546TIP3    H125833   2.639   6.872   9.216 -0.0184 -0.4117  0.2240
  546TIP3    H225834   2.579   6.890   9.078 -0.5145 -0.8323  0.3795
  547TIP3   OH225835   4.635   1.043   8.627  0.8026 -0.1834  0.0354
  547TIP3    H125836   4.720   1.054   8.671  0.6578 -0.9767  0.5484
  547TIP3    H225837   4.637   1.104   8.554  1.1456  1.0106  1.0169
  548TIP3   OH225838   0.666   7.039   7.073  0.0996  0.4614  0.4547
  548TIP3    H125839   0.642   6.952   7.042 -0.9893  0.1683  2.0170
  548TIP3    H225840   0.760   7.047   7.052  0.3253 -1.2647  0.6808
  549TIP3   OH225841   2.150   4.141   6.836  0.0237 -0.1399 -0.6537
  549TIP3    H125842   2.244   4.156   6.849 -0.0128  1.5788 -2.0101
  549TIP3    H225843   2.107   4.214   6.879 -0.9128 -2.0996  1.9965
  550TIP3   OH225844   2.635   1.722   7.484  0.1970 -0.1043 -0.0852
  550TIP3    H125845   2.720   1.694   7.519  0.2944  0.5519  0.2066
  550TIP3    H225846   2.611   1.651   7.424  0.5940 -0.6598  0.3873
  551TIP3   OH225847   0.176   6.945   7.973  1.2890  0.7423  0.2130
  551TIP3    H125848   0.200   6.905   7.889  1.2375  2.9991 -0.9484
  551TIP3    H225849   0.233   7.021   7.980 -0.4757  2.0553  0.9640
  552TIP3   OH225850   5.050   7.340   8.517 -0.0089  0.1833  0.0034
  552TIP3    H125851   5.013   7.276   8.578  0.4723  1.1832  1.4085
  552TIP3    H225852   5.047   7.423   8.565 -0.3512  1.1705 -1.6591
  553TIP3   OH225853   6.719   2.341   8.318 -0.0880 -0.1668  0.0295
  553TIP3    H125854   6.654   2.273   8.334  0.7377 -1.3704 -1.4653
  553TIP3    H225855   6.722   2.349   8.222  0.1574  1.6838  0.1494
  554TIP3   OH225856   5.226   1.361   9.044 -0.4120  0.2518  0.1326
  554TIP3    H125857   5.228   1.266   9.047  0.2991  0.2753  1.4308
  554TIP3    H225858   5.317   1.387   9.034 -0.7529  0.8059 -2.1199
  555TIP3   OH225859   3.913   4.074   9.515 -0.1899  0.2270 -0.2484
  555TIP3    H125860   3.996   4.031   9.536 -0.0356  0.2723 -0.7488
  555TIP3    H225861   3.923   4.163   9.548 -1.3902 -0.6984  2.9351
  556TIP3   OH225862   1.673   7.353   9.389  0.3851  0.3828 -0.0300
  556TIP3    H125863   1.697   7.264   9.364 -0.0139  0.2870 -0.0856
  556TIP3    H225864   1.609   7.380   9.323 -0.4264  0.2488  0.6830
  557TIP3   OH225865   1.164   4.543   9.392  0.0477 -0.0633 -0.7281
  557TIP3    H125866   1.161   4.637   9.409 -0.5390 -0.1669 -0.1892
  557TIP3    H225867   1.074   4.520   9.366 -0.2977 -0.7673  0.9253
  558TIP3   OH225868   2.197   0.950   7.925 -0.0581 -0.1513  0.0142
  558TIP3    H125869   2.129   0.999   7.880 -0.0151 -0.2759 -0.1880
  558TIP3    H225870   2.217   1.001   8.003 -0.5892 -0.2607  0.2248
  559TIP3   OH225871   6.602   2.183   9.620  0.0686  0.0105  0.2122
  559TIP3    H125872   6.579   2.098   9.659 -0.6021  0.5726  1.0886
  559TIP3    H225873   6.517   2.224   9.601  0.3229 -0.7318 -3.0462
  560TIP3   OH225874   0.397   1.589   9.717 -0.0103 -0.2367 -0.2073
  560TIP3    H125875   0.355   1.544   9.643 -0.8159 -0.8262  0.5989
  560TIP3    H225876   0.422   1.519   9.777  1.5422  0.1592 -0.3425
  561TIP3   OH225877   6.242   0.692   7.890  0.3767 -0.1866 -0.5970
  561TIP3    H125878   6.263   0.615   7.837 -0.1417 -0.3799 -0.5280
  561TIP3    H225879   6.146   0.690   7.898  0.4466 -0.1308  0.3058
  562TIP3   OH225880   7.048   2.350   9.537  0.3956  0.2965 -0.4733
  562TIP3    H125881   7.041   2.309   9.623  1.4218  0.8170 -0.1161
  562TIP3    H225882   6.981   2.307   9.483 -1.0373  0.7567  0.8877
  563TIP3   OH225883   4.380   6.837   8.435 -0.8216  0.3910  0.0742
  563TIP3    H125884   4.424   6.921   8.419  0.5116 -0.3668 -0.4510
  563TIP3    H225885   4.290   6.861   8.457 -1.0454  1.8662 -2.1239
  564TIP3   OH225886   4.965   7.563   7.578 -0.0541 -0.1304 -0.3687
  564TIP3    H125887   4.905   7.588   7.508  2.2751 -0.6306 -2.7008
  564TIP3    H225888   4.950   7.627   7.647  0.0045  2.6917 -2.7821
  565TIP3   OH225889   1.994   3.416   6.920  0.1042  0.0892  0.1039
  565TIP3    H125890   1.960   3.385   6.836 -1.3340  0.7635  0.4044
  565TIP3    H225891   2.089   3.410   6.911 -0.0615 -1.9830 -0.7482
  566TIP3   OH225892   3.142   3.342   8.128  0.0804 -0.3212 -0.1940
  566TIP3    H125893   3.133   3.272   8.193  1.3337 -0.6621 -0.3525
  566TIP3    H225894   3.203   3.307   8.063  1.8125  1.3609  0.4080
  567TIP3   OH225895   2.726   5.522   8.296 -0.0410  0.1363  0.8170
  567TIP3    H125896   2.743   5.564   8.211 -0.4718 -1.0947  0.1009
  567TIP3    H225897   2.777   5.573   8.358 -0.0623  1.3419 -0.1086
  568TIP3   OH225898   3.762   7.580   6.626 -0.3308 -0.5043 -0.5786
  568TIP3    H125899   3.846   7.573   6.580  0.7473 -0.4172  1.2916
  568TIP3    H225900   3.727   7.491   6.626  0.9688 -1.0542  0.7286
  569TIP3   OH225901   1.667   4.919   7.657 -0.2837  0.5937  0.4786
  569TIP3    H125902   1.676   4.875   7.741 -0.3438  0.0829  0.2221
  569TIP3    H225903   1.757   4.942   7.632 -0.3061  1.1508  0.8876
  570TIP3   OH225904   5.838   1.859   9.459 -0.3629  0.2317  0.1479
  570TIP3    H125905   5.771   1.903   9.407  0.4056  1.0185 -0.1846
  570TIP3    H225906   5.895   1.817   9.395  0.4833  1.0502  0.3415
  571TIP3   OH225907   2.016   0.098   7.069  0.0912 -0.1707 -0.5254
  571TIP3    H125908   2.075   0.166   7.101  0.4432 -0.9982  0.6377
  571TIP3    H225909   2.070   0.019   7.067 -0.5783 -0.6294 -0.9082
  572TIP3   OH225910   6.326   2.725   9.598  0.0290 -0.8627  0.3998
  572TIP3    H125911   6.245   2.674   9.596 -0.6808  0.2382 -0.2991
  572TIP3    H225912   6.340   2.745   9.691 -1.1902 -0.0309  0.4254
  573TIP3   OH225913   2.650   3.203   9.461  0.1044 -0.1070  0.5062
  573TIP3    H125914   2.650   3.113   9.494 -1.2871 -1.1617 -2.0447
  573TIP3    H225915   2.618   3.256   9.534  1.4255 -1.5554  2.2260
  574TIP3   OH225916   6.069   2.403   7.714 -0.0589 -0.5085 -0.6810
  574TIP3    H125917   6.021   2.483   7.692 -0.7328 -0.6135  0.3295
  574TIP3    H225918   6.159   2.432   7.729 -0.4360  0.1651  0.3226
  575TIP3   OH225919   3.637   1.119   8.720  0.1449  0.1442  0.4202
  575TIP3    H125920   3.542   1.104   8.721  0.2045 -0.3326 -0.6178
  575TIP3    H225921   3.649   1.194   8.661  0.6255 -1.5587 -1.7727
  576TIP3   OH225922   6.341   7.535   8.455  0.2858  0.1564 -0.2566
  576TIP3    H125923   6.370   7.521   8.545 -1.3257  2.0144  0.6476
  576TIP3    H225924   6.354   7.628   8.440 -0.1025 -0.0001 -1.7039
  577TIP3   OH225925   5.069   3.915   8.080  0.7771 -0.5347  0.4350
  577TIP3    H125926   5.010   3.841   8.072  0.8492 -1.0157  3.2530
  577TIP3    H225927   5.012   3.989   8.099  0.7260  0.1776 -2.1277
  578TIP3   OH225928   6.651   3.405   8.757 -0.0730  0.2854  0.7511
  578TIP3    H125929   6.568   3.425   8.801  0.5539  0.7353  1.7511
  578TIP3    H225930   6.697   3.489   8.754  0.2559  0.0847 -0.0172
  579TIP3   OH225931   0.321   5.568   9.347 -0.1721  0.1470 -0.0501
  579TIP3    H125932   0.366   5.632   9.402 -1.3047  0.1250  0.9502
  579TIP3    H225933   0.262   5.620   9.292  1.3205  0.2139 -1.6655
  580TIP3   OH225934   0.017   4.991   8.160 -0.0360  0.5160 -0.0338
  580TIP3    H125935   0.063   5.073   8.176 -2.0389  1.7862 -0.3189
  580TIP3    H225936   0.038   4.968   8.069 -2.1234  2.6754 -1.1911
  581TIP3   OH225937   1.425   0.321   8.891  0.2988 -0.1926 -0.2452
  581TIP3    H125938   1.517   0.344   8.898  0.3217 -0.3507  0.0043
  581TIP3    H225939   1.393   0.369   8.815  0.0868  1.5205  0.8626
  582TIP3   OH225940   4.511   5.571   8.014 -0.0561 -0.7095 -0.2749
  582TIP3    H125941   4.534   5.479   8.020 -0.9111 -0.9282 -0.2676
  582TIP3    H225942   4.417   5.574   8.034 -0.2012  0.0684 -1.0234
  583TIP3   OH225943   6.809   4.294   8.724  0.1880 -0.0629  0.2788
  583TIP3    H125944   6.862   4.242   8.785  1.1003  0.6355  0.1105
  583TIP3    H225945   6.783   4.371   8.775 -0.8301 -0.4734  0.4084
  584TIP3   OH225946   0.261   0.135   8.176 -0.4053  0.4109 -0.1069
  584TIP3    H125947   0.183   0.082   8.196 -0.7172  1.6923  2.4283
  584TIP3    H225948   0.321   0.116   8.248  0.8397  0.9818 -0.9673
  585TIP3   OH225949   4.793   0.640   8.712 -0.0797  0.0630  0.3788
  585TIP3    H125950   4.828   0.730   8.714 -0.4386  0.1973  1.1334
  585TIP3    H225951   4.855   0.592   8.657 -0.7805  1.1317 -1.4418
  586TIP3   OH225952   1.701   6.015   7.267  0.0442  0.5611  0.2143
  586TIP3    H125953   1.611   6.037   7.290 -0.6574 -0.9140 -0.9234
  586TIP3    H225954   1.731   5.957   7.337 -0.0575  0.6675  0.3463
  587TIP3   OH225955   0.851   6.352   8.895  0.1474  0.0064  0.2420
  587TIP3    H125956   0.832   6.345   8.802  0.0293 -0.1510  0.2770
  587TIP3    H225957   0.944   6.331   8.903  0.1830  0.1279  0.1478
  588TIP3   OH225958   1.167   5.963   9.265  0.1357 -0.3480  0.6937
  588TIP3    H125959   1.243   6.018   9.247  0.6702 -1.6808 -1.3982
  588TIP3    H225960   1.202   5.886   9.310 -0.2676 -0.1358  1.3972
  589TIP3   OH225961   5.141   5.857   9.271  0.5510  0.0771  0.5381
  589TIP3    H125962   5.072   5.799   9.239 -0.1171  0.3502  1.4256
  589TIP3    H225963   5.111   5.945   9.248  0.4593  0.2174  1.1782
  590TIP3   OH225964   7.026   4.718   6.831 -0.1980  0.2006 -0.2452
  590TIP3    H125965   7.109   4.739   6.787 -0.3386 -0.9674 -1.1018
  590TIP3    H225966   6.959   4.728   6.762 -0.6573  0.2143  0.1986
  591TIP3   OH225967   5.990   3.489   8.345  0.4280 -0.4954 -0.2468
  591TIP3    H125968   6.030   3.472   8.430  1.3890 -2.6751 -1.0494
  591TIP3    H225969   5.984   3.584   8.340  1.6272 -0.2593  1.6776
  592TIP3   OH225970   3.991   0.117   7.805 -0.3478 -0.3679 -0.2201
  592TIP3    H125971   3.954   0.034   7.775 -1.4510 -0.2416  0.7108
  592TIP3    H225972   3.944   0.184   7.756  0.0876 -0.2720 -0.5067
  593TIP3   OH225973   1.319   6.753   6.656  0.1443 -0.2386  0.0374
  593TIP3    H125974   1.239   6.806   6.651 -0.1219 -0.5209  1.1361
  593TIP3    H225975   1.389   6.815   6.638 -0.2118  0.3676  0.6942
  594TIP3   OH225976   2.290   0.916   8.310  0.2854 -0.0794  0.0857
  594TIP3    H125977   2.315   0.977   8.241 -0.7647  2.3716  1.7332
  594TIP3    H225978   2.344   0.941   8.385 -0.9096 -0.4718  1.1150
  595TIP3   OH225979   0.231   2.753   8.106 -0.2225 -0.1169  0.2499
  595TIP3    H125980   0.207   2.708   8.187 -0.0481 -2.0045 -0.7035
  595TIP3    H225981   0.226   2.846   8.128  0.1779 -0.5880  2.5191
  596TIP3   OH225982   3.667   1.849   7.306 -0.0473 -0.1359 -0.3117
  596TIP3    H125983   3.703   1.890   7.228  2.8471 -0.7318  0.5974
  596TIP3    H225984   3.671   1.755   7.289  2.5233 -0.3995  1.1575
  597TIP3   OH225985   6.670   1.003   8.073 -0.6528 -0.2723  0.1918
  597TIP3    H125986   6.637   1.009   7.984  1.0174  3.2619 -0.3778
  597TIP3    H225987   6.765   0.990   8.062 -0.0828  2.3536  1.2608
  598TIP3   OH225988   2.559   5.927   8.884  0.1066 -1.2427 -0.3500
  598TIP3    H125989   2.542   6.011   8.927  1.2458 -0.4143 -1.4484
  598TIP3    H225990   2.536   5.862   8.950  1.0847 -0.0407  1.2509
  599TIP3   OH225991   3.785   2.293   7.267  0.0895 -0.1129 -0.1101
  599TIP3    H125992   3.754   2.290   7.177  0.9985  0.2163 -0.4443
  599TIP3    H225993   3.723   2.351   7.312 -0.3281 -0.2282 -0.5285
  600TIP3   OH225994   1.917   6.042   7.477 -0.1980  0.6135  0.2215
  600TIP3    H125995   1.930   5.949   7.456  2.4788  0.8220  0.5921
  600TIP3    H225996   1.825   6.049   7.499 -1.1984 -1.3619 -2.6989
  601TIP3   OH225997   2.162   3.740   7.796  0.1951  0.1423 -0.8352
  601TIP3    H125998   2.120   3.707   7.876  0.4393  2.1129  0.1889
  601TIP3    H225999   2.220   3.809   7.828  0.9734  0.3674 -2.6623
  602TIP3   OH226000   1.005   0.261   8.223 -0.2705  0.6158 -0.0620
  602TIP3    H126001   0.981   0.216   8.304  0.3517  1.6232  0.7001
  602TIP3    H226002   1.072   0.204   8.183  0.9357  1.1039  1.1811
  603TIP3   OH226003   7.298   2.810   8.224  0.9010  0.3375  0.6152
  603TIP3    H126004   7.265   2.781   8.139 -2.0705  1.9997  1.0566
  603TIP3    H226005   7.374   2.753   8.242 -0.8080 -2.8085 -1.2706
  604TIP3   OH226006   7.069   0.948   6.812 -0.0805  0.6583  0.2870
  604TIP3    H126007   7.161   0.949   6.840  0.0220  1.7901 -0.0217
  604TIP3    H226008   7.072   0.919   6.721 -0.1541 -0.4140  0.6125
  605TIP3   OH226009   4.661   7.518   9.362  0.1544 -0.2665  0.1335
  605TIP3    H126010   4.581   7.568   9.379  0.8584  0.4920  1.3357
  605TIP3    H226011   4.686   7.542   9.273 -1.8446 -1.8187 -0.9326
  606TIP3   OH226012   4.178   6.442   7.136  0.3256  0.3876  0.4323
  606TIP3    H126013   4.257   6.490   7.111 -1.5764  2.5192 -2.1475
  606TIP3    H226014   4.163   6.381   7.065  0.1083 -0.6615  1.3517
  607TIP3   OH226015   2.847   6.372   7.794 -0.0057  0.1473 -0.1411
  607TIP3    H126016   2.819   6.305   7.857 -0.0111  1.1600  0.9685
  607TIP3    H226017   2.772   6.432   7.788  1.0268  1.6836  1.1932
  608TIP3   OH226018   6.774   7.064   7.683  0.4033  0.1378  0.0649
  608TIP3    H126019   6.710   6.995   7.705  0.8300 -0.3196 -0.1052
  608TIP3    H226020   6.722   7.144   7.681  0.1967  0.1207  2.0444
  609TIP3   OH226021   0.251   2.540   8.303  0.2452 -0.1147 -0.0861
  609TIP3    H126022   0.324   2.480   8.321  0.0130 -0.5164 -0.4459
  609TIP3    H226023   0.174   2.495   8.337  0.0940  0.0664 -0.1839
  610TIP3   OH226024   3.456   7.606   7.163  0.2843  0.3052 -0.0862
  610TIP3    H126025   3.501   7.652   7.092 -0.3654 -0.7810 -1.2559
  610TIP3    H226026   3.386   7.665   7.189  2.0040  1.8222  1.4474
  611TIP3   OH226027   0.383   2.939   7.153 -0.0216  0.0309  0.0647
  611TIP3    H126028   0.343   2.884   7.219  1.1480 -0.0553  0.7230
  611TIP3    H226029   0.473   2.908   7.147  0.0891  0.5159 -1.0503
  612TIP3   OH226030   5.384   2.791   7.878 -0.3861 -0.1751 -0.4095
  612TIP3    H126031   5.405   2.798   7.971  1.0352  0.9802 -0.7669
  612TIP3    H226032   5.390   2.882   7.846 -0.1243 -0.6417 -1.7478
  613TIP3   OH226033   6.335   7.174   7.501 -0.4653 -0.2652  0.1592
  613TIP3    H126034   6.365   7.225   7.426  1.2261  0.7720  1.4535
  613TIP3    H226035   6.243   7.156   7.483  0.0211 -0.5473 -2.3918
  614TIP3   OH226036   6.449   2.539   9.418  0.2935 -0.5229  0.2039
  614TIP3    H126037   6.413   2.606   9.476 -1.9977 -1.5224  0.0204
  614TIP3    H226038   6.431   2.456   9.461  0.4339 -1.1757 -0.9470
  615TIP3   OH226039   2.595   2.205   7.608  0.3148 -0.2239 -0.4757
  615TIP3    H126040   2.555   2.134   7.658 -1.6641  1.6488  0.7869
  615TIP3    H226041   2.665   2.238   7.664  0.8274 -0.7541 -0.7934
  616TIP3   OH226042   5.243   6.116   8.407  0.2425  0.9679  0.2401
  616TIP3    H126043   5.193   6.047   8.363  1.2731  0.5294 -0.2821
  616TIP3    H226044   5.310   6.069   8.456 -1.2348  1.4003  2.8673
  617TIP3   OH226045   4.951   6.075   7.582 -0.1364 -0.1224  0.3465
  617TIP3    H126046   5.024   6.016   7.606 -0.2146 -1.4298 -2.3264
  617TIP3    H226047   4.872   6.026   7.606 -0.1920 -0.9785 -1.4730
  618TIP3   OH226048   7.487   5.592   6.537  0.0700 -0.0136 -0.2624
  618TIP3    H126049   7.528   5.665   6.491 -0.4559  0.1583 -0.4624
  618TIP3    H226050   7.541   5.516   6.512  1.0918  0.4157  0.5810
  619TIP3   OH226051   4.888   0.378   6.891  0.6277  0.4284  0.0516
  619TIP3    H126052   4.916   0.300   6.844  1.4939  0.8999 -0.2326
  619TIP3    H226053   4.837   0.345   6.964  0.4538 -0.3740 -0.4249
  620TIP3   OH226054   3.921   0.855   9.048 -0.0854  0.3854 -0.1960
  620TIP3    H126055   3.902   0.908   8.970 -2.2231 -0.5682 -0.3937
  620TIP3    H226056   3.915   0.917   9.121  0.1705  0.9450 -0.6379
  621TIP3   OH226057   6.628   5.302   7.422  0.1153 -0.3494 -0.7144
  621TIP3    H126058   6.689   5.312   7.349  1.1297  0.2584  0.2069
  621TIP3    H226059   6.681   5.314   7.500 -1.1412 -0.0781  0.1170
  622TIP3   OH226060   5.898   6.033   8.316  0.4107  0.5655 -0.2565
  622TIP3    H126061   5.953   6.039   8.395 -0.4011  1.4368  0.2651
  622TIP3    H226062   5.881   5.940   8.306  1.4163  0.3439 -0.0320
  623TIP3   OH226063   6.056   7.045   8.101 -0.3312  0.0147 -0.4836
  623TIP3    H126064   6.038   6.986   8.028 -0.1893  1.0742 -1.4152
  623TIP3    H226065   6.131   7.097   8.072  0.1487  0.0118  0.6991
  624TIP3   OH226066   4.157   7.046   7.674  0.1111  0.0317  0.3477
  624TIP3    H126067   4.226   7.088   7.726  1.2017  0.9784 -1.7530
  624TIP3    H226068   4.084   7.108   7.678  0.0594 -0.0691  1.0305
  625TIP3   OH226069   4.004   7.528   6.869  0.5907  0.0208  0.1305
  625TIP3    H126070   3.926   7.579   6.848  0.7593  0.8230  1.3991
  625TIP3    H226071   3.971   7.439   6.884  0.1548 -0.0235 -0.9454
  626TIP3   OH226072   4.472   1.620   9.381  0.1955 -0.0621 -0.8123
  626TIP3    H126073   4.453   1.651   9.292 -0.6713  0.3419 -0.4980
  626TIP3    H226074   4.562   1.650   9.397  0.4568 -0.3581 -1.6352
  627TIP3   OH226075   5.344   2.041   9.263 -0.2274  0.3537  0.1867
  627TIP3    H126076   5.377   2.093   9.191  0.8014  1.1156  1.1793
  627TIP3    H226077   5.311   1.961   9.222 -0.3556  1.0916 -1.1838
  628TIP3   OH226078   0.305   6.644   9.416 -0.1111  0.3034 -0.4017
  628TIP3    H126079   0.269   6.594   9.343  0.9751 -0.6833 -0.2943
  628TIP3    H226080   0.262   6.730   9.410 -1.1232 -0.2379 -1.3067
  629TIP3   OH226081   1.213   4.168   7.930  0.0529  0.2346  0.3289
  629TIP3    H126082   1.176   4.254   7.946 -1.3885 -0.3006 -0.0071
  629TIP3    H226083   1.204   4.122   8.013  3.1102  1.1528  1.2965
  630TIP3   OH226084   4.768   2.356   7.512 -0.5471  0.1083 -0.4134
  630TIP3    H126085   4.701   2.364   7.443 -1.4059  0.4971  0.4366
  630TIP3    H226086   4.751   2.271   7.552  0.5655 -0.5431 -1.2858
  631TIP3   OH226087   1.271   3.831   8.753  0.0554  0.6057 -0.3477
  631TIP3    H126088   1.272   3.783   8.836 -1.2126  2.1612  0.6433
  631TIP3    H226089   1.361   3.861   8.741  0.7381 -1.4381 -0.6943
  632TIP3   OH226090   3.222   4.375   6.606 -0.2953 -0.0730 -0.0383
  632TIP3    H126091   3.224   4.427   6.686  1.1456  1.1826 -0.8573
  632TIP3    H226092   3.142   4.404   6.560  0.1420  0.9598 -0.1709
  633TIP3   OH226093   4.511   3.060   6.907  0.1843  0.3582 -0.1162
  633TIP3    H126094   4.596   3.017   6.904 -0.3804 -0.7760 -0.2243
  633TIP3    H226095   4.465   3.028   6.830 -1.4774 -1.4864  1.5565
  634TIP3   OH226096   3.944   7.588   7.262  0.6816  0.6931 -0.3760
  634TIP3    H126097   3.875   7.655   7.261 -0.5378 -0.5122 -1.7780
  634TIP3    H226098   3.911   7.520   7.322  1.7891  1.1765  0.8300
  635TIP3   OH226099   3.158   0.156   7.876 -0.4260 -0.4945 -0.0535
  635TIP3    H126100   3.246   0.189   7.856 -0.9701  0.8981 -0.2993
  635TIP3    H226101   3.155   0.150   7.971  0.1185 -1.0986 -0.0716
  636TIP3   OH226102   1.201   3.273   9.009 -0.7016 -0.1146  0.3796
  636TIP3    H126103   1.202   3.202   9.074 -0.2261  0.9241  1.5642
  636TIP3    H226104   1.135   3.247   8.945  0.1678 -2.1055  0.2138
  637TIP3   OH226105   0.901   4.001   6.672 -0.1650 -0.0258  0.0048
  637TIP3    H126106   0.993   3.987   6.696 -0.0580 -0.7622 -0.7972
  637TIP3    H226107   0.856   3.925   6.709 -0.5648  0.6245  0.9053
  638TIP3   OH226108   5.687   0.647   7.945 -0.1516  0.0193  0.7933
  638TIP3    H126109   5.692   0.740   7.968 -1.5965  0.5386 -0.8342
  638TIP3    H226110   5.596   0.623   7.962 -0.3017 -0.5539 -0.7224
  639TIP3   OH226111   3.497   6.402   8.547 -0.6128  0.1583  0.1407
  639TIP3    H126112   3.454   6.318   8.535 -0.7553  0.2932 -0.3091
  639TIP3    H226113   3.498   6.415   8.642  0.2556 -0.7832  0.2807
  640TIP3   OH226114   0.590   6.441   7.494  0.3042  0.0942  0.0885
  640TIP3    H126115   0.558   6.361   7.536 -1.5881  0.3193 -0.8216
  640TIP3    H226116   0.675   6.457   7.535 -0.0994 -1.3582  1.6085
  641TIP3   OH226117   1.046   0.893   9.316 -0.3555 -0.4533  0.3373
  641TIP3    H126118   1.087   0.969   9.356  1.8346 -1.5078  0.2081
  641TIP3    H226119   1.067   0.900   9.223  0.1521 -1.3691  0.3701
  642TIP3   OH226120   2.110   1.096   8.931 -0.3257  0.2725 -0.1810
  642TIP3    H126121   2.190   1.133   8.895  0.7140 -0.8968  0.8406
  642TIP3    H226122   2.087   1.026   8.870 -0.1761  0.1637 -0.1144
  643TIP3   OH226123   7.200   1.513   8.194  0.0373 -0.1016  0.0270
  643TIP3    H126124   7.267   1.552   8.251 -0.0322  1.5132 -0.9501
  643TIP3    H226125   7.240   1.431   8.165  0.6620 -0.2554  1.2375
  644TIP3   OH226126   2.508   6.170   9.005  0.1370  0.2299 -0.1750
  644TIP3    H126127   2.462   6.154   9.088  1.5859 -0.0489  0.6181
  644TIP3    H226128   2.457   6.239   8.962 -1.3973 -0.5548  0.3154
  645TIP3   OH226129   6.247   0.304   8.995  0.3860  0.2523 -0.1847
  645TIP3    H126130   6.302   0.323   9.071  0.8319 -0.8537 -0.2040
  645TIP3    H226131   6.180   0.373   8.995  1.9040  1.8108 -0.3036
  646TIP3   OH226132   4.840   1.159   8.778  0.6253 -0.3889  0.1794
  646TIP3    H126133   4.859   1.174   8.870  0.2644  0.3982  0.1351
  646TIP3    H226134   4.926   1.152   8.736  0.7890 -1.0702  0.6172
  647TIP3   OH226135   4.472   0.364   9.254 -0.3562  0.7074 -0.2061
  647TIP3    H126136   4.486   0.438   9.195  0.3609  0.2367 -0.6439
  647TIP3    H226137   4.493   0.287   9.201 -0.9318  0.1937  0.2924
  648TIP3   OH226138   6.695   2.804   9.094  0.3378  0.0108  0.1470
  648TIP3    H126139   6.732   2.892   9.090 -0.1923  0.3969  2.4937
  648TIP3    H226140   6.643   2.803   9.174  0.5556 -2.5298  0.3321
  649TIP3   OH226141   7.352   6.430   7.151 -0.0671  0.0341 -0.0163
  649TIP3    H126142   7.323   6.338   7.151 -0.2570  0.0922 -0.3691
  649TIP3    H226143   7.429   6.430   7.207 -0.3793 -0.2437  0.4262
  650TIP3   OH226144   3.942   2.113   8.037 -0.2698 -0.1464  0.3122
  650TIP3    H126145   3.908   2.095   8.125 -0.3922 -0.3260  0.2284
  650TIP3    H226146   3.961   2.027   8.001 -0.2088 -0.0720  0.1657
  651TIP3   OH226147   4.607   4.138   8.971 -0.0455 -0.2515  0.3596
  651TIP3    H126148   4.530   4.127   9.027 -0.1658 -0.0036  0.2461
  651TIP3    H226149   4.605   4.064   8.911 -0.8475  0.3644 -0.4016
  652TIP3   OH226150   4.667   4.611   8.928  0.1762  0.2320  0.4025
  652TIP3    H126151   4.736   4.678   8.922 -0.5721  1.1177  1.4089
  652TIP3    H226152   4.633   4.620   9.016  0.2653 -1.7256  0.6745
  653TIP3   OH226153   0.287   3.524   8.334 -0.2459 -0.4517 -0.2391
  653TIP3    H126154   0.368   3.489   8.298  0.1969  1.2039 -0.9203
  653TIP3    H226155   0.222   3.509   8.266 -0.3158 -0.9154 -0.0775
  654TIP3   OH226156   3.610   1.015   7.844  0.4126 -0.2716 -0.3274
  654TIP3    H126157   3.596   1.029   7.937  0.4474  0.4145 -0.4248
  654TIP3    H226158   3.689   0.960   7.840 -0.6309 -1.8947  0.1069
  655TIP3   OH226159   6.571   0.174   9.051  0.2879  0.1900  0.3431
  655TIP3    H126160   6.664   0.180   9.030  0.9856  1.7601  3.2835
  655TIP3    H226161   6.553   0.252   9.104 -1.6647 -1.9707  3.1883
  656TIP3   OH226162   2.446   5.382   7.086 -0.2971  0.6296  0.2494
  656TIP3    H126163   2.449   5.477   7.070 -1.8715  0.8954  1.3070
  656TIP3    H226164   2.361   5.354   7.054  1.3207 -1.1086 -2.9936
  657TIP3   OH226165   7.411   6.985   8.409 -0.5379  0.3051 -0.1402
  657TIP3    H126166   7.432   6.968   8.501 -0.9808 -1.4051 -0.3225
  657TIP3    H226167   7.391   7.079   8.406 -0.8749  0.3211  1.5764
  658TIP3   OH226168   3.293   4.472   9.131  0.4654 -0.1672 -0.1578
  658TIP3    H126169   3.326   4.529   9.202  0.7888 -2.6626  1.8659
  658TIP3    H226170   3.373   4.442   9.088  0.2926  0.8375 -1.2255
  659TIP3   OH226171   1.479   5.229   8.959  0.6290  0.0508 -0.1971
  659TIP3    H126172   1.488   5.323   8.943  2.1669  0.2098  1.3612
  659TIP3    H226173   1.429   5.223   9.040  1.9375 -0.3978  0.6020
  660TIP3   OH226174   2.580   1.706   7.869 -0.0086  0.4537 -0.0438
  660TIP3    H126175   2.601   1.707   7.963 -1.5642 -2.9384  0.4964
  660TIP3    H226176   2.659   1.673   7.827 -0.3777 -1.2630  0.5480
  661TIP3   OH226177   5.844   2.671   9.083  0.5193  0.2530  0.4841
  661TIP3    H126178   5.860   2.757   9.120 -1.4683  1.8109 -1.9455
  661TIP3    H226179   5.908   2.662   9.012 -0.9227  1.0027 -1.0010
  662TIP3   OH226180   5.903   6.284   8.224  0.1296 -0.1949 -0.2291
  662TIP3    H126181   5.877   6.276   8.132  0.8404  0.8945 -0.5492
  662TIP3    H226182   5.922   6.194   8.252 -2.8722 -0.9451 -0.2608
  663TIP3   OH226183   2.374   2.179   8.859  0.2266  0.2040 -0.6214
  663TIP3    H126184   2.326   2.151   8.937 -0.5087  0.4977 -0.9517
  663TIP3    H226185   2.344   2.120   8.790  0.5063  0.2519 -0.7835
  664TIP3   OH226186   1.949   1.568   8.022 -0.0948  0.0291 -0.7035
  664TIP3    H126187   1.887   1.638   8.043  0.3662 -0.3309  2.2811
  664TIP3    H226188   1.896   1.489   8.020  0.1563 -0.3516  2.3347
  665TIP3   OH226189   0.682   2.491   9.247 -0.1059  0.2287  0.3136
  665TIP3    H126190   0.676   2.587   9.242 -0.8588  0.1305 -1.1961
  665TIP3    H226191   0.661   2.471   9.338 -0.8763  1.4472  0.4302
  666TIP3   OH226192   6.269   5.174   9.271  0.0209 -0.0840 -0.1181
  666TIP3    H126193   6.189   5.198   9.317 -0.2307  0.0433 -0.6176
  666TIP3    H226194   6.317   5.256   9.260 -0.4808  0.0844 -1.1418
  667TIP3   OH226195   2.176   3.006   9.145  0.5866  0.0762  0.4868
  667TIP3    H126196   2.189   2.927   9.198  1.1443  0.4750  0.9550
  667TIP3    H226197   2.098   3.047   9.182 -0.4754 -0.9082 -0.5809
  668TIP3   OH226198   3.460   1.816   9.039 -0.0934  0.5175 -0.3524
  668TIP3    H126199   3.549   1.852   9.044 -0.1148  0.5801 -0.4151
  668TIP3    H226200   3.436   1.823   8.947 -0.3047  0.8521 -0.2773
  669TIP3   OH226201   4.942   6.732   7.407 -0.0363  0.0205 -0.5438
  669TIP3    H126202   5.037   6.728   7.419 -0.0796 -1.0160 -0.4198
  669TIP3    H226203   4.924   6.824   7.388  1.0612  0.1390 -1.1165
  670TIP3   OH226204   3.308   7.170   7.811 -0.1823 -0.0829  0.4091
  670TIP3    H126205   3.276   7.084   7.782  1.8891 -0.8169  0.1082
  670TIP3    H226206   3.373   7.150   7.878  1.0802  1.1793 -0.3754
  671TIP3   OH226207   2.199   5.505   7.880  0.3449 -0.1713 -0.4944
  671TIP3    H126208   2.283   5.468   7.852  0.8239 -1.1029  1.8882
  671TIP3    H226209   2.133   5.458   7.829  1.2110  0.5108 -2.3464
  672TIP3   OH226210   4.121   5.150   7.726 -1.1018  0.0303  0.1539
  672TIP3    H126211   4.194   5.137   7.666 -0.1216 -0.0825  1.3301
  672TIP3    H226212   4.054   5.090   7.696 -0.5016 -0.2610 -0.6255
  673TIP3   OH226213   1.070   2.460   9.462 -0.5425 -0.3035 -0.0250
  673TIP3    H126214   1.085   2.371   9.493  1.8305  0.4447  1.2585
  673TIP3    H226215   1.157   2.492   9.437 -1.5197  1.2118 -1.7997
  674TIP3   OH226216   4.965   6.523   7.781 -0.5032 -0.5306  0.1918
  674TIP3    H126217   4.958   6.438   7.824  3.6613 -0.8659  0.6247
  674TIP3    H226218   4.994   6.583   7.849  0.8084  0.1943 -0.9417
  675TIP3   OH226219   2.318   0.655   8.324 -0.2823  0.5342  0.1354
  675TIP3    H126220   2.298   0.748   8.315 -2.8060 -0.1168 -2.5586
  675TIP3    H226221   2.396   0.642   8.269 -0.3882  0.9470 -0.1181
  676TIP3   OH226222   0.393   3.820   8.420 -0.2180 -0.3393 -0.2635
  676TIP3    H126223   0.361   3.742   8.374 -1.1928 -0.7730  1.0906
  676TIP3    H226224   0.354   3.893   8.372  2.0222 -0.5132 -2.5728
  677TIP3   OH226225   4.581   0.144   9.106 -0.6802  0.3159 -0.0367
  677TIP3    H126226   4.599   0.191   9.024 -1.9177  0.8423 -0.0373
  677TIP3    H226227   4.654   0.083   9.115 -0.1478  0.7468 -1.1642
  678TIP3   OH226228   1.998   5.525   8.890  0.2477 -0.3960  0.5902
  678TIP3    H126229   1.981   5.439   8.852 -0.5269  0.6351 -1.5401
  678TIP3    H226230   1.932   5.582   8.852  0.3146  1.0554  2.4671
  679TIP3   OH226231   6.468   6.770   9.096 -1.0879 -0.1079  0.1100
  679TIP3    H126232   6.404   6.834   9.064  2.4511  4.7115  1.4187
  679TIP3    H226233   6.478   6.791   9.189 -0.6026 -3.6621  0.9783
  680TIP3   OH226234   2.270   3.057   8.083 -0.4436  0.5458 -0.5377
  680TIP3    H126235   2.186   3.014   8.099 -0.4171 -0.0124 -1.8351
  680TIP3    H226236   2.316   3.050   8.167 -1.0188 -0.6425 -0.2941
  681TIP3   OH226237   6.569   1.550   8.677 -0.1441 -0.2123  0.4678
  681TIP3    H126238   6.542   1.463   8.645  1.3403 -0.9509  1.1255
  681TIP3    H226239   6.515   1.611   8.627 -0.3246 -1.4627 -0.9644
  682TIP3   OH226240   7.328   4.342   8.960 -0.3614 -0.1784  0.1628
  682TIP3    H126241   7.313   4.251   8.937  0.6146 -0.8643  2.0601
  682TIP3    H226242   7.300   4.349   9.051  0.5238  1.1548  0.3607
  683TIP3   OH226243   4.675   1.038   6.355 -0.5198  0.3684 -0.2262
  683TIP3    H126244   4.677   0.970   6.422 -0.6243  0.9688  0.3923
  683TIP3    H226245   4.582   1.055   6.341 -0.4875  0.7294 -0.0198
  684TIP3   OH226246   0.547   4.690   7.863  0.2669 -0.1711 -0.3795
  684TIP3    H126247   0.619   4.627   7.873  0.5591 -0.0967 -1.8488
  684TIP3    H226248   0.544   4.708   7.769 -1.0793  0.5416 -0.2164
  685TIP3   OH226249   6.555   3.562   7.513  0.6764 -0.3311  0.1092
  685TIP3    H126250   6.611   3.639   7.512  1.7660 -1.0523 -2.2483
  685TIP3    H226251   6.616   3.488   7.511 -0.3448 -1.2898  1.9864
  686TIP3   OH226252   5.142   4.443   7.911 -0.4465 -0.0009 -0.3522
  686TIP3    H126253   5.234   4.427   7.935 -0.0178 -0.8255 -2.3705
  686TIP3    H226254   5.128   4.389   7.833 -2.1214  1.5215 -1.1575
  687TIP3   OH226255   3.096   0.406   8.923  0.3323  0.1330 -0.2203
  687TIP3    H126256   3.104   0.424   9.016 -2.4117  0.5909  0.0326
  687TIP3    H226257   3.039   0.476   8.890 -1.6124 -1.8776 -1.4497
  688TIP3   OH226258   3.957   2.060   6.916  0.1028 -0.1314 -0.2197
  688TIP3    H126259   4.051   2.075   6.925  0.4069 -2.6414  2.7233
  688TIP3    H226260   3.950   1.983   6.859  0.1577 -1.5374  1.5385
  689TIP3   OH226261   5.966   2.802   8.293 -0.2206  0.1536  0.5941
  689TIP3    H126262   6.019   2.855   8.353 -0.0797  0.1471  0.4751
  689TIP3    H226263   5.909   2.752   8.350 -0.1261  0.1910  0.7216
  690TIP3   OH226264   3.816   1.033   6.889 -0.0359 -0.4072  0.4444
  690TIP3    H126265   3.865   1.057   6.968 -0.5059  0.7005  0.4284
  690TIP3    H226266   3.881   0.993   6.831  0.5149 -0.3659  1.0259
  691TIP3   OH226267   0.203   6.574   9.170 -0.0170 -0.4618  0.1689
  691TIP3    H126268   0.153   6.536   9.097  0.2508 -0.2613 -0.1201
  691TIP3    H226269   0.290   6.535   9.162 -0.0626 -0.6461  0.5449
  692TIP3   OH226270   6.707   3.077   9.057  0.3918  0.3714 -0.0930
  692TIP3    H126271   6.664   3.084   9.142  0.9219  0.4102  0.1787
  692TIP3    H226272   6.755   3.160   9.049 -0.0485  0.5769 -0.6513
  693TIP3   OH226273   0.194   5.858   8.753  0.2499  0.4050  0.2883
  693TIP3    H126274   0.130   5.803   8.797  2.8600 -2.9192  0.2810
  693TIP3    H226275   0.271   5.857   8.811  1.8216  0.5752 -1.6902
  694TIP3   OH226276   7.071   1.799   8.357 -0.0290  0.0727 -0.0904
  694TIP3    H126277   7.167   1.798   8.362 -0.0543 -0.2104  0.4186
  694TIP3    H226278   7.048   1.715   8.318 -0.0133  0.7384 -1.6062
  695TIP3   OH226279   6.271   7.386   7.735  0.2549 -0.3072  0.1216
  695TIP3    H126280   6.330   7.447   7.690  1.1579  0.0041  1.6787
  695TIP3    H226281   6.256   7.316   7.671  0.6152  0.6487 -1.0488
  696TIP3   OH226282   1.460   2.097   8.126  0.0863  0.6479  0.2384
  696TIP3    H126283   1.409   2.163   8.081 -0.1921  1.3682  1.5605
  696TIP3    H226284   1.441   2.016   8.079 -0.1160  1.3726 -0.9651
  697TIP3   OH226285   2.559   0.239   6.916  0.4710  0.5865  0.2615
  697TIP3    H126286   2.550   0.145   6.926  0.5578  0.6971  1.4411
  697TIP3    H226287   2.476   0.276   6.944  0.7167  0.9099  0.5803
  698TIP3   OH226288   3.498   2.805   6.719 -0.4163 -0.3859  0.2843
  698TIP3    H126289   3.422   2.802   6.661 -0.5558 -2.1411  0.5254
  698TIP3    H226290   3.488   2.730   6.777 -1.5610  2.4910  4.2571
  699TIP3   OH226291   6.875   0.070   7.989  0.3311 -0.9858  0.4358
  699TIP3    H126292   6.782   0.058   8.010  0.1810 -1.2507 -0.3680
  699TIP3    H226293   6.887   0.165   7.992 -0.6323 -0.7045 -2.1291
  700TIP3   OH226294   6.681   7.111   9.240 -0.4872  0.2524 -0.0208
  700TIP3    H126295   6.773   7.083   9.243  0.0543  1.8443 -0.5421
  700TIP3    H226296   6.668   7.160   9.321 -1.4977 -1.6026  1.0112
  701TIP3   OH226297   6.816   2.538   9.269 -0.4784 -0.0060 -0.0168
  701TIP3    H126298   6.742   2.478   9.266 -0.1613 -0.5353  1.8137
  701TIP3    H226299   6.806   2.592   9.190 -1.5840 -1.4749 -0.9404
  702TIP3   OH226300   1.165   5.024   8.132 -0.4814 -0.9456 -0.5037
  702TIP3    H126301   1.091   5.070   8.172  0.1901 -0.7664  0.5848
  702TIP3    H226302   1.213   4.986   8.206  2.3729  1.6936 -0.7540
  703TIP3   OH226303   5.433   1.343   7.936  0.2235  0.7276 -0.8396
  703TIP3    H126304   5.458   1.353   7.844 -1.0435  0.8502 -1.1883
  703TIP3    H226305   5.352   1.292   7.933  0.3111  0.5105  0.2332
  704TIP3   OH226306   3.200   3.304   9.086 -0.4838 -0.1740  0.2586
  704TIP3    H126307   3.110   3.270   9.082 -1.2786  1.9339 -1.0750
  704TIP3    H226308   3.241   3.273   9.006 -0.0411 -1.0066  0.7948
  705TIP3   OH226309   3.369   3.598   8.038  0.2575 -0.0209  0.4308
  705TIP3    H126310   3.395   3.583   8.128  0.7731 -0.2151  0.2507
  705TIP3    H226311   3.332   3.686   8.038 -0.1580 -0.1906  0.9164
  706TIP3   OH226312   2.180   4.684   7.969  0.0928  0.7457  0.7483
  706TIP3    H126313   2.239   4.736   7.914  3.3912 -1.4595  1.8941
  706TIP3    H226314   2.204   4.708   8.059 -0.2824 -0.6667  1.2536
  707TIP3   OH226315   6.213   6.306   7.795 -0.1705  0.4237  0.8380
  707TIP3    H126316   6.205   6.352   7.879 -0.9147 -0.7993  1.4515
  707TIP3    H226317   6.161   6.227   7.806  0.6584 -0.3122 -0.3952
  708TIP3   OH226318   5.919   4.972   8.179 -0.4372  0.1766 -0.0599
  708TIP3    H126319   5.927   5.049   8.123  0.5680  0.2863  0.2313
  708TIP3    H226320   5.927   4.898   8.119 -5.0703  0.1214 -1.0027
  709TIP3   OH226321   7.089   6.526   8.261 -0.0529  0.0258 -0.1171
  709TIP3    H126322   7.061   6.558   8.347  0.2800 -2.7583  1.1166
  709TIP3    H226323   7.184   6.526   8.265 -0.0327 -2.2020  0.4182
  710TIP3   OH226324   0.271   5.285   7.853 -1.1550  0.3353  0.5060
  710TIP3    H126325   0.273   5.330   7.769  0.3506  0.1374  0.4181
  710TIP3    H226326   0.267   5.192   7.830  0.1298  0.2399  0.6294
  711TIP3   OH226327   1.483   2.394   9.221  0.1210 -0.1400  0.8089
  711TIP3    H126328   1.547   2.322   9.217  0.9592  0.4739  2.3828
  711TIP3    H226329   1.451   2.402   9.131  1.8539 -0.8562  0.0790
  712TIP3   OH226330   1.907   5.523   7.352 -0.0847  0.1245 -0.6762
  712TIP3    H126331   1.892   5.471   7.430 -0.5679 -0.6332 -1.2545
  712TIP3    H226332   1.894   5.462   7.279  0.5903  0.7491 -1.3452
  713TIP3   OH226333   5.999   7.619   8.135 -0.1531 -0.2394 -0.0385
  713TIP3    H126334   6.040   7.588   8.055  0.0525 -0.2182  0.0602
  713TIP3    H226335   5.915   7.573   8.138  0.1182 -0.7381  0.0706
  714TIP3   OH226336   0.414   5.909   6.952  0.4991 -0.6546  0.3611
  714TIP3    H126337   0.465   5.831   6.975  2.3846 -0.5636 -2.8574
  714TIP3    H226338   0.340   5.875   6.903  1.9433 -0.5215 -2.0799
  715TIP3   OH226339   7.674   1.429   7.405 -0.1294 -0.6946 -0.2058
  715TIP3    H126340   7.731   1.440   7.329  1.2476  2.0504  1.0796
  715TIP3    H226341   7.728   1.382   7.469  0.1611  0.4837  0.4396
  716TIP3   OH226342   2.403   0.876   7.625  0.0495 -0.2998  0.4675
  716TIP3    H126343   2.428   0.827   7.703  0.8582 -1.7477 -0.6482
  716TIP3    H226344   2.439   0.963   7.639 -0.2570 -0.3676  1.9068
  717TIP3   OH226345   3.887   1.037   8.813  0.3794 -0.2371 -0.3859
  717TIP3    H126346   3.797   1.056   8.786 -0.2165 -0.5532  1.2993
  717TIP3    H226347   3.935   1.118   8.794 -0.3702  0.1267 -0.7772
  718TIP3   OH226348   0.705   0.581   7.399 -0.5842 -0.1128 -0.0209
  718TIP3    H126349   0.714   0.652   7.462  0.1040 -0.7031  0.5544
  718TIP3    H226350   0.671   0.623   7.320 -0.5275  0.7894  0.4303
  719TIP3   OH226351   5.985   1.149   8.418  0.1409  0.0935  0.0560
  719TIP3    H126352   5.909   1.095   8.399 -0.3803  0.7862  0.1254
  719TIP3    H226353   6.056   1.087   8.432 -0.6079 -0.6114  0.8854
  720TIP3   OH226354   2.016   5.117   8.159  0.3787 -0.0821 -0.0835
  720TIP3    H126355   2.024   5.143   8.250 -1.8494 -0.6395  0.3192
  720TIP3    H226356   1.968   5.034   8.161  0.4230 -0.1869 -1.7434
  721TIP3   OH226357   7.536   4.222   9.292  0.0211 -0.2365  0.3037
  721TIP3    H126358   7.562   4.163   9.221  3.8258  0.1481  1.2055
  721TIP3    H226359   7.546   4.170   9.372 -0.8534  0.3817  0.8405
  722TIP3   OH226360   0.240   5.176   8.117 -0.5832 -0.0345 -0.0478
  722TIP3    H126361   0.315   5.206   8.169 -0.9958  0.6881  0.1365
  722TIP3    H226362   0.217   5.251   8.062 -1.8972  0.1556  0.7196
  723TIP3   OH226363   3.107   0.586   9.140  0.5882 -0.2239 -0.1601
  723TIP3    H126364   3.074   0.653   9.199  0.6731 -0.8525  0.6213
  723TIP3    H226365   3.194   0.618   9.115  0.8016 -0.2348  0.5387
  724TIP3   OH226366   4.438   3.832   8.257  0.2941  0.0348 -0.7189
  724TIP3    H126367   4.431   3.765   8.189  1.2285  0.3024 -1.0850
  724TIP3    H226368   4.517   3.881   8.235  2.2985 -1.6540  2.1542
  725TIP3   OH226369   4.432   2.479   8.912  0.2598 -0.9366 -0.2151
  725TIP3    H126370   4.383   2.396   8.910  0.0313 -0.8541  1.2027
  725TIP3    H226371   4.414   2.516   8.999 -0.1187  0.9032 -1.0331
  726TIP3   OH226372   7.134   0.603   9.683  0.5342  0.1012 -0.1739
  726TIP3    H126373   7.082   0.591   9.603  0.6797  1.0879 -0.4341
  726TIP3    H226374   7.223   0.622   9.651  0.5158  0.8651  0.2025
  727TIP3   OH226375   4.313   4.073   9.395 -0.1248  0.6207 -0.1690
  727TIP3    H126376   4.297   4.091   9.488 -0.6203  1.2269 -0.3621
  727TIP3    H226377   4.225   4.071   9.356 -0.0717 -1.6824 -0.2847
  728TIP3   OH226378   7.045   4.193   7.810  0.3085  0.1028  0.2365
  728TIP3    H126379   6.957   4.164   7.786  0.3434 -0.9053  1.2353
  728TIP3    H226380   7.034   4.284   7.839 -0.5922 -0.3519  1.3610
  729TIP3   OH226381   6.524   5.323   7.785 -0.3224 -0.4683 -0.1392
  729TIP3    H126382   6.486   5.406   7.815 -0.9507 -0.6687 -0.3669
  729TIP3    H226383   6.451   5.276   7.746 -0.0069 -1.2100  0.1413
  730TIP3   OH226384   3.899   2.491   8.710  0.4790  0.4665 -0.0713
  730TIP3    H126385   3.949   2.564   8.675 -0.7302  0.4133 -2.0268
  730TIP3    H226386   3.811   2.502   8.674 -0.0367 -1.3052  0.5219
  731TIP3   OH226387   3.359   1.036   6.984 -0.3433 -0.2573 -0.0965
  731TIP3    H126388   3.443   1.055   6.942  0.3541 -1.1080  0.8645
  731TIP3    H226389   3.334   0.950   6.950  1.0208 -1.7158  2.3147
  732TIP3   OH226390   1.381   1.814   7.640  0.0060  0.4895  0.0933
  732TIP3    H126391   1.404   1.806   7.547 -0.2549  1.5553 -0.0697
  732TIP3    H226392   1.443   1.756   7.684  0.7339  0.6656 -0.6647
  733TIP3   OH226393   2.687   2.113   8.843  0.3386 -0.5384 -0.7120
  733TIP3    H126394   2.613   2.062   8.877  1.2360 -0.3414  1.8202
  733TIP3    H226395   2.651   2.199   8.825 -0.2183 -0.6685 -0.2623
  734TIP3   OH226396   6.951   5.612   7.665  0.2757 -0.6585  0.1286
  734TIP3    H126397   6.930   5.546   7.731  0.1484 -0.5042  0.2445
  734TIP3    H226398   6.882   5.603   7.599 -0.5845  0.3442  0.8774
  735TIP3   OH226399   2.529   5.030   8.421  0.9137 -0.2633  0.3346
  735TIP3    H126400   2.617   5.042   8.456  1.5937 -1.6284 -0.8044
  735TIP3    H226401   2.522   5.092   8.349  0.3170  0.9877  1.4272
  736TIP3   OH226402   2.888   3.222   8.174  0.0773  0.0975  0.2491
  736TIP3    H126403   2.794   3.220   8.190  0.3484 -0.3579  2.0833
  736TIP3    H226404   2.912   3.314   8.181 -0.2044  0.1978 -0.0812
  737TIP3   OH226405   1.062   6.559   8.706 -0.4117  0.2432  0.4167
  737TIP3    H126406   0.988   6.576   8.765 -0.9841 -0.6715 -0.0130
  737TIP3    H226407   1.028   6.579   8.619 -0.8220 -2.0151 -0.0079
  738TIP3   OH226408   4.052   5.420   8.495  0.3941  0.1039  0.1429
  738TIP3    H126409   4.043   5.490   8.560 -2.7278 -0.5779  0.5983
  738TIP3    H226410   4.036   5.339   8.544  0.6115 -0.6478 -0.9756
  739TIP3   OH226411   1.736   3.430   7.991 -1.0006 -0.4845  0.8254
  739TIP3    H126412   1.741   3.525   7.982 -0.2287 -0.5902 -0.0795
  739TIP3    H226413   1.651   3.407   7.952 -0.1790 -0.3579 -1.2058
  740TIP3   OH226414   4.516   4.131   7.487  0.4104 -0.3533  0.4771
  740TIP3    H126415   4.518   4.178   7.403 -0.7711 -1.4862 -0.2270
  740TIP3    H226416   4.535   4.198   7.552 -2.6445  1.5218 -0.3543
  741TIP3   OH226417   6.367   3.455   8.525  0.7230  0.0295 -0.4538
  741TIP3    H126418   6.414   3.425   8.447  1.0095  2.0119 -1.0816
  741TIP3    H226419   6.415   3.533   8.554  0.4237 -0.4672  1.5370
  742TIP3   OH226420   7.473   2.273   7.706 -0.1124 -0.0043 -0.5496
  742TIP3    H126421   7.513   2.312   7.783 -3.5303  0.4101  1.1915
  742TIP3    H226422   7.539   2.211   7.673  1.8628  0.5687  2.0489
  743TIP3   OH226423   3.145   2.347   7.461  0.0916  0.3115  0.4933
  743TIP3    H126424   3.052   2.371   7.467 -0.3407 -0.7190 -1.1986
  743TIP3    H226425   3.187   2.424   7.423  0.0608  0.9967  1.7897
  744TIP3   OH226426   7.097   3.288   8.060 -0.1516  0.3870 -0.3596
  744TIP3    H126427   7.153   3.218   8.094 -0.3581  0.2374 -0.3210
  744TIP3    H226428   7.150   3.331   7.993 -1.6321 -2.8859 -3.9768
  745TIP3   OH226429   5.517   6.615   9.155  0.0974 -0.1021  0.3526
  745TIP3    H126430   5.609   6.625   9.180 -0.2802  0.6059  1.5465
  745TIP3    H226431   5.471   6.598   9.237 -1.1610  2.1172  0.2109
  746TIP3   OH226432   1.123   3.180   8.248  0.1509 -0.2678  0.5062
  746TIP3    H126433   1.074   3.262   8.256  0.8304  0.4339 -1.8206
  746TIP3    H226434   1.210   3.201   8.281  0.6657  0.3242 -1.1604
  747TIP3   OH226435   7.061   1.003   7.502  0.5407 -0.4596  0.1729
  747TIP3    H126436   7.054   1.075   7.439  0.2857 -1.3542 -0.8523
  747TIP3    H226437   6.994   0.940   7.475  2.6322 -2.4482 -0.8343
  748TIP3   OH226438   3.785   5.497   9.101  0.6719  0.1213  0.3930
  748TIP3    H126439   3.817   5.574   9.055 -0.1095  1.0731  1.3863
  748TIP3    H226440   3.863   5.457   9.139  0.9805  1.0532  0.7751
  749TIP3   OH226441   1.877   1.721   7.712  0.1294  0.2266 -0.4471
  749TIP3    H126442   1.970   1.732   7.730  0.5531 -0.1630 -2.2302
  749TIP3    H226443   1.850   1.803   7.670  0.0076 -0.1501 -1.1337
  750TIP3   OH226444   5.543   3.941   8.836 -0.2240 -0.3592 -0.3510
  750TIP3    H126445   5.585   3.930   8.750  1.2163 -0.6014  0.3650
  750TIP3    H226446   5.460   3.894   8.828  0.1905 -0.9477 -1.3972
  751TIP3   OH226447   2.545   6.734   8.660  0.3412 -0.1913  0.0294
  751TIP3    H126448   2.570   6.695   8.744  0.7824 -0.9415 -0.4412
  751TIP3    H226449   2.544   6.660   8.598 -0.1769  0.3176 -0.5864
  752TIP3   OH226450   7.306   5.191   9.031 -0.3288 -0.2184  0.1344
  752TIP3    H126451   7.256   5.241   9.096  1.1789  0.4363  0.8491
  752TIP3    H226452   7.324   5.253   8.961  0.8014  0.0141  0.6154
  753TIP3   OH226453   4.761   3.777   6.824  0.1692  0.0757 -0.7130
  753TIP3    H126454   4.851   3.748   6.818  0.4428  0.9545 -1.0639
  753TIP3    H226455   4.763   3.869   6.798 -0.5826  0.5697  0.8126
  754TIP3   OH226456   6.306   2.653   7.165 -0.0801  0.2583 -0.4508
  754TIP3    H126457   6.221   2.631   7.126  0.8165 -0.4280 -2.1412
  754TIP3    H226458   6.361   2.676   7.090  1.2674  0.6165  0.6039
  755TIP3   OH226459   4.997   7.238   8.264 -0.1478 -0.0971  0.0150
  755TIP3    H126460   5.015   7.301   8.195  1.1586  0.1544  0.5637
  755TIP3    H226461   5.015   7.285   8.345  0.5524 -1.0740  0.4496
  756TIP3   OH226462   3.591   0.912   9.283  0.9534 -0.0960  0.0235
  756TIP3    H126463   3.513   0.927   9.229  1.2347  0.9027 -0.1135
  756TIP3    H226464   3.615   0.998   9.317  1.9631 -0.3947  0.1182
  757TIP3   OH226465   1.372   0.603   7.417 -0.1945  0.6733 -0.4802
  757TIP3    H126466   1.361   0.554   7.336 -1.5266  1.4386 -0.7907
  757TIP3    H226467   1.289   0.592   7.464  0.3739  0.6532  0.5546
  758TIP3   OH226468   6.403   3.447   7.712 -0.5621 -0.3780 -0.6837
  758TIP3    H126469   6.470   3.503   7.673 -1.2630 -0.6359 -2.3470
  758TIP3    H226470   6.452   3.380   7.759  0.3046  0.6196 -0.1500
  759TIP3   OH226471   3.056   0.276   7.027 -0.3940 -0.0189  0.6981
  759TIP3    H126472   3.056   0.242   6.938  0.6241  0.2319  0.5900
  759TIP3    H226473   2.974   0.325   7.034 -0.0422  0.7761 -0.4325
  760TIP3   OH226474   2.121   1.796   8.146  0.8209 -0.1086 -0.3745
  760TIP3    H126475   2.053   1.736   8.117  0.6892 -0.4045  0.5170
  760TIP3    H226476   2.200   1.768   8.100  0.9525 -1.5038  0.6539
  761TIP3   OH226477   1.240   3.973   8.139 -0.1557  0.2040  0.4486
  761TIP3    H126478   1.182   3.928   8.201 -0.8626 -0.8763 -0.9399
  761TIP3    H226479   1.304   3.906   8.114  1.2002  1.1361  1.2957
  762TIP3   OH226480   2.948   4.798   8.563  0.3226 -0.2138  0.1652
  762TIP3    H126481   3.029   4.770   8.605 -0.0407 -0.2651  0.8435
  762TIP3    H226482   2.903   4.716   8.540  0.9579 -0.2103 -1.2383
  763TIP3   OH226483   5.826   1.288   8.165  0.0667  0.6078  0.1218
  763TIP3    H126484   5.747   1.262   8.213 -0.2313  0.1554 -0.6012
  763TIP3    H226485   5.797   1.301   8.075  0.5265  1.9437  0.1418
  764TIP3   OH226486   3.124   0.557   8.059  0.2328  0.8935  0.2260
  764TIP3    H126487   3.216   0.555   8.031  0.3622  0.8374  0.6567
  764TIP3    H226488   3.083   0.621   8.000 -0.2298 -1.5341 -2.2920
  765TIP3   OH226489   1.179   6.866   9.034 -0.7389 -0.0572 -0.0822
  765TIP3    H126490   1.267   6.900   9.050 -1.1966  0.8023  0.6207
  765TIP3    H226491   1.194   6.780   8.993  0.4187  0.3151 -0.4722
  766TIP3   OH226492   7.216   5.743   7.016 -0.8953 -0.3651 -0.5284
  766TIP3    H126493   7.237   5.836   7.007 -0.8309 -0.2483  0.5890
  766TIP3    H226494   7.134   5.742   7.066 -0.7218 -0.9039 -0.2486
  767TIP3   OH226495   7.018   0.575   8.782  0.7270  0.1268  0.1718
  767TIP3    H126496   7.102   0.533   8.801  0.7960  0.3124  0.2758
  767TIP3    H226497   7.007   0.565   8.687  0.9766  0.3081  0.1246
  768TIP3   OH226498   2.815   6.971   8.803  0.0340 -0.1324 -0.6247
  768TIP3    H126499   2.873   7.025   8.858  3.3180 -0.8829 -3.0883
  768TIP3    H226500   2.747   7.032   8.774  1.5393  1.7557 -0.3872
  769TIP3   OH226501   2.818   0.997   7.385 -0.2171  0.0173  0.3391
  769TIP3    H126502   2.769   1.008   7.304  1.9514  0.5231 -0.9969
  769TIP3    H226503   2.845   1.086   7.409  1.2299 -0.3501  0.1932
  770TIP3   OH226504   5.117   4.278   7.718  0.0283 -0.0003  0.3435
  770TIP3    H126505   5.045   4.236   7.766  0.2771  0.0787  0.7982
  770TIP3    H226506   5.143   4.214   7.652 -0.1471 -0.2201  0.4860
  771TIP3   OH226507   0.462   0.207   8.953 -0.4165  0.2732  0.5778
  771TIP3    H126508   0.460   0.209   8.857  0.8566 -0.9254  0.4789
  771TIP3    H226509   0.521   0.278   8.978  0.3101 -0.2522  0.3825
  772TIP3   OH226510   7.117   7.301   8.315  0.1488  0.4396  0.0502
  772TIP3    H126511   7.051   7.360   8.277  1.4114  1.8225 -0.1024
  772TIP3    H226512   7.118   7.225   8.257 -0.4830  0.9258 -0.6155
  773TIP3   OH226513   3.271   5.300   6.688  0.0297  0.4481 -0.1992
  773TIP3    H126514   3.189   5.272   6.728  0.3686  0.6758  0.6719
  773TIP3    H226515   3.290   5.232   6.623 -0.7961  0.3481 -0.3429
  774TIP3   OH226516   6.216   6.936   9.286  0.4035 -0.5017  0.2359
  774TIP3    H126517   6.187   7.007   9.344  2.0610  0.7874 -0.4094
  774TIP3    H226518   6.234   6.979   9.202  1.6366 -1.6254 -0.1237
  775TIP3   OH226519   0.895   3.811   7.634 -0.3003  0.1296  0.5206
  775TIP3    H126520   0.947   3.863   7.697 -0.4295 -0.1750  0.8836
  775TIP3    H226521   0.960   3.759   7.587 -0.1988  0.3883  0.3696
  776TIP3   OH226522   3.213   2.788   6.613  0.2594 -0.0539 -0.0292
  776TIP3    H126523   3.164   2.853   6.664  0.0627  1.3329 -1.9080
  776TIP3    H226524   3.164   2.780   6.531  0.2250 -2.6749  0.1512
  777TIP3   OH226525   4.509   4.532   9.245  0.1405  0.0204 -0.6488
  777TIP3    H126526   4.449   4.495   9.179 -0.2219 -2.7569  1.0573
  777TIP3    H226527   4.596   4.503   9.218  0.0697 -0.5209 -0.3157
  778TIP3   OH226528   7.137   2.060   9.145  0.4989  0.8396  0.0230
  778TIP3    H126529   7.126   2.011   9.063  0.3393  1.1834 -0.1640
  778TIP3    H226530   7.230   2.080   9.149  1.0124 -1.4681  1.2573
  779TIP3   OH226531   3.326   7.247   7.540  0.1149 -0.3160  0.2305
  779TIP3    H126532   3.293   7.175   7.487 -2.0020 -0.6887  1.9275
  779TIP3    H226533   3.328   7.213   7.629  0.2844  1.3353  0.8968
  780TIP3   OH226534   1.125   1.747   6.931  0.5273 -0.3136 -0.3965
  780TIP3    H126535   1.170   1.664   6.919  0.1787 -0.5664  0.0205
  780TIP3    H226536   1.035   1.723   6.954  0.0057  0.1761 -1.7910
  781TIP3   OH226537   5.924   7.610   7.829  0.2347 -0.4383 -0.0430
  781TIP3    H126538   5.861   7.595   7.900  1.2947 -1.2912  0.7431
  781TIP3    H226539   5.899   7.696   7.793 -1.1751 -0.6159  0.4344
  782TIP3   OH226540   2.426   7.427   9.417  0.1121  0.4880 -0.2614
  782TIP3    H126541   2.424   7.519   9.444  2.2839  0.5704 -0.2097
  782TIP3    H226542   2.497   7.389   9.469 -0.1120 -0.9870 -1.0019
  783TIP3   OH226543   0.751   5.355   7.061  0.0119  0.2566  0.0554
  783TIP3    H126544   0.785   5.360   6.972 -1.7374 -0.4747 -0.6997
  783TIP3    H226545   0.767   5.442   7.098 -0.4093  1.0132 -1.4411
  784TIP3   OH226546   5.177   3.055   9.149  0.1137  0.3198 -0.4494
  784TIP3    H126547   5.180   3.006   9.066 -1.2188 -0.9332  0.1984
  784TIP3    H226548   5.100   3.110   9.141 -0.7619 -0.7427  0.4290
  785TIP3   OH226549   3.563   6.021   9.202  0.5219  0.1830  0.0683
  785TIP3    H126550   3.560   6.016   9.107 -1.3016  2.6593 -0.1044
  785TIP3    H226551   3.585   6.112   9.221 -1.5962  0.3840  1.9680
  786TIP3   OH226552   3.113   0.406   8.603  0.1100 -0.2308 -0.0268
  786TIP3    H126553   3.086   0.361   8.683  0.0942 -2.3792 -1.1866
  786TIP3    H226554   3.144   0.492   8.634 -0.1815 -0.8726  2.2379
  787TIP3   OH226555   5.387   3.491   7.647 -0.2876 -0.0060  0.3461
  787TIP3    H126556   5.441   3.530   7.716 -0.6454  0.3992  0.4009
  787TIP3    H226557   5.358   3.565   7.595 -1.3402 -0.1426  0.7157
  788TIP3   OH226558   4.098   4.170   8.256  0.2006 -0.1560  0.1790
  788TIP3    H126559   4.057   4.250   8.223  1.1532 -0.2998 -1.4889
  788TIP3    H226560   4.035   4.101   8.234  0.8563 -0.2589 -1.5251
  789TIP3   OH226561   4.672   0.277   8.897 -0.1645 -0.0917  0.5232
  789TIP3    H126562   4.762   0.285   8.865 -0.3524  0.3005  0.0868
  789TIP3    H226563   4.642   0.368   8.905 -1.3412 -0.2287 -1.6696
  790TIP3   OH226564   6.798   5.978   6.787  0.2543  0.1021 -0.6374
  790TIP3    H126565   6.879   5.927   6.795  0.1067 -0.1071 -0.4522
  790TIP3    H226566   6.763   5.979   6.876 -0.3103 -0.4107 -0.8515
  791TIP3   OH226567   1.042   6.120   8.204 -0.0706  0.0298  0.0818
  791TIP3    H126568   1.002   6.173   8.136  1.4745  0.2743 -0.6732
  791TIP3    H226569   0.972   6.060   8.232 -0.9689  0.4847 -1.1114
  792TIP3   OH226570   5.010   4.947   9.339 -0.0317 -0.2409 -0.7339
  792TIP3    H126571   4.960   5.007   9.394  0.3588 -0.3418 -0.2659
  792TIP3    H226572   5.004   4.985   9.251 -0.3275  0.1357 -0.5526
  793TIP3   OH226573   0.212   0.453   6.728 -0.1800  0.0053  0.8066
  793TIP3    H126574   0.216   0.451   6.633 -1.4119 -0.1980  0.7479
  793TIP3    H226575   0.290   0.503   6.754  0.9374 -1.1357 -0.2214
  794TIP3   OH226576   2.732   0.262   8.001  0.0706 -0.4404  0.1157
  794TIP3    H126577   2.759   0.171   8.014  0.8389 -0.4513 -1.3162
  794TIP3    H226578   2.701   0.291   8.087  0.8676 -1.7066  0.8559
  795TIP3   OH226579   2.186   4.560   8.749 -0.2694 -0.5629 -0.1924
  795TIP3    H126580   2.269   4.604   8.765  1.2713 -2.9873 -1.0068
  795TIP3    H226581   2.162   4.525   8.835 -0.9279  0.7999  0.2168
  796TIP3   OH226582   3.403   3.042   7.669  0.5285  0.6357  0.6907
  796TIP3    H126583   3.433   2.991   7.594 -1.0342 -0.8086  0.9731
  796TIP3    H226584   3.434   3.131   7.652  2.7727 -0.2371 -0.1698
  797TIP3   OH226585   1.335   3.217   7.232 -0.6353  0.2347 -0.0532
  797TIP3    H126586   1.403   3.227   7.299  1.8804 -0.2030 -2.3809
  797TIP3    H226587   1.293   3.134   7.253 -1.0902  0.8974  1.8932
  798TIP3   OH226588   2.569   3.233   8.157 -0.3962  0.4957 -0.0337
  798TIP3    H126589   2.588   3.142   8.136 -1.1142  0.1606  0.7395
  798TIP3    H226590   2.480   3.232   8.192 -1.0242  1.7201 -1.4803
  799TIP3   OH226591   3.169   2.467   6.859 -0.0353  0.0603 -0.4538
  799TIP3    H126592   3.219   2.507   6.788 -0.3398  0.1189 -0.6326
  799TIP3    H226593   3.104   2.411   6.816 -1.2221  1.2566 -0.2727
  800TIP3   OH226594   6.544   4.368   8.536 -0.7366 -0.1622  0.0546
  800TIP3    H126595   6.557   4.283   8.577 -0.6202 -0.1893 -0.0409
  800TIP3    H226596   6.572   4.431   8.603 -1.3319 -0.1798  0.3294
  801TIP3   OH226597   4.618   7.309   7.642 -0.2984 -0.1489  0.4410
  801TIP3    H126598   4.702   7.275   7.673  0.2656  1.2973  0.5939
  801TIP3    H226599   4.574   7.342   7.720 -0.3126  0.5136  0.1657
  802TIP3   OH226600   5.794   4.617   7.484 -0.2692 -0.2588  0.0891
  802TIP3    H126601   5.737   4.620   7.407  0.0189 -0.6068 -0.1434
  802TIP3    H226602   5.752   4.674   7.547 -0.2992  0.3660 -0.4794
  803TIP3   OH226603   0.021   0.702   9.022  0.1507  0.2969  0.1603
  803TIP3    H126604  -0.061   0.726   8.977  0.0071 -0.7889 -0.2082
  803TIP3    H226605   0.081   0.773   9.001 -0.7980  1.3058  0.7383
  804TIP3   OH226606   3.944   2.742   9.575 -0.4056 -0.1963  0.2239
  804TIP3    H126607   3.874   2.776   9.631 -2.4146 -2.9243 -0.3799
  804TIP3    H226608   3.932   2.787   9.492  0.9697  1.9957  1.1246
  805TIP3   OH226609   6.238   6.791   6.995 -0.0398  0.3150  0.4442
  805TIP3    H126610   6.194   6.873   7.018 -0.3280  0.0570  0.8287
  805TIP3    H226611   6.166   6.732   6.970  0.0774 -0.1275  1.1335
  806TIP3   OH226612   0.321   6.381   8.380  0.0831  0.1611 -0.3250
  806TIP3    H126613   0.370   6.304   8.408  0.1356  0.8344  1.5877
  806TIP3    H226614   0.262   6.400   8.453  0.1792  2.0057 -0.6612
  807TIP3   OH226615   2.370   1.519   7.034 -0.3274  0.3756 -0.4968
  807TIP3    H126616   2.396   1.483   6.949  2.0925  1.6061 -0.3386
  807TIP3    H226617   2.361   1.613   7.019 -1.5868  0.4082  0.2646
  808TIP3   OH226618   0.331   4.653   7.997  0.0405  0.2110 -0.4736
  808TIP3    H126619   0.371   4.628   8.080 -1.1083  0.0106  0.0353
  808TIP3    H226620   0.405   4.664   7.937  0.7743 -1.5978  0.0379
  809TIP3   OH226621   1.034   2.754   8.099 -0.0845 -0.1225  0.0129
  809TIP3    H126622   1.050   2.818   8.169 -0.6682  0.4490 -0.3637
  809TIP3    H226623   0.940   2.737   8.103 -0.2339  0.3887 -1.0223
  810TIP3   OH226624   4.802   5.392   7.671 -0.0325 -0.0284 -0.0048
  810TIP3    H126625   4.828   5.311   7.626  1.5753  2.2147 -3.4690
  810TIP3    H226626   4.884   5.425   7.709 -0.3562  0.7794  0.0106
  811TIP3   OH226627   5.358   5.580   8.439 -0.3945  0.3987 -0.0224
  811TIP3    H126628   5.427   5.644   8.456 -1.5962  2.1851 -1.5095
  811TIP3    H226629   5.287   5.604   8.498 -0.6600  0.0799 -0.2069
  812TIP3   OH226630   2.936   2.972   7.385 -0.6027  0.2118 -0.5285
  812TIP3    H126631   3.028   2.994   7.402 -0.0802 -0.4944 -2.2607
  812TIP3    H226632   2.887   3.042   7.428  0.7140  0.3477  0.8435
  813TIP3   OH226633   6.518   1.472   7.215 -0.1085  0.0861  0.3073
  813TIP3    H126634   6.502   1.393   7.163 -0.2925  0.8582 -0.8337
  813TIP3    H226635   6.454   1.535   7.183  0.5798  0.9698  0.6313
  814TIP3   OH226636   6.190   2.245   8.245 -0.0682 -0.0107 -0.5396
  814TIP3    H126637   6.211   2.161   8.286  1.2536  0.2625 -0.6013
  814TIP3    H226638   6.121   2.282   8.299 -0.0068 -0.7176  0.0383
  815TIP3   OH226639   4.610   0.999   8.163 -0.3817  0.2448 -0.2473
  815TIP3    H126640   4.635   0.912   8.194 -1.1721  0.2367  0.3841
  815TIP3    H226641   4.669   1.016   8.089  0.2865 -0.5021  0.1076
  816TIP3   OH226642   4.795   6.607   7.590  0.0288  0.0702 -0.7453
  816TIP3    H126643   4.842   6.576   7.667  0.7097  0.2393 -1.0864
  816TIP3    H226644   4.860   6.655   7.539 -0.5027  0.2816 -1.2451
  817TIP3   OH226645   4.081   7.366   7.773  0.2846  0.3205 -0.2623
  817TIP3    H126646   4.127   7.393   7.693  0.4113  0.1676 -0.2438
  817TIP3    H226647   4.138   7.394   7.844  1.5603 -1.9283 -0.2816
  818TIP3   OH226648   7.279   1.373   7.799  0.0263 -0.1275  0.4449
  818TIP3    H126649   7.311   1.329   7.878 -0.2589 -0.1815  0.5325
  818TIP3    H226650   7.194   1.409   7.825 -0.0885 -0.1841  0.1496
  819TIP3   OH226651   4.437   7.372   9.057  0.2330  0.0902  0.3407
  819TIP3    H126652   4.474   7.451   9.097  0.8511 -0.0726  0.1062
  819TIP3    H226653   4.447   7.304   9.123 -1.4078  0.4609  1.0137
  820TIP3   OH226654   2.128   6.825   7.802 -0.4618  0.4691  0.9912
  820TIP3    H126655   2.108   6.737   7.771 -0.6884  0.7025  0.4499
  820TIP3    H226656   2.173   6.812   7.885 -0.7241 -0.1457  1.0413
  821TIP3   OH226657   0.719   5.972   9.446  0.1940 -0.4000  0.3322
  821TIP3    H126658   0.806   6.012   9.454 -0.8028  1.5594  2.0328
  821TIP3    H226659   0.685   6.006   9.363  0.5416 -0.1176  0.3017
  822TIP3   OH226660   0.877   2.774   8.724 -0.3894 -0.5732 -0.0863
  822TIP3    H126661   0.871   2.756   8.630  0.9660  0.1826 -0.3450
  822TIP3    H226662   0.813   2.844   8.739 -0.1074 -0.2107 -0.5800
  823TIP3   OH226663   5.967   0.584   7.887  0.0778 -0.1339 -0.1101
  823TIP3    H126664   5.967   0.655   7.823  1.2316  0.7930  0.8706
  823TIP3    H226665   5.875   0.567   7.906 -0.2125  0.9100 -0.5562
  824TIP3   OH226666   6.845   3.329   7.961  0.4200  0.4189  0.0150
  824TIP3    H126667   6.866   3.290   7.877  0.4451  2.7363 -1.1300
  824TIP3    H226668   6.916   3.303   8.019 -0.1260 -2.0684 -0.3445
  825TIP3   OH226669   6.474   3.509   8.169  0.1648 -0.4862  0.0474
  825TIP3    H126670   6.472   3.433   8.227 -1.1431 -0.4652  0.0662
  825TIP3    H226671   6.417   3.485   8.095 -1.5537  1.0073  0.7975
  826TIP3   OH226672   5.036   7.131   9.174 -0.6309 -0.2171 -0.5277
  826TIP3    H126673   5.024   7.188   9.249 -0.1324  0.4698 -0.9643
  826TIP3    H226674   4.966   7.157   9.113 -1.3395 -1.1009 -0.1169
  827TIP3   OH226675   1.219   1.577   9.293  0.3327  0.9121 -0.2810
  827TIP3    H126676   1.204   1.484   9.308  0.0363  0.9796 -0.1375
  827TIP3    H226677   1.263   1.581   9.208  3.8106  0.4030  1.3602
  828TIP3   OH226678   5.013   0.393   8.596 -0.2423  0.3285 -0.0426
  828TIP3    H126679   5.095   0.374   8.551  0.2579 -2.1889  1.7906
  828TIP3    H226680   4.954   0.422   8.526  2.0347  1.8921 -1.4448
  829TIP3   OH226681   7.451   3.050   8.670  0.0470  0.4692  0.2380
  829TIP3    H126682   7.399   3.119   8.630 -2.0008 -0.9700  0.2429
  829TIP3    H226683   7.473   2.992   8.597  0.7125  0.5043  0.4099
  830TIP3   OH226684   3.885   7.245   7.905 -0.4107 -0.3262 -0.8179
  830TIP3    H126685   3.852   7.307   7.970 -2.9692 -1.8985 -0.4673
  830TIP3    H226686   3.936   7.298   7.843 -1.9703  1.9955 -0.1976
  831TIP3   OH226687   3.993   1.900   8.771  0.1121  0.2494  0.3866
  831TIP3    H126688   4.047   1.874   8.846 -0.7034  1.4490  1.4178
  831TIP3    H226689   3.995   1.823   8.713  3.3521  0.4045  0.0852
  832TIP3   OH226690   4.128   5.316   7.245 -0.1852  0.2223  0.2202
  832TIP3    H126691   4.156   5.263   7.320 -2.2750 -0.6400  0.4436
  832TIP3    H226692   4.088   5.394   7.284  0.2785  0.6087 -0.0583
  833TIP3   OH226693   4.998   7.675   9.303  0.1880 -0.0044  0.0225
  833TIP3    H126694   5.075   7.719   9.338 -0.5532 -0.5909  2.6304
  833TIP3    H226695   4.925   7.731   9.329 -0.4031 -0.1254 -1.2757
  834TIP3   OH226696   6.586   1.921   7.226  0.2375 -0.0646  0.1141
  834TIP3    H126697   6.570   1.994   7.285 -1.0643 -1.0212  0.9886
  834TIP3    H226698   6.675   1.891   7.248  1.2644  1.8997 -1.0352
  835TIP3   OH226699   7.044   5.199   9.465 -0.0282  0.4137  0.0840
  835TIP3    H126700   6.981   5.263   9.433  0.8387  0.9275 -0.6473
  835TIP3    H226701   7.109   5.250   9.513  1.3562  0.3099 -1.5499
  836TIP3   OH226702   4.465   2.855   9.106 -0.3819  1.0674  0.7690
  836TIP3    H126703   4.423   2.886   9.186 -0.4043 -0.8614  1.5582
  836TIP3    H226704   4.461   2.760   9.112  3.5947  0.7056  0.6572
  837TIP3   OH226705   5.648   4.952   9.380  0.1949  0.1587  0.5999
  837TIP3    H126706   5.711   4.879   9.387  0.5567  0.5245  1.2935
  837TIP3    H226707   5.569   4.912   9.343  0.5665 -0.4774  0.4700
  838TIP3   OH226708   5.651   5.886   6.661 -0.1710 -0.8900 -0.8554
  838TIP3    H126709   5.732   5.889   6.611 -0.8389 -0.6709 -1.9525
  838TIP3    H226710   5.669   5.826   6.733  0.8343 -1.1635 -1.3259
  839TIP3   OH226711   0.009   5.828   8.468  0.2297 -0.4660 -0.3262
  839TIP3    H126712   0.095   5.836   8.427  0.2838 -0.9997 -0.3202
  839TIP3    H226713   0.010   5.742   8.510  0.3125  0.2036  1.1093
  840TIP3   OH226714   2.533   5.150   6.874  0.2203 -0.6914 -0.4908
  840TIP3    H126715   2.540   5.202   6.953  1.7136 -1.1529 -0.2825
  840TIP3    H226716   2.588   5.195   6.810 -3.2443  1.3713 -2.3248
  841TIP3   OH226717   5.467   6.949   8.349 -0.2158 -0.9738 -0.6100
  841TIP3    H126718   5.372   6.952   8.336 -0.2017  1.1613 -0.4883
  841TIP3    H226719   5.477   6.933   8.443 -0.5798  2.4323  0.1331
  842TIP3   OH226720   1.047   0.673   8.312 -0.0506 -0.7785 -0.1919
  842TIP3    H126721   1.072   0.627   8.231  1.4214 -0.2000 -0.0904
  842TIP3    H226722   0.997   0.748   8.282  0.3683 -0.6439 -0.5763
  843TIP3   OH226723   0.629   5.320   7.656  0.9419  0.1311 -0.5112
  843TIP3    H126724   0.702   5.260   7.642  0.1737 -0.9995  0.1626
  843TIP3    H226725   0.570   5.274   7.716 -0.3962  0.9443 -1.1341
  844TIP3   OH226726   0.121   5.749   9.306 -0.2683  0.4278  0.4668
  844TIP3    H126727   0.106   5.837   9.340  0.3316  0.2591  1.2055
  844TIP3    H226728   0.034   5.713   9.292 -0.5198  0.9646  0.6310
  845TIP3   OH226729   3.759   4.866   8.238 -0.3205 -0.3512 -0.2764
  845TIP3    H126730   3.781   4.930   8.306 -1.4888  1.9457 -1.9404
  845TIP3    H226731   3.750   4.918   8.158 -2.1095 -2.4892 -1.5701
  846TIP3   OH226732   6.122   4.827   6.832 -0.4283 -0.1442  0.2734
  846TIP3    H126733   6.030   4.824   6.858 -0.9833 -0.0252 -1.5732
  846TIP3    H226734   6.166   4.871   6.905 -1.6666 -0.9757  1.5819
  847TIP3   OH226735   4.034   4.573   9.114  0.8026  0.1229  0.4756
  847TIP3    H126736   4.051   4.526   9.195  2.1644  1.2521  0.8897
  847TIP3    H226737   4.034   4.506   9.046  0.5448 -0.7201  1.2969
  848TIP3   OH226738   2.354   4.936   8.641 -0.1136 -0.8134  0.1061
  848TIP3    H126739   2.280   4.994   8.658 -0.2369 -0.3100 -1.8677
  848TIP3    H226740   2.396   4.973   8.563  0.8837 -2.3541 -0.1347
  849TIP3   OH226741   6.591   2.327   9.270 -0.1931 -0.4837  0.1559
  849TIP3    H126742   6.511   2.276   9.256 -0.5442 -0.1810  1.0358
  849TIP3    H226743   6.563   2.403   9.320  0.2806  0.7215 -1.3343
  850TIP3   OH226744   1.319   4.976   8.368  0.3649  0.9246 -0.0599
  850TIP3    H126745   1.268   4.937   8.439 -0.8336  0.8478 -0.9185
  850TIP3    H226746   1.400   4.926   8.365 -0.6624 -0.7995 -0.4038
  851TIP3   OH226747   4.503   7.452   7.841  0.0181  0.2786  0.0667
  851TIP3    H126748   4.503   7.389   7.913 -2.2853 -0.8414 -0.8099
  851TIP3    H226749   4.434   7.514   7.864  0.2016  0.7199 -0.5572
  852TIP3   OH226750   1.440   2.982   9.501  0.1162  0.3050  0.3170
  852TIP3    H126751   1.477   2.936   9.577  0.1435  0.4681  0.4050
  852TIP3    H226752   1.442   2.918   9.430  1.1127  0.4857  0.1639
  853TIP3   OH226753   5.036   5.986   8.958 -0.1639 -0.5019 -0.0519
  853TIP3    H126754   4.987   6.008   9.037 -0.1867 -3.0624  0.7305
  853TIP3    H226755   5.125   6.017   8.975 -0.8498  1.9040 -0.4498
  854TIP3   OH226756   2.723   4.489   8.801  0.1927 -0.6842  0.1283
  854TIP3    H126757   2.704   4.583   8.798  0.1687 -0.7164 -0.8953
  854TIP3    H226758   2.786   4.480   8.873  0.3632  0.1475  0.0908
  855TIP3   OH226759   4.703   5.882   8.987 -0.3753 -0.2810  0.2776
  855TIP3    H126760   4.619   5.860   8.946 -0.6846 -0.2822  0.9109
  855TIP3    H226761   4.714   5.976   8.969 -0.1560 -0.4324 -0.4330
  856TIP3   OH226762   4.158   4.355   7.254  0.2099  0.5991 -0.2063
  856TIP3    H126763   4.126   4.333   7.166  1.3984  1.1321 -0.7852
  856TIP3    H226764   4.202   4.439   7.243  0.0810  0.8298  0.9793
  857TIP3   OH226765   3.094   7.003   7.691  0.0476  0.3403  0.0079
  857TIP3    H126766   3.070   6.912   7.673 -5.6163  1.2232  1.0930
  857TIP3    H226767   3.062   7.051   7.614 -1.1339  1.6851  1.2724
  858TIP3   OH226768   7.584   2.751   8.168 -0.4570 -0.3816 -0.3417
  858TIP3    H126769   7.551   2.670   8.129  0.8237 -0.6106 -0.9977
  858TIP3    H226770   7.615   2.802   8.094 -0.6308  0.4253  0.1328
  859TIP3   OH226771   3.551   1.875   7.915  0.1214  0.1955  0.1227
  859TIP3    H126772   3.578   1.784   7.931 -0.7951 -0.1800 -0.3575
  859TIP3    H226773   3.624   1.914   7.867 -0.1193 -0.7557 -1.0627
  860TIP3   OH226774   4.763   2.031   8.914 -0.0139 -0.0696  0.5463
  860TIP3    H126775   4.761   2.127   8.910 -0.2558 -0.0730  0.5124
  860TIP3    H226776   4.735   2.011   9.004  1.1204 -0.0846  0.9063
  861TIP3   OH226777   6.896   6.663   7.738 -0.4614 -0.2987  0.3779
  861TIP3    H126778   6.935   6.598   7.680 -1.0660  0.3632 -0.8298
  861TIP3    H226779   6.803   6.662   7.715 -0.6201  0.3648  0.9581
  862TIP3   OH226780   5.011   7.558   9.015  0.0979  0.8313  0.2756
  862TIP3    H126781   4.999   7.623   8.945 -4.3804  1.1879  1.0735
  862TIP3    H226782   5.026   7.611   9.094  0.9600  0.6168  0.2667
  863TIP3   OH226783   5.280   3.634   8.452  0.0629 -0.6259  0.3795
  863TIP3    H126784   5.271   3.612   8.360  1.7582 -0.0682  0.0473
  863TIP3    H226785   5.362   3.682   8.458 -0.5814  0.3748  2.0079
  864TIP3   OH226786   0.428   1.381   9.363  0.4108  0.6230 -0.3729
  864TIP3    H126787   0.426   1.317   9.291 -0.2820  0.4455 -0.1999
  864TIP3    H226788   0.479   1.454   9.328 -1.4440  1.3455 -1.7293
  865TIP3   OH226789   0.411   4.042   8.040 -0.2096 -0.3800  0.1378
  865TIP3    H126790   0.357   4.100   7.985  0.4174 -0.0690 -0.1588
  865TIP3    H226791   0.500   4.054   8.007  0.2688  0.2555  1.6254
  866TIP3   OH226792   5.102   1.101   7.251  1.0497  0.3363 -0.5381
  866TIP3    H126793   5.040   1.077   7.182  0.6196 -0.0181 -0.0370
  866TIP3    H226794   5.160   1.166   7.210 -0.0722  1.1956 -0.8164
  867TIP3   OH226795   7.573   5.364   9.309 -0.1577  0.1800 -0.4738
  867TIP3    H126796   7.649   5.308   9.322  0.4309  1.1564  0.4571
  867TIP3    H226797   7.542   5.342   9.222  0.0600 -1.5651 -0.1535
  868TIP3   OH226798   1.534   3.117   9.109 -0.7882  0.1031  0.4539
  868TIP3    H126799   1.576   3.198   9.078  0.9575 -0.5799  0.9575
  868TIP3    H226800   1.494   3.080   9.030  1.4490 -0.3269 -0.5452
  869TIP3   OH226801   0.802   7.562   8.655  0.2562  0.6096  0.0230
  869TIP3    H126802   0.864   7.612   8.708  1.8678 -0.8767 -0.3810
  869TIP3    H226803   0.845   7.478   8.640 -1.8617 -0.4792 -0.3187
  870TIP3   OH226804   1.800   2.410   6.858 -0.5709  0.7779 -0.2588
  870TIP3    H126805   1.803   2.489   6.803 -1.0109  1.4024  0.5841
  870TIP3    H226806   1.726   2.360   6.823 -2.8015  2.5653  1.5167
  871TIP3   OH226807   4.352   2.624   8.036 -0.2511  0.0972 -0.2618
  871TIP3    H126808   4.348   2.708   8.082 -3.7812 -0.9876  1.7829
  871TIP3    H226809   4.334   2.647   7.944 -0.7992  1.6446  0.2006
  872TIP3   OH226810   6.909   3.071   8.073  0.1707 -0.0526 -0.4585
  872TIP3    H126811   6.978   3.137   8.074 -0.9358  1.1471  0.9035
  872TIP3    H226812   6.903   3.042   8.165 -1.6883  0.5093 -0.3630
  873TIP3   OH226813   4.942   3.114   8.233  0.1399  0.2689  0.0041
  873TIP3    H126814   4.925   3.208   8.236 -0.2516  0.2007 -0.0977
  873TIP3    H226815   4.867   3.077   8.187 -0.6497 -0.3165  1.6743
  874TIP3   OH226816   4.308   2.945   6.744 -0.0380  0.4699 -0.7848
  874TIP3    H126817   4.249   2.895   6.688 -1.0861  2.4752 -1.5754
  874TIP3    H226818   4.252   3.009   6.788  1.1400  0.5542  0.6807
  875TIP3   OH226819   1.777   0.136   8.984  0.1749 -0.0777  0.3608
  875TIP3    H126820   1.715   0.096   8.922  1.4158  0.9278 -1.6153
  875TIP3    H226821   1.742   0.224   8.999  0.8206  0.3124 -0.3589
  876TIP3   OH226822   3.249   7.045   7.371  0.1931 -0.5362  0.1140
  876TIP3    H126823   3.310   6.981   7.334  0.3535 -0.1386 -0.3169
  876TIP3    H226824   3.172   7.040   7.315 -1.3450 -3.0153  2.2407
  877TIP3   OH226825   2.435   5.400   8.452 -0.4581  0.1118 -0.0759
  877TIP3    H126826   2.457   5.486   8.417  1.4564  0.3303  1.4907
  877TIP3    H226827   2.480   5.338   8.395  1.9664  0.4258  1.3685
  878TIP3   OH226828   1.802   7.110   8.490 -0.0610 -0.1849  0.3654
  878TIP3    H126829   1.814   7.150   8.404  0.5849 -1.5605 -0.2038
  878TIP3    H226830   1.709   7.090   8.495 -0.3419  1.0703  0.5372
  879TIP3   OH226831   4.192   2.722   6.592  0.0730 -0.1329 -0.4375
  879TIP3    H126832   4.264   2.666   6.623  0.6704  1.2378  0.7502
  879TIP3    H226833   4.203   2.724   6.496  1.1224 -0.6092 -0.3398
  880TIP3   OH226834   2.172   6.594   8.815  0.2197  0.7903 -0.3484
  880TIP3    H126835   2.166   6.623   8.724 -1.2720  0.6370 -0.3199
  880TIP3    H226836   2.085   6.609   8.851  0.8030  0.8818  1.0809
  881TIP3   OH226837   4.952   3.661   7.625  0.4091 -0.1953  0.0945
  881TIP3    H126838   4.922   3.733   7.570 -0.3902 -0.5849  0.0034
  881TIP3    H226839   4.891   3.589   7.606  1.1407 -0.8683  0.2458
  882TIP3   OH226840   6.937   5.212   8.718  0.1118 -0.3962  0.3309
  882TIP3    H126841   6.850   5.250   8.735  0.5378  0.5801  0.4038
  882TIP3    H226842   6.963   5.174   8.802 -1.2765 -2.9759 -0.2716
  883TIP3   OH226843   0.584   4.392   8.560 -0.1933  0.5453  0.3932
  883TIP3    H126844   0.617   4.424   8.477 -1.2408  1.4098  0.2859
  883TIP3    H226845   0.654   4.337   8.595 -0.2035 -0.8451 -1.6130
  884TIP3   OH226846   4.244   1.770   8.520 -0.0740 -0.5287  0.1449
  884TIP3    H126847   4.301   1.825   8.466  0.7592 -1.1284  0.3835
  884TIP3    H226848   4.289   1.765   8.605 -0.3117 -1.2613  0.2405
  885TIP3   OH226849   4.600   0.240   7.361 -0.0367  0.0049 -0.2036
  885TIP3    H126850   4.534   0.308   7.378  1.3928  1.3545  0.1326
  885TIP3    H226851   4.657   0.242   7.438  0.2608 -1.3263 -0.3747
  886TIP3   OH226852   2.795   4.602   8.087 -0.6473 -0.2307 -0.4689
  886TIP3    H126853   2.831   4.520   8.123  1.3478  1.3928  1.5748
  886TIP3    H226854   2.705   4.605   8.118 -0.6695 -1.5334 -0.3695
  887TIP3   OH226855   1.053   4.391   8.696 -0.1302 -0.6011  0.1853
  887TIP3    H126856   1.135   4.345   8.683  1.5820  2.4403 -0.7721
  887TIP3    H226857   1.047   4.403   8.791  0.6184 -0.7189  0.2533
  888TIP3   OH226858   3.989   0.659   6.391 -0.0708  0.5955  0.0431
  888TIP3    H126859   3.925   0.644   6.461 -0.1387  1.4039  0.1547
  888TIP3    H226860   3.988   0.577   6.341 -0.8204  0.4126  0.3391
  889TIP3   OH226861   0.733   5.918   7.261  0.2186 -0.2629 -0.3314
  889TIP3    H126862   0.747   5.824   7.248  0.0074 -0.3824  0.2564
  889TIP3    H226863   0.645   5.924   7.298  0.5762  0.0838  0.5038
  890TIP3   OH226864   3.290   5.687   8.060  0.3860 -0.3694  0.3091
  890TIP3    H126865   3.384   5.698   8.073 -0.1660  4.6055  2.0569
  890TIP3    H226866   3.279   5.683   7.965  2.2673  1.3747 -0.0431
  891TIP3   OH226867   2.099   0.689   7.988 -0.0594 -0.1245  0.2853
  891TIP3    H126868   2.142   0.774   7.987 -0.3357  0.0597 -2.2865
  891TIP3    H226869   2.160   0.631   7.942 -0.8604 -0.7736  0.0176
  892TIP3   OH226870   5.087   4.752   8.489 -0.2131 -0.7370 -0.1707
  892TIP3    H126871   5.116   4.661   8.500  1.6827 -0.1441  0.1329
  892TIP3    H226872   5.164   4.797   8.456 -0.9017  0.9286  0.4093
  893TIP3   OH226873   4.246   6.018   9.422 -0.5672  0.1665  0.2333
  893TIP3    H126874   4.275   6.053   9.507 -1.9315  0.8804  0.4419
  893TIP3    H226875   4.187   5.946   9.445 -1.8530  1.0831 -0.0295
  894TIP3   OH226876   1.796   6.922   8.939 -0.2456  0.1575 -0.3482
  894TIP3    H126877   1.716   6.869   8.937  0.3331 -0.7231 -0.9288
  894TIP3    H226878   1.866   6.859   8.956  0.4419  0.7402 -0.9438
  895TIP3   OH226879   4.599   1.396   7.554 -0.0437  0.4220 -0.1688
  895TIP3    H126880   4.661   1.466   7.576  0.4210  0.2305 -0.8449
  895TIP3    H226881   4.616   1.328   7.619  1.4960 -0.2486 -1.2153
  896TIP3   OH226882   2.104   3.590   8.398 -0.7127 -0.1096  0.0027
  896TIP3    H126883   2.116   3.497   8.377  0.0734 -0.1857  0.7568
  896TIP3    H226884   2.032   3.590   8.461 -1.2642 -0.1157 -0.6033
  897TIP3   OH226885   3.868   7.168   7.576  0.6747 -0.0297  0.1706
  897TIP3    H126886   3.788   7.159   7.628  0.3432 -1.0921 -0.4961
  897TIP3    H226887   3.892   7.078   7.552  0.4824  0.4363 -2.0053
  898TIP3   OH226888   3.902   4.026   9.008 -0.5674  0.2508  0.5837
  898TIP3    H126889   3.845   4.050   8.936 -0.8142 -0.0607  0.6717
  898TIP3    H226890   3.848   3.970   9.064 -0.8632  1.6579  1.7802
  899TIP3   OH226891   3.745   3.166   7.438 -0.0252 -0.3809  0.0841
  899TIP3    H126892   3.804   3.105   7.394 -0.1116 -0.6606  0.3504
  899TIP3    H226893   3.767   3.252   7.402  0.2836 -0.5346 -0.0934
  900TIP3   OH226894   1.407   5.001   8.802  0.7500 -0.4721 -0.1287
  900TIP3    H126895   1.326   4.982   8.851 -0.8954 -0.6488 -2.7283
  900TIP3    H226896   1.434   5.087   8.834 -2.4717  1.2377 -1.4822
  901TIP3   OH226897   7.561   3.501   8.354 -0.5527  0.9849 -0.2090
  901TIP3    H126898   7.497   3.516   8.284 -1.3669  1.3127  0.5893
  901TIP3    H226899   7.562   3.406   8.365  0.3642  0.8344 -1.3645
  902TIP3   OH226900   5.907   4.242   8.711  0.0188 -0.0533 -0.2653
  902TIP3    H126901   5.963   4.301   8.660 -0.3839  0.0781 -0.5580
  902TIP3    H226902   5.966   4.171   8.738  0.7651  0.9918  0.9792
  903TIP3   OH226903   3.717   5.036   7.610 -0.0098  0.1288 -0.7010
  903TIP3    H126904   3.782   5.055   7.542 -0.4263  1.1048 -0.8420
  903TIP3    H226905   3.754   4.962   7.659  1.0691  0.4752 -0.9716
  904TIP3   OH226906   2.636   4.987   9.102 -0.2346  0.3365 -0.3753
  904TIP3    H126907   2.603   5.016   9.017  1.0130  0.5263 -0.8155
  904TIP3    H226908   2.620   5.060   9.161 -0.2614  0.5706 -0.6724
  905TIP3   OH226909   4.875   5.179   9.448 -0.4665 -0.7098 -0.3854
  905TIP3    H126910   4.916   5.250   9.398  0.2851  0.3106  1.5720
  905TIP3    H226911   4.822   5.224   9.514 -0.5417 -1.9777  0.4551
  906TIP3   OH226912   6.773   4.138   7.711 -0.4089 -0.6971 -0.4795
  906TIP3    H126913   6.713   4.209   7.688  0.4881  0.0242 -0.6594
  906TIP3    H226914   6.728   4.091   7.781 -0.0644  1.4639  1.3238
  907TIP3   OH226915   6.996   1.407   7.911 -0.3211  0.6279 -0.1506
  907TIP3    H126916   6.927   1.447   7.963 -1.2114  1.7031 -2.0556
  907TIP3    H226917   7.010   1.321   7.950 -4.0484 -0.4077 -0.7610
  908TIP3   OH226918   7.604   1.036   8.633  0.6591 -0.0247 -0.5991
  908TIP3    H126919   7.680   0.981   8.613  0.7892 -0.4829  1.0341
  908TIP3    H226920   7.571   1.003   8.717  0.6296  2.2563  0.3538
  909TIP3   OH226921   6.269   3.819   7.682 -0.1340  0.5917  0.4972
  909TIP3    H126922   6.291   3.778   7.766  0.4552  1.7239  0.9121
  909TIP3    H226923   6.343   3.876   7.663  0.5599 -0.8964 -1.6656
  910TIP3   OH226924   6.768   5.628   7.292  0.3453  0.2094 -0.0969
  910TIP3    H126925   6.715   5.592   7.221 -0.8895 -0.9096  1.3155
  910TIP3    H226926   6.800   5.550   7.339 -0.0872  0.9139  1.4136
  911TIP3   OH226927   1.929   1.406   7.082  0.2511  0.8700 -0.2782
  911TIP3    H126928   1.903   1.496   7.063 -2.8266 -0.3188 -2.3434
  911TIP3    H226929   1.879   1.383   7.161 -0.1732  0.5287 -0.6391
  912TIP3   OH226930   5.887   6.037   8.729  0.5608 -0.5588  0.1315
  912TIP3    H126931   5.891   5.969   8.797  3.7920  0.1713  0.8540
  912TIP3    H226932   5.853   6.114   8.774 -2.9328 -1.4821 -0.6441
  913TIP3   OH226933   4.476   1.734   7.553  0.6297 -0.0300 -0.4522
  913TIP3    H126934   4.539   1.668   7.584  0.0363 -1.1405 -1.5074
  913TIP3    H226935   4.401   1.682   7.521  0.8285  1.0493 -2.8855
  914TIP3   OH226936   0.787   5.157   8.107  0.0121  0.2124  0.1000
  914TIP3    H126937   0.880   5.162   8.131  0.0049  0.9729  0.0105
  914TIP3    H226938   0.742   5.198   8.181 -0.2119  0.2998 -0.0851
  915TIP3   OH226939   4.045   5.413   7.642 -0.2489 -0.2957  0.2677
  915TIP3    H126940   4.109   5.429   7.712  0.1018 -1.3929  0.2165
  915TIP3    H226941   4.053   5.320   7.624 -0.6975 -0.1164 -0.9014
  916TIP3   OH226942   2.133   0.061   7.468 -0.2283 -0.3794  0.4308
  916TIP3    H126943   2.177   0.144   7.448 -0.7530 -0.4295 -1.0660
  916TIP3    H226944   2.196   0.013   7.522  1.8604 -0.6654 -2.0335
  917TIP3   OH226945   4.105   1.161   8.485 -0.4785  0.2014  0.1234
  917TIP3    H126946   4.148   1.237   8.446  0.9042 -0.8565 -0.4863
  917TIP3    H226947   4.080   1.190   8.572  1.1103  1.0072  0.3450
  918TIP3   OH226948   1.789   4.564   9.152  0.1238 -0.0892 -0.2459
  918TIP3    H126949   1.795   4.535   9.243  1.8265 -0.0268 -0.3120
  918TIP3    H226950   1.768   4.485   9.102  0.9745 -0.4826  0.0071
  919TIP3   OH226951   2.977   3.974   7.745 -0.4692 -0.0498 -0.4998
  919TIP3    H126952   2.920   4.050   7.734  0.0015  0.1045 -2.0689
  919TIP3    H226953   3.065   4.006   7.726  0.0591 -0.4925  1.0307
  920TIP3   OH226954   3.474   5.203   9.586  0.2439 -0.1119 -0.6444
  920TIP3    H126955   3.555   5.167   9.620 -0.5611 -1.7116 -0.3280
  920TIP3    H226956   3.459   5.156   9.504 -0.8863 -0.6145 -0.1735
  921TIP3   OH226957   1.968   0.658   8.505  0.0362  0.2557  0.0885
  921TIP3    H126958   1.931   0.591   8.448  0.4693 -0.1305  0.2631
  921TIP3    H226959   2.000   0.611   8.582  1.3976  0.5078 -0.2922
  922TIP3   OH226960   2.299   1.723   8.509  0.1841 -0.5716  0.4157
  922TIP3    H126961   2.352   1.644   8.515  0.6615 -0.1404  3.5041
  922TIP3    H226962   2.211   1.696   8.534  0.6016  0.0144  2.6958
  923TIP3   OH226963   6.986   0.554   6.757 -0.2779 -0.2729  0.2929
  923TIP3    H126964   7.023   0.515   6.678 -2.6098 -0.0803 -1.0040
  923TIP3    H226965   6.979   0.480   6.819 -1.7335 -1.3016 -1.0157
  924TIP3   OH226966   7.667   7.157   8.507  0.6405  0.1798 -0.3904
  924TIP3    H126967   7.734   7.225   8.519  1.2326 -0.4475 -0.0894
  924TIP3    H226968   7.585   7.206   8.497  1.1034  0.9514 -0.5266
  925TIP3   OH226969   4.971   5.270   7.334  0.0094  0.4173 -0.1114
  925TIP3    H126970   5.046   5.212   7.321 -0.2400 -0.1025  0.6859
  925TIP3    H226971   4.985   5.307   7.422 -2.1826 -2.0521  1.4275
  926TIP3   OH226972   4.166   4.581   8.481 -0.2487 -0.2283 -0.0575
  926TIP3    H126973   4.150   4.555   8.571 -0.9764 -1.3814 -0.4983
  926TIP3    H226974   4.148   4.503   8.429 -0.8844  0.6895 -1.3004
  927TIP3   OH226975   5.299   7.125   7.095 -0.3894 -0.7887 -1.0161
  927TIP3    H126976   5.214   7.167   7.080  0.6199  1.1977 -1.5185
  927TIP3    H226977   5.335   7.113   7.007  1.5240  2.1710 -0.7711
  928TIP3   OH226978   3.375   1.690   7.777  0.3372 -0.0742 -0.2079
  928TIP3    H126979   3.430   1.735   7.840  2.5200 -2.8093  0.0060
  928TIP3    H226980   3.311   1.642   7.830  1.6751 -1.7400 -0.0210
  929TIP3   OH226981   6.327   7.314   7.226 -0.2428  0.4561  0.0974
  929TIP3    H126982   6.347   7.267   7.145  0.4354 -0.6905  0.8966
  929TIP3    H226983   6.396   7.380   7.233 -0.8334  1.1816 -0.7088
  930TIP3   OH226984   5.959   7.191   8.294  0.3099  0.3143  0.3410
  930TIP3    H126985   6.015   7.138   8.237 -0.9537  1.6353 -2.3261
  930TIP3    H226986   5.999   7.278   8.292 -0.3224  0.6150  0.6360
  931TIP3   OH226987   7.032   4.422   9.026 -0.3944 -0.1042  0.2024
  931TIP3    H126988   7.016   4.511   8.993 -0.8568 -1.0960 -2.5336
  931TIP3    H226989   7.115   4.429   9.073  0.7355  1.4004 -1.8151
  932TIP3   OH226990   5.526   7.450   7.798  0.4355  0.0295  0.1025
  932TIP3    H126991   5.513   7.500   7.879  0.8832 -0.3300  0.4004
  932TIP3    H226992   5.441   7.410   7.781  0.6844 -0.9840  1.1417
  933TIP3   OH226993   2.973   2.515   7.175 -0.3902 -0.1245 -0.2032
  933TIP3    H126994   2.959   2.610   7.181 -0.7201 -0.1486 -0.5705
  933TIP3    H226995   3.051   2.505   7.121 -0.1049 -0.0519  0.1895
  934TIP3   OH226996   3.592   6.916   6.905 -0.3621  0.3447  0.4403
  934TIP3    H126997   3.524   6.953   6.848 -0.3344 -0.4560 -0.1254
  934TIP3    H226998   3.597   6.977   6.978 -1.3267  0.6900  0.2341
  935TIP3   OH226999   0.706   2.430   9.519 -0.8547 -0.4391  0.5923
  935TIP3    H127000   0.775   2.368   9.543 -0.9821 -0.2329  1.5674
  935TIP3    H227001   0.638   2.415   9.584 -1.1484  0.2951  0.4625
  936TIP3   OH227002   5.166   1.915   7.583 -0.1246 -0.3873  0.2214
  936TIP3    H127003   5.252   1.948   7.557 -0.2230  0.3193  0.7564
  936TIP3    H227004   5.182   1.868   7.664 -0.3611  0.4824  0.7889
  937TIP3   OH227005   2.762   6.812   7.865 -0.1265 -0.0015  0.3398
  937TIP3    H127006   2.692   6.866   7.830  1.0688  0.8727 -0.8305
  937TIP3    H227007   2.731   6.783   7.951 -1.9550  0.2105 -0.2222
  938TIP3   OH227008   5.991   0.705   9.005  0.0233 -0.4723  0.0321
  938TIP3    H127009   6.008   0.764   9.078  1.8094 -0.9178  0.0155
  938TIP3    H227010   5.993   0.760   8.927  0.1452 -0.3176  0.1463
  939TIP3   OH227011   3.103   5.707   9.024 -0.1885 -0.6163  0.6425
  939TIP3    H127012   3.161   5.632   9.014  1.9406  1.0998 -0.5120
  939TIP3    H227013   3.159   5.777   9.058 -1.9895  0.6394  1.1933
  940TIP3   OH227014   0.082   5.483   6.561  0.3187 -0.1527 -0.2263
  940TIP3    H127015   0.128   5.540   6.499 -1.5013  0.7634 -0.8314
  940TIP3    H227016   0.121   5.503   6.646  1.5071  0.0367 -0.7916
  941TIP3   OH227017   4.166   0.645   7.185  0.2238 -0.1126 -0.0718
  941TIP3    H127018   4.137   0.600   7.264  0.4794 -0.0263  0.0745
  941TIP3    H227019   4.246   0.691   7.212 -2.0937  3.7436  0.9199
  942TIP3   OH227020   2.189   5.815   7.478 -0.6446 -0.2296  0.8201
  942TIP3    H127021   2.116   5.838   7.535 -2.3728 -1.2897 -0.8466
  942TIP3    H227022   2.195   5.719   7.485  0.5858 -0.1667  0.8963
  943TIP3   OH227023   7.378   3.310   8.570  1.0613  0.0011 -0.0220
  943TIP3    H127024   7.395   3.283   8.480 -1.4633  1.2743 -0.9939
  943TIP3    H227025   7.438   3.383   8.584  0.5960  0.6375 -1.1785
  944TIP3   OH227026   0.613   6.307   9.021 -0.3898 -0.2376  0.1965
  944TIP3    H127027   0.574   6.248   8.957 -0.2205 -0.6282  0.4515
  944TIP3    H227028   0.699   6.329   8.984 -0.8617  0.6788 -0.3984
  945TIP3   OH227029   4.716   1.419   8.841 -0.3398 -0.0396  0.2409
  945TIP3    H127030   4.714   1.332   8.801  0.7775  0.3446 -0.7067
  945TIP3    H227031   4.769   1.408   8.920 -0.3538 -0.2538  0.2221
  946TIP3   OH227032   7.049   1.220   7.208 -0.1882  0.0417 -0.3977
  946TIP3    H127033   7.036   1.225   7.113 -2.0139  0.9520 -0.1589
  946TIP3    H227034   7.045   1.311   7.237 -1.1635 -0.3196  0.6879
  947TIP3   OH227035   0.827   3.955   9.289 -0.2827 -0.2134  0.5756
  947TIP3    H127036   0.923   3.963   9.285 -0.3485  0.0989 -1.3017
  947TIP3    H227037   0.811   3.900   9.366  1.4449 -0.8375  0.5470
  948TIP3   OH227038   0.715   5.022   9.397  0.0364 -0.1772 -0.6502
  948TIP3    H127039   0.771   5.079   9.451 -2.5964  1.9716  0.0614
  948TIP3    H227040   0.776   4.979   9.337  2.5993  0.7205  1.0856
  949TIP3   OH227041   5.409   2.018   7.533  0.3193  0.0532 -0.0887
  949TIP3    H127042   5.413   2.097   7.478  1.2904  0.6270  0.7604
  949TIP3    H227043   5.477   1.961   7.498  3.8291  2.0219  2.7615
  950TIP3   OH227044   4.264   2.971   9.303  0.0477  0.0108 -0.3881
  950TIP3    H127045   4.304   2.888   9.329 -1.4758 -1.3975 -2.2528
  950TIP3    H227046   4.189   2.981   9.361 -1.4248 -1.4509 -1.9180
  951TIP3   OH227047   5.299   6.586   8.330  0.0166  0.3345 -0.3151
  951TIP3    H127048   5.217   6.592   8.378  0.7921  0.2231  1.0733
  951TIP3    H227049   5.330   6.497   8.347  0.7414  0.5895 -0.2684
  952TIP3   OH227050   2.096   3.370   9.034 -0.3610 -0.3181  0.6584
  952TIP3    H127051   2.079   3.427   8.959  0.9152  2.7400  2.5217
  952TIP3    H227052   2.012   3.326   9.049 -1.6292  1.5262 -0.5338
  953TIP3   OH227053   4.032   5.514   7.384 -0.9518 -0.1859  0.3425
  953TIP3    H127054   4.008   5.492   7.474  1.2032  0.8069  1.2315
  953TIP3    H227055   4.104   5.578   7.393 -0.7386  0.0107 -2.0770
  954TIP3   OH227056   3.945   3.698   8.235 -0.0461 -0.6706 -0.0839
  954TIP3    H127057   3.883   3.625   8.248 -0.8949  0.1241  0.4520
  954TIP3    H227058   3.980   3.683   8.148  0.8083 -2.4659  0.5165
  955TIP3   OH227059   0.577   6.504   7.045  0.8420 -0.0430 -0.1333
  955TIP3    H127060   0.505   6.557   7.079  0.7051  1.0283 -1.9895
  955TIP3    H227061   0.559   6.415   7.077  0.2645  0.7224  1.7859
  956TIP3   OH227062   3.209   2.356   8.196  0.5687 -0.1151  0.8063
  956TIP3    H127063   3.191   2.262   8.200  2.2663 -0.4694  0.7950
  956TIP3    H227064   3.303   2.362   8.175  0.8403  1.5679  2.2729
  957TIP3   OH227065   0.286   6.041   9.538 -0.0762  0.2732 -0.6276
  957TIP3    H127066   0.267   6.126   9.498  0.7392  1.3511  1.1280
  957TIP3    H227067   0.200   6.002   9.551 -0.5913  1.4859 -0.1718
  958TIP3   OH227068   7.490   4.206   8.546  0.7314  0.1248 -0.1935
  958TIP3    H127069   7.537   4.186   8.627  1.7740 -1.5023 -1.1298
  958TIP3    H227070   7.414   4.148   8.547  0.7901  0.0434 -0.4112
  959TIP3   OH227071   3.828   5.146   8.229 -0.2661 -0.1755 -0.3372
  959TIP3    H127072   3.794   5.179   8.312 -0.9631  0.3391 -0.8056
  959TIP3    H227073   3.876   5.220   8.191 -1.3642  0.1490 -1.1434
  960TIP3   OH227074   7.230   4.065   8.642  0.5127  0.4209 -0.0210
  960TIP3    H127075   7.203   4.110   8.722  1.7257  0.7002  0.2541
  960TIP3    H227076   7.231   3.973   8.666  1.9710  0.5780  0.6681
  961TIP3   OH227077   3.973   1.800   7.459 -0.1200  0.7173  0.3409
  961TIP3    H127078   3.967   1.786   7.365  0.8480 -0.3490  0.4161
  961TIP3    H227079   3.890   1.768   7.494 -0.8569  1.9624 -0.2239
  962TIP3   OH227080   0.132   5.508   8.026  0.2342  0.2354  0.0811
  962TIP3    H127081   0.169   5.446   7.964 -1.2820 -0.1473 -0.4822
  962TIP3    H227082   0.037   5.496   8.019 -0.0719  2.0364  0.5571
  963TIP3   OH227083   6.792   4.954   9.134  0.7755 -0.1617  0.5633
  963TIP3    H127084   6.840   4.988   9.209  1.6734 -0.3819  0.0959
  963TIP3    H227085   6.786   4.860   9.149 -0.1322 -0.0598  0.9562
  964TIP3   OH227086   7.535   0.816   8.401  0.1692 -0.6277 -0.1397
  964TIP3    H127087   7.537   0.892   8.343  1.5357 -0.0426  0.6161
  964TIP3    H227088   7.576   0.847   8.482  0.6144 -2.1269  0.2391
  965TIP3   OH227089   4.445   6.585   8.545  0.7608 -0.0091  0.1470
  965TIP3    H127090   4.420   6.669   8.506 -1.2251 -0.7634 -0.3516
  965TIP3    H227091   4.516   6.607   8.605  1.4165  1.7570 -1.1825
  966TIP3   OH227092   2.646   5.400   8.015  0.1193 -0.2914  0.4465
  966TIP3    H127093   2.739   5.402   7.993  0.5216  1.0959  2.0955
  966TIP3    H227094   2.606   5.348   7.944  2.5601 -3.8680  1.4166
  967TIP3   OH227095   3.379   6.926   9.675 -0.6379 -0.0322  0.6064
  967TIP3    H127096   3.292   6.942   9.638  0.5938 -0.7744 -3.0236
  967TIP3    H227097   3.427   7.007   9.657  0.3877 -0.9158 -0.9137
  968TIP3   OH227098   2.114   6.107   7.281  0.1612 -0.2994 -0.0544
  968TIP3    H127099   2.055   6.141   7.214 -0.4724  0.5214  0.8785
  968TIP3    H227100   2.058   6.095   7.358  0.6921 -2.0547  0.1002
  969TIP3   OH227101   6.632   0.166   8.052 -0.2969 -0.1831 -0.2935
  969TIP3    H127102   6.647   0.230   8.122 -0.1032 -0.5524  0.0042
  969TIP3    H227103   6.549   0.125   8.075 -0.5497  0.1422 -0.6236
  970TIP3   OH227104   7.138   0.119   9.125  0.3576 -0.0348  0.2834
  970TIP3    H127105   7.167   0.051   9.186  2.5946 -0.2395 -0.8829
  970TIP3    H227106   7.215   0.135   9.070 -0.5035  2.5340 -0.3093
  971TIP3   OH227107   3.430   0.938   8.955 -0.2762  0.4727 -0.2990
  971TIP3    H127108   3.418   0.999   9.028  1.3221  0.2045  0.2224
  971TIP3    H227109   3.450   0.995   8.880  2.1686  0.6219  0.3911
  972TIP3   OH227110   7.118   7.250   6.493 -0.1177 -0.0526 -0.1373
  972TIP3    H127111   7.201   7.298   6.492  0.0889 -0.4121 -0.0842
  972TIP3    H227112   7.064   7.296   6.428 -0.5119  1.3033  1.1080
  973TIP3   OH227113   5.587   5.809   8.733  0.3896  0.0625  0.0559
  973TIP3    H127114   5.568   5.845   8.646 -0.8643 -0.5719  0.0428
  973TIP3    H227115   5.518   5.844   8.789  0.6851 -0.2245  0.6109
  974TIP3   OH227116   1.482   7.491   7.856 -0.0884 -0.3958 -0.0554
  974TIP3    H127117   1.401   7.454   7.892 -0.9833  1.5666  0.0680
  974TIP3    H227118   1.453   7.570   7.809  1.9104  1.2198  1.2829
  975TIP3   OH227119   0.343   5.662   8.120  0.1523  0.4457  0.2036
  975TIP3    H127120   0.278   5.593   8.107  0.5260  0.1385 -0.0997
  975TIP3    H227121   0.323   5.727   8.053  0.5226  0.0637 -0.2863
  976TIP3   OH227122   1.697   4.292   7.192  0.3430  0.1175 -0.4317
  976TIP3    H127123   1.658   4.213   7.155  0.2783  0.3506 -0.8688
  976TIP3    H227124   1.757   4.323   7.125 -0.6176  1.1843 -0.8359
  977TIP3   OH227125   2.613   2.839   7.878 -0.0670  0.0908  0.4753
  977TIP3    H127126   2.581   2.907   7.818  0.2596 -0.3338 -0.1803
  977TIP3    H227127   2.577   2.758   7.844  0.6905 -0.2403  0.4436
  978TIP3   OH227128   3.057   6.486   8.265 -0.0549 -0.1396  0.0561
  978TIP3    H127129   3.005   6.565   8.280  0.3789 -0.0013  0.9002
  978TIP3    H227130   3.122   6.486   8.335 -0.1168 -1.3077  0.1377
  979TIP3   OH227131   0.236   0.090   9.075  0.4698  0.3381 -0.3943
  979TIP3    H127132   0.326   0.085   9.043  0.6394  1.2102 -0.0621
  979TIP3    H227133   0.231   0.172   9.123 -0.6516  0.5506 -0.8338
  980TIP3   OH227134   2.989   4.631   7.104 -0.1953 -0.2211  0.6188
  980TIP3    H127135   2.932   4.586   7.041  0.7153  2.9735 -2.9250
  980TIP3    H227136   2.939   4.708   7.130  0.3851 -0.2933  2.0221
  981TIP3   OH227137   1.744   7.190   8.994 -0.7241 -0.6925  0.1724
  981TIP3    H127138   1.759   7.096   8.984  4.1741 -0.1667 -0.3187
  981TIP3    H227139   1.765   7.209   9.085  0.1687  0.0574 -0.1623
  982TIP3   OH227140   2.569   1.922   8.358  0.4468 -0.1645 -0.1032
  982TIP3    H127141   2.623   1.951   8.284 -1.1287  0.2220 -1.1433
  982TIP3    H227142   2.483   1.907   8.320 -0.3091 -0.3053  1.6056
  983TIP3   OH227143   0.685   5.997   8.927  0.3716  0.4023 -0.1724
  983TIP3    H127144   0.773   5.994   8.890  0.8530  1.5213  0.8374
  983TIP3    H227145   0.698   5.999   9.021 -0.7703 -0.1007  0.0186
  984TIP3   OH227146   5.868   1.991   8.982 -0.1037 -0.0062  0.3676
  984TIP3    H127147   5.858   1.980   8.887  0.2982 -1.4915  0.4812
  984TIP3    H227148   5.840   2.081   8.998  0.7790  0.6131 -1.2949
  985TIP3   OH227149   7.290   7.038   7.691 -0.0300  0.1822 -0.3245
  985TIP3    H127150   7.216   7.049   7.632  0.5197 -1.1650 -1.3129
  985TIP3    H227151   7.276   6.952   7.731 -0.6918  1.2938  2.0011
  986TIP3   OH227152   5.810   5.408   8.888 -0.7162  0.3811  0.4046
  986TIP3    H127153   5.846   5.413   8.976  0.1270  1.2844  0.0238
  986TIP3    H227154   5.789   5.499   8.865 -2.2243  0.0153  0.1851
  987TIP3   OH227155   1.316   1.113   8.787 -0.0567  0.1144 -0.0240
  987TIP3    H127156   1.380   1.056   8.744 -0.0250  0.2577 -0.1679
  987TIP3    H227157   1.267   1.055   8.844  1.8418  0.3874  2.0143
  988TIP3   OH227158   0.920   0.003   8.072  0.8447 -0.4590 -0.1534
  988TIP3    H127159   0.994   0.060   8.050 -0.2857 -0.0457 -3.5578
  988TIP3    H227160   0.950  -0.085   8.050  1.2983 -0.7305  1.4392
  989TIP3   OH227161   3.594   1.533   7.499  0.1933  0.3843 -0.1252
  989TIP3    H127162   3.603   1.437   7.494 -0.5751  0.2893  0.1657
  989TIP3    H227163   3.624   1.564   7.413 -0.8967 -0.2357 -0.7510
  990TIP3   OH227164   6.877   6.601   7.032 -0.1362  0.4102 -0.0655
  990TIP3    H127165   6.866   6.692   7.056  1.1851  0.1424  1.8523
  990TIP3    H227166   6.795   6.558   7.057  0.1870  0.6538  1.5230
  991TIP3   OH227167   6.070   2.149   6.807  0.8678  0.0761  0.3512
  991TIP3    H127168   6.017   2.069   6.815  1.3968 -0.1873  1.4180
  991TIP3    H227169   6.157   2.118   6.784  0.6207  0.4999 -1.2254
  992TIP3   OH227170   4.587   6.837   7.672  0.3470 -0.0311  0.0165
  992TIP3    H127171   4.549   6.814   7.587  3.1333 -0.3908 -1.2363
  992TIP3    H227172   4.635   6.759   7.698  1.1661  0.7667  0.9681
  993TIP3   OH227173   5.298   4.133   7.532 -0.0600  0.3041  0.4232
  993TIP3    H127174   5.211   4.103   7.504 -0.9276  0.0880  3.0855
  993TIP3    H227175   5.352   4.054   7.531 -0.6090 -0.0994  1.1717
  994TIP3   OH227176   0.848   7.577   6.615  0.2790 -0.0897 -0.9366
  994TIP3    H127177   0.830   7.610   6.703 -0.3317  0.6437 -1.3224
  994TIP3    H227178   0.903   7.500   6.629  1.1883  0.7044  0.0282
  995TIP3   OH227179   6.489   6.437   7.547 -0.0696 -0.1597  0.4837
  995TIP3    H127180   6.458   6.450   7.457  1.8678 -0.1293 -0.2274
  995TIP3    H227181   6.409   6.434   7.599 -1.2155  0.8521 -1.0999
  996TIP3   OH227182   5.261   3.861   9.324 -0.5196  0.0619 -0.1636
  996TIP3    H127183   5.284   3.948   9.357 -0.3537 -1.1466  3.3282
  996TIP3    H227184   5.166   3.866   9.309 -0.5231  0.8266  0.0709
  997TIP3   OH227185   2.983   5.423   9.506  0.1957 -0.2439  0.2296
  997TIP3    H127186   2.934   5.345   9.533  0.8200 -1.2946 -1.5035
  997TIP3    H227187   2.944   5.447   9.422  2.7061 -1.2298 -1.3059
  998TIP3   OH227188   5.097   5.889   8.680  0.1351  0.6211  0.1711
  998TIP3    H127189   5.097   5.921   8.770 -0.1994  1.9108 -0.2707
  998TIP3    H227190   5.005   5.872   8.661  0.1738  0.6261 -0.0211
  999TIP3   OH227191   4.184   7.089   9.466 -0.2900 -0.1333  0.0908
  999TIP3    H127192   4.162   7.103   9.374  1.1139 -1.3356 -0.4783
  999TIP3    H227193   4.229   7.169   9.492 -1.6474  0.6670  0.0887
 1000TIP3   OH227194   6.033   3.819   9.448 -0.1372  0.1077 -0.3466
 1000TIP3    H127195   6.065   3.747   9.394 -0.3499  0.6389 -1.1989
 1000TIP3    H227196   6.050   3.791   9.538 -0.5572 -1.1584 -0.6482
 1001TIP3   OH227197   1.927   0.251   9.405 -0.0925 -0.4284  0.2338
 1001TIP3    H127198   1.847   0.273   9.454  0.3409 -1.4144  1.4405
 1001TIP3    H227199   1.895   0.224   9.319 -1.1515 -1.4524  0.9080
 1002TIP3   OH227200   4.348   4.008   8.752 -0.8067  0.1783 -0.2588
 1002TIP3    H127201   4.402   3.936   8.786 -1.5688 -0.5959 -0.6447
 1002TIP3    H227202   4.405   4.053   8.690  0.4067  1.2450  1.5260
 1003TIP3   OH227203   3.939   1.561   8.013 -0.3414 -0.0080  0.0920
 1003TIP3    H127204   3.907   1.480   7.971 -0.5259  1.2750 -2.4826
 1003TIP3    H227205   4.034   1.554   8.009 -0.2801  1.1376 -3.0390
 1004TIP3   OH227206   2.217   5.524   7.502  0.4081 -0.2615 -0.3351
 1004TIP3    H127207   2.146   5.502   7.561 -1.8948  3.1796 -1.5416
 1004TIP3    H227208   2.265   5.442   7.490 -1.4483 -2.0082  2.9493
 1005TIP3   OH227209   4.956   6.529   8.842 -0.1307 -0.1173  0.2136
 1005TIP3    H127210   5.012   6.599   8.875  0.0435  0.3578 -1.0419
 1005TIP3    H227211   4.907   6.499   8.919 -0.8872  2.0002  0.5980
 1006TIP3   OH227212   7.517   2.535   7.572 -0.5663  0.1022  0.2880
 1006TIP3    H127213   7.533   2.574   7.658  0.7991 -0.5685  0.3720
 1006TIP3    H227214   7.510   2.441   7.589 -4.0192  0.2082  0.1163
 1007TIP3   OH227215   3.841   6.482   8.045  0.4517 -0.4437 -0.2931
 1007TIP3    H127216   3.849   6.407   7.986 -0.6536 -0.2400 -0.7111
 1007TIP3    H227217   3.747   6.500   8.049  0.6626  0.6078  0.2095
 1008TIP3   OH227218   2.131   7.068   7.676  0.3351  0.5832 -0.0033
 1008TIP3    H127219   2.151   7.133   7.743  1.1542  0.1133  0.2276
 1008TIP3    H227220   2.112   6.988   7.724 -3.8450  1.3040 -0.0995
 1009TIP3   OH227221   3.982   1.020   7.106  0.2873 -0.4857 -0.0526
 1009TIP3    H127222   4.009   1.096   7.158 -1.7143  0.1980  0.1042
 1009TIP3    H227223   3.936   0.964   7.168 -0.1626 -0.7428 -0.6040
 1010TIP3   OH227224   2.490   2.105   7.846  0.3930  0.1261 -0.4146
 1010TIP3    H127225   2.484   2.092   7.941 -0.1410 -0.6040 -0.5400
 1010TIP3    H227226   2.403   2.081   7.813  1.2644 -2.0407 -1.3460
 1011TIP3   OH227227   5.561   2.001   8.207 -0.4986  0.0444 -0.0297
 1011TIP3    H127228   5.586   1.982   8.116 -0.2799 -0.1783  0.0749
 1011TIP3    H227229   5.473   1.965   8.215 -0.7451  0.5704 -0.3165
 1012TIP3   OH227230   4.979   2.696   9.493  0.1677 -0.0983  0.4476
 1012TIP3    H127231   5.001   2.702   9.400 -0.8794  0.0100  0.2022
 1012TIP3    H227232   4.922   2.620   9.500  0.6354 -0.4064  1.0923
 1013TIP3   OH227233   2.141   0.779   9.417  0.1062  0.3020  0.1414
 1013TIP3    H127234   2.074   0.840   9.447 -2.1374 -1.5536 -0.8263
 1013TIP3    H227235   2.092   0.706   9.379  2.6872 -1.3740 -0.2000
 1014TIP3   OH227236   5.910   7.362   7.693 -0.0404 -0.3067 -0.4221
 1014TIP3    H127237   5.928   7.295   7.759 -1.2372  0.9189  1.2369
 1014TIP3    H227238   5.939   7.444   7.734 -0.5426  0.4427 -1.5245
 1015TIP3   OH227239   4.328   6.819   8.713  0.2119  0.1560 -0.2813
 1015TIP3    H127240   4.356   6.755   8.778  2.7173  0.2857 -1.1258
 1015TIP3    H227241   4.288   6.766   8.644 -0.5531 -0.1719  0.3952
 1016TIP3   OH227242   6.573   3.285   7.849 -0.4852 -0.1755 -0.1584
 1016TIP3    H127243   6.524   3.230   7.910  0.2137 -0.6837 -0.0421
 1016TIP3    H227244   6.656   3.304   7.894  0.4405 -1.3222 -1.2916
 1017TIP3   OH227245   4.312   0.417   8.152 -0.7663  0.1404  0.0689
 1017TIP3    H127246   4.262   0.457   8.223 -0.0366  1.1133  0.0602
 1017TIP3    H227247   4.247   0.397   8.084 -1.2014  1.0285  0.2106
 1018TIP3   OH227248   7.106   5.593   9.511  0.0498 -1.0648 -0.3440
 1018TIP3    H127249   7.167   5.528   9.546  0.6276 -0.6158 -0.5203
 1018TIP3    H227250   7.156   5.640   9.445  0.0636  0.4532  0.6966
 1019TIP3   OH227251   1.468   0.929   8.388 -0.0969 -0.4481  0.0409
 1019TIP3    H127252   1.517   1.010   8.378 -0.9062 -0.0876 -1.0756
 1019TIP3    H227253   1.533   0.860   8.373 -0.0352  0.0281 -2.0756
 1020TIP3   OH227254   0.652   0.967   8.865  0.4508 -0.2609  0.5329
 1020TIP3    H127255   0.588   0.955   8.936  0.2839  1.1633  0.6552
 1020TIP3    H227256   0.680   1.058   8.874  0.5649 -0.1098 -1.1331
 1021TIP3   OH227257   1.338   1.579   8.512 -0.2410 -0.2482 -0.2218
 1021TIP3    H127258   1.334   1.538   8.425  0.8470 -2.3137  0.6242
 1021TIP3    H227259   1.253   1.560   8.551  0.3411 -2.0925  0.2605
 1022TIP3   OH227260   4.376   1.162   7.384 -0.3136 -0.1488 -0.0269
 1022TIP3    H127261   4.436   1.223   7.428 -1.6563  0.6656  0.7642
 1022TIP3    H227262   4.433   1.099   7.341  1.1001  0.1106  1.3694
 1023TIP3   OH227263   2.342   7.374   7.596  0.1663 -0.1483 -0.5533
 1023TIP3    H127264   2.321   7.340   7.683 -1.0280  0.7163 -0.4686
 1023TIP3    H227265   2.257   7.384   7.553  0.3681  2.9210 -0.4538
 1024TIP3   OH227266   3.694   5.965   8.200  0.0202 -0.2514  0.3488
 1024TIP3    H127267   3.750   5.932   8.270  0.7638  1.7630  0.7839
 1024TIP3    H227268   3.616   5.997   8.244 -0.2906 -0.5943  0.0511
 1025TIP3   OH227269   5.480   5.696   9.091 -0.8434  0.5017 -0.4144
 1025TIP3    H127270   5.529   5.624   9.131 -0.0335  1.1204 -0.2549
 1025TIP3    H227271   5.444   5.744   9.166 -0.4245  0.9116 -0.4733
 1026TIP3   OH227272   3.140   3.042   7.154  0.2642 -0.1079  0.2319
 1026TIP3    H127273   3.129   2.967   7.212  0.2391  0.5548  1.1051
 1026TIP3    H227274   3.231   3.036   7.124 -0.2240 -1.4476 -1.1027
 1027TIP3   OH227275   1.109   7.168   9.095  0.6701 -0.3494  0.1086
 1027TIP3    H127276   1.135   7.237   9.033  0.6747  0.4464  0.9838
 1027TIP3    H227277   1.160   7.092   9.067  0.1338 -0.2222 -1.3166
 1028TIP3   OH227278   2.647   1.003   7.161 -0.2167  0.0292  0.0926
 1028TIP3    H127279   2.562   0.962   7.147 -0.0474 -0.0429 -0.8256
 1028TIP3    H227280   2.690   0.998   7.075  1.0287 -0.6595  0.7303
 1029TIP3   OH227281   1.767   2.045   8.006  0.3436  0.4184 -0.0652
 1029TIP3    H127282   1.706   2.076   8.072 -1.5701 -0.5040 -1.3015
 1029TIP3    H227283   1.713   2.029   7.929  1.8899 -1.8222 -0.7920
 1030TIP3   OH227284   5.560   0.594   8.592  0.1862  0.4348 -0.0049
 1030TIP3    H127285   5.530   0.533   8.524 -1.2072  1.8276 -0.7011
 1030TIP3    H227286   5.623   0.650   8.547  2.6824 -1.3903  1.0255
 1031TIP3   OH227287   3.755   5.847   7.704 -0.0415  0.1223  0.6017
 1031TIP3    H127288   3.712   5.857   7.789 -1.7026 -0.2826 -0.1347
 1031TIP3    H227289   3.784   5.756   7.702 -0.9578 -0.1776  0.3457
 1032TIP3   OH227290   7.120   1.364   9.050  0.2571  0.1651 -0.1708
 1032TIP3    H127291   7.049   1.322   9.002  0.8928 -1.3235  0.1024
 1032TIP3    H227292   7.199   1.316   9.022  1.1336  1.6362 -0.3237
 1033TIP3   OH227293   3.638   3.289   9.507 -0.1455 -0.3137  0.0176
 1033TIP3    H127294   3.557   3.331   9.480 -0.9107 -1.4203  0.4943
 1033TIP3    H227295   3.695   3.295   9.431 -0.2293  1.5258  0.0681
 1034TIP3   OH227296   0.407   7.294   7.396  0.4821 -0.3892  0.0306
 1034TIP3    H127297   0.424   7.203   7.370  0.0057 -0.3195 -0.5412
 1034TIP3    H227298   0.471   7.311   7.464 -0.7590 -1.8656  1.6875
 1035TIP3   OH227299   2.001   0.897   9.157  0.3362  0.2439  0.5699
 1035TIP3    H127300   2.044   0.916   9.073 -0.0092  1.5033  0.6541
 1035TIP3    H227301   1.931   0.961   9.163  0.9513  0.8280  2.2593
 1036TIP3   OH227302   0.875   1.747   8.693  0.3892 -0.0453  0.1691
 1036TIP3    H127303   0.961   1.757   8.734  0.1906 -0.4996  0.7024
 1036TIP3    H227304   0.825   1.822   8.724  0.5297  0.1126  0.0156
 1037TIP3   OH227305   6.090   0.887   8.487 -0.3825  0.8424  0.2479
 1037TIP3    H127306   6.097   0.812   8.546 -1.0307  1.3617  1.0003
 1037TIP3    H227307   6.130   0.857   8.406  1.6073  0.5026  1.2972
 1038TIP3   OH227308   6.423   3.741   8.327  0.3692  0.2565  0.1279
 1038TIP3    H127309   6.434   3.686   8.250  0.2834  0.3673  0.0367
 1038TIP3    H227310   6.506   3.732   8.375  0.0627 -0.5621  0.5147
 1039TIP3   OH227311   4.316   5.156   7.492 -0.2750 -0.3128  0.2894
 1039TIP3    H127312   4.244   5.112   7.447 -0.5907 -1.0191  1.4433
 1039TIP3    H227313   4.361   5.086   7.540  0.8354  0.2149  0.0416
 1040TIP3   OH227314   5.891   1.014   7.740  0.1368  0.5307  0.4779
 1040TIP3    H127315   5.804   1.047   7.721  0.6177  1.3281 -0.4345
 1040TIP3    H227316   5.934   1.085   7.788 -0.0959 -0.3279  2.0151
 1041TIP3   OH227317   7.441   0.127   7.529 -0.8134 -0.7029  0.1978
 1041TIP3    H127318   7.349   0.117   7.503 -0.7528 -0.8647  0.0348
 1041TIP3    H227319   7.440   0.192   7.598 -1.1761 -1.4785  0.9425
 1042TIP3   OH227320   1.817   2.475   8.525 -0.2965  0.0833  0.1134
 1042TIP3    H127321   1.770   2.555   8.507  0.0636  0.5483  1.1322
 1042TIP3    H227322   1.890   2.502   8.582  0.1390 -0.8781  0.0410
 1043TIP3   OH227323   5.311   6.913   8.986  0.3930  0.6734 -0.1713
 1043TIP3    H127324   5.314   6.956   9.072 -3.1851 -0.8858  0.9324
 1043TIP3    H227325   5.304   6.984   8.923 -2.7612  1.9047  1.3801
 1044TIP3   OH227326   0.835   5.176   7.840 -0.0206 -1.1268 -0.8394
 1044TIP3    H127327   0.796   5.188   7.926  1.0022  1.1337 -0.6316
 1044TIP3    H227328   0.919   5.134   7.857  0.4509 -0.1297 -0.6493
 1045TIP3   OH227329   0.299   0.568   7.491 -0.1618 -0.4526 -0.1120
 1045TIP3    H127330   0.312   0.608   7.405  0.5156  0.5135  0.4156
 1045TIP3    H227331   0.221   0.514   7.481  0.7762 -1.6080 -1.7721
 1046TIP3   OH227332   1.450   6.416   8.890  0.3101  0.0240 -0.7090
 1046TIP3    H127333   1.400   6.374   8.821  0.0160  0.3204 -0.6789
 1046TIP3    H227334   1.484   6.344   8.944 -1.5031 -0.1511  0.2883
 1047TIP3   OH227335   2.784   1.484   6.725 -0.2154  0.1615  0.0596
 1047TIP3    H127336   2.860   1.433   6.697 -1.2637 -0.9964 -0.7253
 1047TIP3    H227337   2.748   1.521   6.645 -0.7595  0.3382  0.3799
 1048TIP3   OH227338   1.908   4.864   7.874 -0.0553  0.1449  0.4055
 1048TIP3    H127339   1.919   4.806   7.949 -1.1043 -1.8014 -0.8374
 1048TIP3    H227340   1.814   4.882   7.870 -0.3897 -1.6359 -1.6267
 1049TIP3   OH227341   3.863   2.089   8.956 -0.2775 -0.9772  0.5626
 1049TIP3    H127342   3.909   2.132   9.028 -0.8359 -1.2930  1.1159
 1049TIP3    H227343   3.933   2.048   8.904  0.1758 -0.2288  0.5774
 1050TIP3   OH227344   1.472   7.026   7.240 -0.5068 -0.2624 -0.3971
 1050TIP3    H127345   1.426   7.084   7.179 -1.6848 -0.5040  0.2304
 1050TIP3    H227346   1.407   6.959   7.262  0.7079 -1.6326 -0.8311
 1051TIP3   OH227347   7.050   4.935   9.293  0.6041 -0.7807  0.0163
 1051TIP3    H127348   7.142   4.940   9.268  0.9578 -1.6759  1.0546
 1051TIP3    H227349   7.037   5.011   9.350  0.7870 -0.8238  0.1167
 1052TIP3   OH227350   2.334   6.798   9.125 -0.1866 -0.1117  0.1597
 1052TIP3    H127351   2.254   6.775   9.078  0.2256 -2.6748  0.5748
 1052TIP3    H227352   2.373   6.867   9.071 -1.7132 -0.1303 -1.0746
 1053TIP3   OH227353   6.087   3.523   9.455  0.2387  0.2626 -0.1222
 1053TIP3    H127354   6.176   3.553   9.436  0.4482  0.1235  0.5969
 1053TIP3    H227355   6.092   3.428   9.453 -0.3331  0.2301 -1.9751
 1054TIP3   OH227356   1.493   2.538   8.424  0.2797  0.1612 -0.1210
 1054TIP3    H127357   1.548   2.469   8.386 -0.1844 -1.0498  1.3090
 1054TIP3    H227358   1.554   2.592   8.474  0.6293  0.7683 -1.1646
 1055TIP3   OH227359   0.853   5.778   7.535  0.5386 -0.0552 -0.6437
 1055TIP3    H127360   0.818   5.723   7.464 -0.5086 -0.3761  0.0921
 1055TIP3    H227361   0.948   5.768   7.528  0.3889 -2.4812 -0.1668
 1056TIP3   OH227362   6.245   4.879   7.667 -0.1506 -0.5278 -0.1698
 1056TIP3    H127363   6.180   4.921   7.611 -0.2666 -1.0259 -0.4163
 1056TIP3    H227364   6.237   4.785   7.647  1.1326 -0.5333 -0.7471
 1057TIP3   OH227365   7.659   2.314   7.908 -0.2947 -0.3820  0.7762
 1057TIP3    H127366   7.630   2.281   7.993  0.7221 -1.4588  0.7226
 1057TIP3    H227367   7.721   2.383   7.929 -0.5452 -0.1933  0.9004
 1058TIP3   OH227368   4.280   1.136   7.651  0.1226  0.4489  0.1568
 1058TIP3    H127369   4.271   1.143   7.556  0.3422  2.3627  0.2445
 1058TIP3    H227370   4.269   1.225   7.683  0.1097 -0.1531  1.9424
 1059TIP3   OH227371   0.095   2.657   8.689 -0.3361  0.1902 -0.1782
 1059TIP3    H127372   0.028   2.608   8.737 -0.0883 -0.8276 -0.8279
 1059TIP3    H227373   0.141   2.590   8.639  1.4160  0.8153  0.5387
 1060TIP3   OH227374   4.161   0.774   8.061 -0.2900  0.0085  0.8011
 1060TIP3    H127375   4.250   0.741   8.075 -0.8053 -1.4203  0.9430
 1060TIP3    H227376   4.173   0.863   8.029  1.2208 -0.4480 -0.0119
 1061TIP3   OH227377   3.133   0.884   9.590  0.2497 -0.3002  0.3095
 1061TIP3    H127378   3.194   0.958   9.595  0.1474 -0.3116  3.3502
 1061TIP3    H227379   3.048   0.921   9.614 -0.0613 -1.1319  0.5306
 1062TIP3   OH227380   4.481   1.638   7.198 -0.3915 -0.3608 -0.0863
 1062TIP3    H127381   4.477   1.651   7.103 -1.6456 -0.5357 -0.0825
 1062TIP3    H227382   4.550   1.573   7.211 -0.2058 -0.3283 -0.8860
 1063TIP3   OH227383   4.148   1.414   8.420 -0.4440 -0.4630  0.0326
 1063TIP3    H127384   4.098   1.486   8.382  1.1457  0.2526 -0.7553
 1063TIP3    H227385   4.225   1.454   8.458  1.1288 -1.8215 -1.5348
 1064TIP3   OH227386   2.141   1.687   7.847 -0.2146  0.9308 -0.3891
 1064TIP3    H127387   2.086   1.646   7.914  1.2572 -0.3620  0.0869
 1064TIP3    H227388   2.208   1.621   7.827  1.2622  2.4877 -0.8192
 1065TIP3   OH227389   3.184   1.687   8.193 -0.4360  0.8312 -0.7762
 1065TIP3    H127390   3.251   1.664   8.128  0.3016  1.6193 -0.3131
 1065TIP3    H227391   3.208   1.635   8.271 -0.6148  0.7952 -0.7451
 1066TIP3   OH227392   7.599   3.759   7.577  1.0859  0.1841  0.4740
 1066TIP3    H127393   7.582   3.797   7.491  0.9443  1.7327  1.1437
 1066TIP3    H227394   7.613   3.666   7.561 -0.4246  0.1848 -1.0262
 1067TIP3   OH227395   4.363   0.451   7.642 -0.1981  0.8877 -0.6375
 1067TIP3    H127396   4.377   0.505   7.721  0.3886  0.3104 -0.3408
 1067TIP3    H227397   4.448   0.448   7.600 -0.2947  0.4050 -0.7970
 1068TIP3   OH227398   3.418   4.679   7.266  0.2892 -0.5277  0.0223
 1068TIP3    H127399   3.476   4.734   7.213  1.0239 -1.7225 -0.4619
 1068TIP3    H227400   3.339   4.731   7.278  0.4241  0.0853 -1.5888
 1069TIP3   OH227401   0.563   5.414   7.425 -0.5543  0.1117  0.6919
 1069TIP3    H127402   0.599   5.378   7.507 -0.2548 -1.5029 -0.1055
 1069TIP3    H227403   0.544   5.337   7.372 -0.1851  1.1448 -0.9994
 1070TIP3   OH227404   3.648   0.140   7.772 -0.2788  0.4281 -0.0564
 1070TIP3    H127405   3.707   0.080   7.727 -1.6144 -0.8750 -0.1481
 1070TIP3    H227406   3.705   0.207   7.809  1.3021 -1.0109  0.2162
 1071TIP3   OH227407   5.318   2.270   7.820 -0.7602  0.2828 -0.8936
 1071TIP3    H127408   5.381   2.200   7.835 -0.9716  0.1742 -0.4840
 1071TIP3    H227409   5.363   2.332   7.764 -0.3717  0.0920 -0.7928
 1072TIP3   OH227410   2.970   4.672   9.297  0.3133  0.2648 -0.0618
 1072TIP3    H127411   2.962   4.753   9.246  0.3517 -0.2127 -0.8269
 1072TIP3    H227412   3.045   4.626   9.259 -0.5978 -0.8160 -0.5868
 1073TIP3   OH227413   0.486   2.610   7.044 -0.0217  0.1742 -0.8044
 1073TIP3    H127414   0.423   2.638   6.977  0.8527  0.8501 -1.3736
 1073TIP3    H227415   0.500   2.688   7.097  0.0043 -0.1005 -0.4066
 1074TIP3   OH227416   1.369   1.967   7.409  0.1757  0.7149  0.0993
 1074TIP3    H127417   1.433   2.018   7.359  1.0968  0.5244  1.0508
 1074TIP3    H227418   1.381   1.996   7.500 -0.7518  0.3119  0.3654
 1075TIP3   OH227419   4.151   5.460   9.105  0.1825  0.7818 -0.0296
 1075TIP3    H127420   4.243   5.447   9.084  0.4830  1.2861  0.8975
 1075TIP3    H227421   4.111   5.373   9.098  1.3491 -0.0421  2.4039
 1076TIP3   OH227422   4.521   2.248   9.759 -0.1168  0.1961  0.5936
 1076TIP3    H127423   4.471   2.264   9.679  1.8442 -0.8575 -0.9155
 1076TIP3    H227424   4.482   2.168   9.795  0.2139 -0.4343 -0.3953
 1077TIP3   OH227425   0.743   0.714   8.700 -0.4490 -0.6391 -0.1961
 1077TIP3    H127426   0.740   0.714   8.604 -1.0678 -0.9706 -0.1869
 1077TIP3    H227427   0.744   0.806   8.724 -0.4146 -0.5517 -0.5219
 1078TIP3   OH227428   0.035   2.488   6.954 -0.2228  0.1089 -0.1265
 1078TIP3    H127429   0.062   2.400   6.980  1.5842  1.1905  1.9526
 1078TIP3    H227430   0.110   2.523   6.905 -1.0867  0.3754 -1.3033
 1079TIP3   OH227431   2.729   0.384   9.542  0.5739  0.1260 -0.2792
 1079TIP3    H127432   2.680   0.395   9.624  0.0741  0.7673 -0.6517
 1079TIP3    H227433   2.702   0.459   9.488 -1.5772 -1.9265 -2.3016
 1080TIP3   OH227434   2.827   1.537   9.476  0.0974  0.7996  0.5119
 1080TIP3    H127435   2.790   1.625   9.469  1.2235  1.3177  0.8951
 1080TIP3    H227436   2.816   1.500   9.388  0.3183  1.6106  0.1321
 1081TIP3   OH227437   3.457   5.020   6.777  0.0251 -0.4304 -0.0541
 1081TIP3    H127438   3.527   5.062   6.827  1.0307 -0.3842 -1.4459
 1081TIP3    H227439   3.425   4.951   6.835  0.2891  0.4195  1.1398
 1082TIP3   OH227440   1.718   2.454   7.607  0.4073 -0.5613  0.2720
 1082TIP3    H127441   1.732   2.537   7.562 -1.3974  0.1716  0.9764
 1082TIP3    H227442   1.805   2.428   7.636  1.1927  0.4280 -1.0371
 1083TIP3   OH227443   5.385   2.176   8.623 -0.6747 -0.1842 -0.0840
 1083TIP3    H127444   5.305   2.226   8.610  0.5710  1.8102 -0.7258
 1083TIP3    H227445   5.404   2.137   8.538  0.2293  1.3504 -0.6368
 1084TIP3   OH227446   4.976   2.677   8.177  0.1572  0.5679 -0.3653
 1084TIP3    H127447   5.009   2.737   8.110 -0.5734  0.9082 -0.4321
 1084TIP3    H227448   5.039   2.683   8.249  0.8882  0.2811 -0.9759
 1085TIP3   OH227449   4.111   1.084   8.968 -0.0324  0.3152 -0.2666
 1085TIP3    H127450   4.141   1.133   8.891  0.3319  0.7661  0.1571
 1085TIP3    H227451   4.029   1.044   8.939 -0.5116  1.4349 -0.5467
 1086TIP3   OH227452   3.723   1.310   8.941  0.1542  0.1004  0.5732
 1086TIP3    H127453   3.715   1.229   8.890 -1.4612 -0.0566  1.0048
 1086TIP3    H227454   3.805   1.350   8.912 -0.5452 -0.1346 -1.9317
 1087TIP3   OH227455   1.506   3.533   9.736  0.7294 -0.1682  0.4147
 1087TIP3    H127456   1.554   3.560   9.814 -0.5206 -1.7533  1.7972
 1087TIP3    H227457   1.414   3.545   9.759  0.3136  1.7756 -1.7810
 1088TIP3   OH227458   0.715   0.182   8.608  0.0934 -0.4259  0.3183
 1088TIP3    H127459   0.625   0.165   8.636 -0.2549 -0.5133 -0.8032
 1088TIP3    H227460   0.726   0.277   8.616 -0.6838 -0.1891 -1.1586
 1089TIP3   OH227461   0.174   1.121   9.418  0.0027  0.1775  0.3191
 1089TIP3    H127462   0.167   1.194   9.356 -3.3740  0.7574  1.1968
 1089TIP3    H227463   0.140   1.157   9.500  0.4723 -1.7546  1.3991
 1090TIP3   OH227464   1.820   3.919   8.142  0.1243 -0.0404  0.0058
 1090TIP3    H127465   1.803   3.944   8.233 -1.2618  0.9051 -0.4711
 1090TIP3    H227466   1.768   3.840   8.129 -0.8399  0.6303 -0.3424
 1091TIP3   OH227467   5.505   1.699   7.341  0.1117  0.1431 -0.5782
 1091TIP3    H127468   5.513   1.722   7.249 -0.3151  2.2256 -0.1475
 1091TIP3    H227469   5.556   1.765   7.387 -1.6778  0.6630  0.8005
 1092TIP3   OH227470   5.803   4.851   7.814 -0.9129  0.1759  0.0034
 1092TIP3    H127471   5.870   4.812   7.871 -0.7838 -2.5125 -1.7976
 1092TIP3    H227472   5.721   4.809   7.841 -1.4304  1.3354  0.3065
 1093TIP3   OH227473   0.331   2.364   7.783 -0.1475 -0.3164 -0.3484
 1093TIP3    H127474   0.370   2.451   7.778  0.6461 -0.6460 -0.1692
 1093TIP3    H227475   0.301   2.346   7.694  0.7497 -0.3182 -0.6653
 1094TIP3   OH227476   3.484   7.623   7.655 -0.3822 -0.1970  0.5944
 1094TIP3    H127477   3.527   7.690   7.708 -1.2038  1.3061 -0.5590
 1094TIP3    H227478   3.421   7.582   7.714 -0.3457  0.5166  1.1417
 1095TIP3   OH227479   4.174   5.492   7.879  0.5954  0.2800 -0.0421
 1095TIP3    H127480   4.175   5.583   7.850 -2.2015  0.9299  1.6117
 1095TIP3    H227481   4.219   5.493   7.963 -1.6342  0.7372  1.2354
 1096TIP3   OH227482   6.751   2.252   9.053  0.4676 -0.3810 -0.0777
 1096TIP3    H127483   6.692   2.281   9.123  2.3873  1.3714  0.8927
 1096TIP3    H227484   6.832   2.229   9.098  0.7637 -2.2674 -1.4415
 1097TIP3   OH227485   0.198   0.318   9.241 -0.1603  0.5644 -0.1765
 1097TIP3    H127486   0.230   0.257   9.308 -1.2784  0.3172  0.1649
 1097TIP3    H227487   0.235   0.403   9.266 -0.2000  0.3889  0.5077
 1098TIP3   OH227488   6.441   5.927   7.679 -1.0518  0.2040 -0.1857
 1098TIP3    H127489   6.447   5.986   7.754  0.7778 -1.1226  0.8182
 1098TIP3    H227490   6.396   5.977   7.611 -1.0317  2.1291  1.1578
 1099TIP3   OH227491   4.125   0.112   8.754 -0.2746  0.1213 -0.5902
 1099TIP3    H127492   4.052   0.171   8.771 -0.7323 -0.4153 -0.6310
 1099TIP3    H227493   4.181   0.159   8.692 -1.5583 -0.1906 -2.0484
 1100TIP3   OH227494   5.224   2.568   7.779 -0.6162 -0.0525 -0.2810
 1100TIP3    H127495   5.136   2.594   7.751 -0.6323  0.7640  0.5044
 1100TIP3    H227496   5.269   2.651   7.797 -0.6473 -0.5030  2.2038
 1101TIP3   OH227497   0.730   4.846   8.096  0.5681 -0.0289  1.0535
 1101TIP3    H127498   0.659   4.910   8.084  1.0168  0.4935  1.1251
 1101TIP3    H227499   0.687   4.769   8.133 -0.3065 -0.4808 -0.7814
 1102TIP3   OH227500   4.466   1.379   8.344  0.3419  0.2322 -0.3701
 1102TIP3    H127501   4.449   1.404   8.435 -0.5311 -2.5859  0.3214
 1102TIP3    H227502   4.519   1.300   8.350 -2.4092 -1.8959 -2.1677
 1103TIP3   OH227503   6.595   4.131   8.646 -0.3104 -0.0950 -0.0306
 1103TIP3    H127504   6.682   4.165   8.629 -0.8578  0.6558 -1.4591
 1103TIP3    H227505   6.599   4.098   8.736  1.3478  0.1823  0.0171
 1104TIP3   OH227506   4.359   5.791   9.051 -0.0167  0.2200 -0.2314
 1104TIP3    H127507   4.393   5.710   9.014  0.2641 -0.2009  0.9154
 1104TIP3    H227508   4.265   5.788   9.032  0.1543  0.1416 -1.1128
 1105TIP3   OH227509   2.450   3.996   8.366  0.2197 -0.2007 -0.3270
 1105TIP3    H127510   2.485   3.908   8.352 -0.6359 -0.8544  1.3494
 1105TIP3    H227511   2.370   3.982   8.417 -0.2594  1.5250 -0.5320
 1106TIP3   OH227512   5.142   4.195   8.347  0.2909 -0.1729 -0.3960
 1106TIP3    H127513   5.162   4.154   8.431 -1.0259  0.3117  0.1931
 1106TIP3    H227514   5.209   4.263   8.337 -0.0110  0.2975  0.6659
 1107TIP3   OH227515   1.464   5.930   8.506 -0.8177 -0.2371  0.6072
 1107TIP3    H127516   1.480   6.000   8.442 -2.6115 -0.8633 -0.5911
 1107TIP3    H227517   1.523   5.859   8.479 -0.0841  0.2464  0.9130
 1108TIP3   OH227518   0.554   0.121   9.270  0.1717 -0.7223 -0.0032
 1108TIP3    H127519   0.517   0.038   9.241 -0.4435 -0.7393  0.7977
 1108TIP3    H227520   0.644   0.120   9.237 -0.4799 -0.7305 -1.8694
 1109TIP3   OH227521   3.631   2.447   9.276  0.6533 -0.2710  0.2269
 1109TIP3    H127522   3.689   2.452   9.353  2.2179  1.1400 -0.9501
 1109TIP3    H227523   3.691   2.450   9.201 -0.8640 -0.9081 -1.0580
 1110TIP3   OH227524   6.247   1.886   9.835  0.3353  0.5583  0.3555
 1110TIP3    H127525   6.171   1.849   9.881  1.0847 -1.1971  0.2757
 1110TIP3    H227526   6.261   1.826   9.761  2.3459  0.3051  0.8963
 1111TIP3   OH227527   1.676   0.385   9.076 -0.5630  0.2080 -0.1276
 1111TIP3    H127528   1.659   0.399   9.169  1.7372 -0.9295  0.5614
 1111TIP3    H227529   1.727   0.461   9.049  1.6847 -0.9503  0.5209
 1112TIP3   OH227530   0.876   1.903   8.266  0.1281 -0.4332  0.1352
 1112TIP3    H127531   0.784   1.883   8.249  0.7306 -3.1386 -0.5542
 1112TIP3    H227532   0.909   1.938   8.183 -0.2035  0.3115  0.3115
 1113TIP3   OH227533   5.541   3.193   7.984 -0.3178 -0.0869 -0.2489
 1113TIP3    H127534   5.510   3.166   7.897  1.4970 -2.2160 -0.3099
 1113TIP3    H227535   5.594   3.120   8.015  2.3767  2.1751  0.9868
 1114TIP3   OH227536   5.714   0.736   7.284 -0.5588 -0.1601  0.4030
 1114TIP3    H127537   5.758   0.676   7.344 -2.4397 -1.2505  0.7779
 1114TIP3    H227538   5.686   0.681   7.211  0.8651  0.9725 -1.0696
 1115TIP3   OH227539   6.872   3.936   9.492  0.0545 -0.6531 -0.3891
 1115TIP3    H127540   6.924   4.003   9.535  0.1694 -0.2923 -1.0831
 1115TIP3    H227541   6.898   3.939   9.400 -2.1894  0.5256 -1.0692
 1116TIP3   OH227542   7.093   6.015   7.416 -0.5587  0.3226 -0.0248
 1116TIP3    H127543   7.167   5.995   7.473 -1.4948 -1.1771  0.7247
 1116TIP3    H227544   7.038   5.937   7.421 -2.5774  1.7050  0.0367
 1117TIP3   OH227545   4.529   0.522   9.024 -0.0588  0.6126 -0.2511
 1117TIP3    H127546   4.602   0.556   8.973  0.7034 -1.3645 -0.5559
 1117TIP3    H227547   4.451   0.550   8.976  0.6007  0.1451 -1.6162
 1118TIP3   OH227548   5.254   3.789   7.826  0.0790 -0.0468 -0.4128
 1118TIP3    H127549   5.331   3.827   7.785  0.6620 -1.9259 -1.1318
 1118TIP3    H227550   5.257   3.820   7.917  0.2185  1.9966 -1.0539
 1119TIP3   OH227551   5.811   4.351   8.031 -0.0143 -0.5756 -0.5200
 1119TIP3    H127552   5.832   4.429   8.083 -0.8782 -1.0168  0.5304
 1119TIP3    H227553   5.716   4.349   8.028  0.0009 -1.5046 -0.6712
 1120TIP3   OH227554   2.580   4.432   7.454 -0.0489  0.3550 -0.2182
 1120TIP3    H127555   2.659   4.398   7.411  0.1280 -1.4153  1.3965
 1120TIP3    H227556   2.613   4.478   7.531 -0.5677 -0.1449  0.3066
 1121TIP3   OH227557   6.007   1.756   9.871  0.0681 -0.2833  0.3926
 1121TIP3    H127558   5.935   1.722   9.924  1.2042 -1.0106  1.5387
 1121TIP3    H227559   6.034   1.683   9.817  0.7687 -0.4228  0.9123
 1122TIP3   OH227560   0.083   1.006   8.317 -0.2022  0.1720  0.4980
 1122TIP3    H127561   0.039   1.082   8.277 -1.7271 -0.9170  0.0353
 1122TIP3    H227562   0.126   0.963   8.244 -0.8482 -0.3898  0.4373
 1123TIP3   OH227563   3.898   5.979   9.622  0.3063 -0.0703 -0.3672
 1123TIP3    H127564   3.974   5.922   9.613  0.0950 -0.5430  0.5839
 1123TIP3    H227565   3.847   5.965   9.542  1.5975  0.8852 -1.3998
 1124TIP3   OH227566   6.092   1.506   6.564 -0.1482 -0.3663 -0.3792
 1124TIP3    H127567   6.150   1.472   6.495 -0.0866 -1.9299  0.3946
 1124TIP3    H227568   6.149   1.559   6.619  0.6200 -1.8862  0.3703
 1125TIP3   OH227569   0.551   5.279   7.915 -0.1488  0.4763 -0.4870
 1125TIP3    H127570   0.581   5.271   8.006  0.6070  0.8634 -0.6945
 1125TIP3    H227571   0.458   5.299   7.922 -0.7854 -2.2133  0.1736
 1126TIP3   OH227572   5.704   0.423   7.791 -0.1530 -0.4785 -0.1421
 1126TIP3    H127573   5.700   0.512   7.826  0.4885 -0.7257  0.5964
 1126TIP3    H227574   5.752   0.432   7.708 -0.6612 -0.0539 -0.3974
 1127TIP3   OH227575   0.892   6.200   7.506 -0.3660 -0.2949 -0.1783
 1127TIP3    H127576   0.860   6.133   7.566 -1.1800  1.0345  0.9191
 1127TIP3    H227577   0.938   6.151   7.438 -0.7691 -1.9436  0.6893
 1128TIP3   OH227578   1.205   5.866   8.593 -0.0437 -0.5361 -0.3678
 1128TIP3    H127579   1.175   5.853   8.503  1.3490 -0.2381 -0.8953
 1128TIP3    H227580   1.297   5.889   8.585  0.6355 -2.4033  1.2386
 1129TIP3   OH227581   0.802   7.165   7.383 -0.4379 -0.1967 -0.3338
 1129TIP3    H127582   0.769   7.223   7.315 -0.9091  0.1083  0.1481
 1129TIP3    H227583   0.730   7.104   7.399 -0.3509 -0.2324 -0.0728
 1130TIP3   OH227584   0.295   0.566   8.398 -0.3486 -0.0770  0.0398
 1130TIP3    H127585   0.325   0.656   8.383 -1.0394 -0.1000 -1.5688
 1130TIP3    H227586   0.251   0.541   8.317 -1.3452 -1.4065  0.9526
 1131TIP3   OH227587   6.545   3.434   9.428  0.1336  0.2689  0.4611
 1131TIP3    H127588   6.631   3.416   9.466  0.8479 -1.1008 -1.6438
 1131TIP3    H227589   6.495   3.354   9.443  0.4375 -0.3136 -1.3631
 1132TIP3   OH227590   2.713   7.633   8.820  0.4665  0.2745  0.2497
 1132TIP3    H127591   2.793   7.639   8.768  0.5626  1.1846  0.4859
 1132TIP3    H227592   2.650   7.591   8.762  1.3540 -1.3063  0.3711
 1133TIP3   OH227593   0.851   7.019   7.760  0.4288  0.2861  0.7800
 1133TIP3    H127594   0.857   6.931   7.722  2.2736  0.7757 -0.2240
 1133TIP3    H227595   0.769   7.020   7.808  0.5161 -2.0902  1.0686
 1134TIP3   OH227596   0.281   5.729   7.219 -0.3105  0.7787 -0.7025
 1134TIP3    H127597   0.232   5.655   7.182 -1.4559 -0.0995  2.2371
 1134TIP3    H227598   0.370   5.695   7.229 -0.9802 -0.5757  1.2895
 1135TIP3   OH227599   2.294   5.837   8.579  0.3004 -0.2367 -0.1302
 1135TIP3    H127600   2.288   5.816   8.672  0.4897  1.0920  0.1973
 1135TIP3    H227601   2.375   5.887   8.571  1.0925 -1.6199 -1.2808
 1136TIP3   OH227602   5.785   5.674   8.039  0.2728 -0.4223 -0.0591
 1136TIP3    H127603   5.858   5.673   7.977 -0.4086 -0.0080 -0.8762
 1136TIP3    H227604   5.724   5.609   8.005  0.1982 -0.6957  0.5725
 1137TIP3   OH227605   2.118   3.903   8.157 -0.2122  0.0022  0.3602
 1137TIP3    H127606   2.031   3.941   8.171  1.0854  3.1765  0.6570
 1137TIP3    H227607   2.161   3.910   8.242  0.9590  0.2797 -0.2319
 1138TIP3   OH227608   2.074   6.826   8.571 -0.0576 -0.4019 -0.4758
 1138TIP3    H127609   2.057   6.918   8.592  0.5225 -0.4579  0.2847
 1138TIP3    H227610   2.099   6.828   8.478  3.1660  0.7111  0.2633
 1139TIP3   OH227611   5.058   7.260   7.056 -0.2938 -0.6169  0.2871
 1139TIP3    H127612   5.014   7.305   7.128  1.9267  1.1919  0.6476
 1139TIP3    H227613   5.022   7.299   6.977  1.2315  1.5449  0.5911
 1140TIP3   OH227614   2.991   6.917   7.210  0.4558 -0.5135  0.7105
 1140TIP3    H127615   2.936   6.840   7.201  0.3667 -0.7933  2.9495
 1140TIP3    H227616   2.941   6.988   7.169  0.3977 -1.5416 -1.0753
 1141TIP3   OH227617   1.402   3.079   8.884 -0.3054 -0.2545  0.0226
 1141TIP3    H127618   1.408   3.049   8.793  0.5508 -2.1888  0.6613
 1141TIP3    H227619   1.377   3.171   8.877  0.6582 -0.0966 -2.1843
 1142TIP3   OH227620   3.303   1.882   7.163  0.6418 -0.0917 -0.1262
 1142TIP3    H127621   3.286   1.927   7.080 -0.2242  1.0413  0.6353
 1142TIP3    H227622   3.296   1.950   7.229 -1.8239 -1.4884  1.1841
 1143TIP3   OH227623   4.009   4.490   7.479 -0.2686  0.0818 -0.2283
 1143TIP3    H127624   4.091   4.444   7.460 -1.8564 -2.3144 -1.7889
 1143TIP3    H227625   3.994   4.545   7.402  0.5782  1.7554  0.7379
 1144TIP3   OH227626   2.452   3.287   6.527  0.4571  0.0050  0.2460
 1144TIP3    H127627   2.445   3.227   6.452 -2.1017  0.4437  0.0318
 1144TIP3    H227628   2.446   3.230   6.604 -0.9121 -0.1418  0.0526
 1145TIP3   OH227629   5.827   2.693   8.521 -0.3018 -0.2163 -0.0440
 1145TIP3    H127630   5.813   2.758   8.590  1.5693 -1.3256  1.4897
 1145TIP3    H227631   5.744   2.646   8.515 -1.0442  1.0154  0.2163
 1146TIP3   OH227632   3.303   3.765   7.796 -0.1165 -0.3404  0.5681
 1146TIP3    H127633   3.239   3.732   7.858  0.3372 -0.0292  1.2170
 1146TIP3    H227634   3.382   3.714   7.814  0.1246  0.0065  0.5049
 1147TIP3   OH227635   1.269   4.774   9.140  0.5712  0.2787 -0.4920
 1147TIP3    H127636   1.184   4.746   9.107  0.8198  1.2645 -2.0258
 1147TIP3    H227637   1.252   4.858   9.182  0.7600  0.3907 -0.6392
 1148TIP3   OH227638   4.027   3.448   7.771 -0.2992  0.4986  0.6495
 1148TIP3    H127639   3.962   3.380   7.757  0.3347  0.1787 -0.9354
 1148TIP3    H227640   3.995   3.524   7.722  0.1387  0.5833  0.4839
 1149TIP3   OH227641   7.011   6.832   8.132 -0.6694  0.1048 -0.3150
 1149TIP3    H127642   7.021   6.738   8.118 -0.6589  0.0610 -0.0311
 1149TIP3    H227643   6.989   6.867   8.046 -0.2410 -0.0971 -0.5110
 1150TIP3   OH227644   7.296   6.054   7.581 -0.1635  0.5740  0.0643
 1150TIP3    H127645   7.302   6.091   7.669  0.4371  1.1404 -0.2012
 1150TIP3    H227646   7.326   5.964   7.591  1.8743  1.1993  0.1236
 1151TIP3   OH227647   2.489   2.606   8.637  0.0497  0.3746 -0.4335
 1151TIP3    H127648   2.497   2.512   8.656  3.1653  0.5778 -0.2154
 1151TIP3    H227649   2.453   2.643   8.718 -0.6594 -0.5549 -0.3069
 1152TIP3   OH227650   6.001   3.119   8.622 -0.1921  0.0585 -0.3584
 1152TIP3    H127651   6.026   3.092   8.710 -2.2254  0.3077  0.3469
 1152TIP3    H227652   5.910   3.148   8.631 -0.8765 -1.1107 -2.7792
 1153TIP3   OH227653   2.626   2.965   7.037 -0.1273 -0.6550  0.2580
 1153TIP3    H127654   2.665   3.036   7.088 -1.4585  0.4839 -0.2542
 1153TIP3    H227655   2.699   2.930   6.985  0.5726  0.2197  0.6268
 1154TIP3   OH227656   6.438   1.973   9.485  0.2071 -0.6883  0.3575
 1154TIP3    H127657   6.422   1.885   9.521  0.9526 -1.1311 -0.3520
 1154TIP3    H227658   6.357   2.021   9.502  0.6929 -0.6530  3.1954
 1155TIP3   OH227659   4.078   4.902   9.162  0.5052  0.4756  0.2607
 1155TIP3    H127660   4.051   4.984   9.119 -0.4435 -0.8164 -1.7415
 1155TIP3    H227661   4.172   4.912   9.174  1.0467  0.5954 -3.0935
 1156TIP3   OH227662   1.083   1.699   8.860  0.3336 -0.0913 -0.3173
 1156TIP3    H127663   1.137   1.701   8.940 -0.0224  1.9327 -0.0765
 1156TIP3    H227664   1.041   1.613   8.863  1.6647 -0.7665  0.7452
 1157TIP3   OH227665   6.322   1.455   9.803 -0.5549 -0.1356 -0.7704
 1157TIP3    H127666   6.382   1.396   9.759  1.3604  0.1056  1.3210
 1157TIP3    H227667   6.364   1.541   9.798  0.1704 -0.2325  2.0675
 1158TIP3   OH227668   2.437   0.518   6.764 -0.1857  0.2157  0.2436
 1158TIP3    H127669   2.376   0.445   6.780 -0.5118 -0.0235 -1.8127
 1158TIP3    H227670   2.409   0.553   6.680  0.8258  1.8835  0.5749
 1159TIP3   OH227671   2.745   4.440   9.236  0.1161  0.4850 -0.0453
 1159TIP3    H127672   2.804   4.368   9.211  0.4176  0.2439  1.2924
 1159TIP3    H227673   2.778   4.515   9.186  0.5589 -0.0125 -0.5291
 1160TIP3   OH227674   3.041   7.353   8.713  0.3733 -0.6060  0.2882
 1160TIP3    H127675   3.025   7.291   8.784  0.0299 -0.1688  0.5960
 1160TIP3    H227676   3.127   7.390   8.732  0.7487 -1.2597 -0.1045
 1161TIP3   OH227677   2.669   5.238   6.527  0.8884  0.5472 -0.2106
 1161TIP3    H127678   2.699   5.263   6.614 -1.3114  0.2052  0.7211
 1161TIP3    H227679   2.729   5.169   6.499  1.0796 -0.0195  1.4731
 1162TIP3   OH227680   2.092   6.215   8.288  0.3437  0.3855 -0.0096
 1162TIP3    H127681   2.003   6.241   8.312  0.6504  0.7731  0.7328
 1162TIP3    H227682   2.079   6.141   8.228 -0.5278  1.9966 -1.9228
 1163TIP3   OH227683   1.667   3.364   9.038 -0.2427  0.1765  0.1430
 1163TIP3    H127684   1.609   3.381   8.963 -0.4242  0.7518  0.4088
 1163TIP3    H227685   1.625   3.409   9.111  1.7253  2.6909 -0.1293
 1164TIP3   OH227686   6.226   5.183   8.235  0.3537  0.2216  0.2472
 1164TIP3    H127687   6.177   5.265   8.238  0.0602  0.0342  0.8590
 1164TIP3    H227688   6.193   5.133   8.310 -0.6118 -1.0977 -0.9913
 1165TIP3   OH227689   0.058   6.493   8.008  0.2817 -0.4454  0.4309
 1165TIP3    H127690   0.043   6.492   8.102  0.5171  0.3352  0.4806
 1165TIP3    H227691   0.129   6.555   7.995  0.5595 -0.8877 -0.2214
 1166TIP3   OH227692   1.813   4.477   9.414 -0.3173 -0.3659  0.3976
 1166TIP3    H127693   1.775   4.536   9.478  0.0292  1.7247 -1.1999
 1166TIP3    H227694   1.770   4.393   9.430 -1.7060  0.5826  2.0171
 1167TIP3   OH227695   6.641   6.447   7.055  0.0580  0.4144  0.8307
 1167TIP3    H127696   6.649   6.425   6.962 -0.5971 -0.7795  1.0375
 1167TIP3    H227697   6.592   6.529   7.056  0.7072  0.8259  0.1091
 1168TIP3   OH227698   5.208   4.822   8.104  0.0370  0.1172  0.5248
 1168TIP3    H127699   5.159   4.901   8.081  0.6900  0.0282 -1.3361
 1168TIP3    H227700   5.142   4.755   8.119 -0.6228 -0.7050 -4.4135
 1169TIP3   OH227701   5.217   6.835   8.709 -0.2205  0.1173  0.0156
 1169TIP3    H127702   5.129   6.828   8.746  0.0398 -0.6586  0.5232
 1169TIP3    H227703   5.249   6.744   8.707  0.9249  0.4800  0.7411
 1170TIP3   OH227704   4.664   2.706   9.557 -0.4952 -0.0827  0.4641
 1170TIP3    H127705   4.692   2.619   9.530 -0.2622  0.3304 -0.6777
 1170TIP3    H227706   4.691   2.712   9.649 -0.0425 -1.0179  0.4046
 1171TIP3   OH227707   4.910   3.387   8.305  0.4650 -0.2392  0.2855
 1171TIP3    H127708   4.894   3.466   8.254  0.5238  0.0118  0.6495
 1171TIP3    H227709   4.911   3.417   8.396  1.4790 -0.4840  0.3777
 1172TIP3   OH227710   6.426   2.072   7.534 -0.1745 -0.2453  0.0443
 1172TIP3    H127711   6.369   2.101   7.606 -0.7605 -1.4010  0.0732
 1172TIP3    H227712   6.450   2.153   7.489  0.2028  0.5097  1.5233
 1173TIP3   OH227713   0.737   3.451   8.155 -0.5550 -0.3639  1.0443
 1173TIP3    H127714   0.742   3.543   8.132 -1.0442 -0.5025  0.3345
 1173TIP3    H227715   0.650   3.441   8.195 -0.5423 -0.5364  1.0300
 1174TIP3   OH227716   3.805   5.572   7.744  0.2150 -0.4584 -0.4255
 1174TIP3    H127717   3.798   5.546   7.836  2.5997  0.1747  0.0038
 1174TIP3    H227718   3.881   5.523   7.712  0.6320  0.8486 -1.4851
 1175TIP3   OH227719   5.102   6.058   7.908 -0.0797 -0.1261  0.9328
 1175TIP3    H127720   5.142   5.973   7.888 -0.1865  0.3266 -1.5474
 1175TIP3    H227721   5.158   6.122   7.865 -0.9054  0.9216  1.3674
 1176TIP3   OH227722   6.079   6.143   6.736 -0.3109  0.0110  0.0942
 1176TIP3    H127723   6.161   6.123   6.781  0.6280 -1.2379 -2.0377
 1176TIP3    H227724   6.044   6.219   6.782  2.1703  0.7551  0.8766
 1177TIP3   OH227725   1.272   6.625   7.541  0.3000  0.3802 -0.3141
 1177TIP3    H127726   1.186   6.586   7.526  0.0781  1.2476 -1.3810
 1177TIP3    H227727   1.254   6.716   7.564  0.6951 -0.4202  4.0213
 1178TIP3   OH227728   5.462   4.705   8.223  0.0224 -0.8735  0.7368
 1178TIP3    H127729   5.485   4.738   8.136  0.3821 -2.1396  0.3212
 1178TIP3    H227730   5.367   4.699   8.222 -0.0623  0.3396  0.9061
 1179TIP3   OH227731   7.113   6.408   7.758 -0.6367 -0.5441 -0.3840
 1179TIP3    H127732   7.185   6.402   7.821  0.2980 -2.2258 -1.5449
 1179TIP3    H227733   7.039   6.366   7.802 -0.8447  0.8730  0.6796
 1180TIP3   OH227734   7.548   0.636   9.244  0.5584  0.7042  0.7357
 1180TIP3    H127735   7.562   0.688   9.322  0.6090  1.9894 -0.1001
 1180TIP3    H227736   7.622   0.657   9.187  0.0441  0.5111 -0.0247
 1181TIP3   OH227737   2.424   0.760   9.404 -0.0587  0.3102  0.3001
 1181TIP3    H127738   2.339   0.757   9.447 -0.2287  1.5689  0.0714
 1181TIP3    H227739   2.405   0.755   9.311  0.1599  0.0369  0.2678
 1182TIP3   OH227740   3.426   6.440   9.619  0.1607 -0.3519 -0.1790
 1182TIP3    H127741   3.444   6.533   9.626 -1.9253  0.0002  1.8268
 1182TIP3    H227742   3.505   6.397   9.653 -0.1683  0.8524  2.3529
 1183TIP3   OH227743   1.091   1.951   7.346  0.4040  0.2994 -0.2219
 1183TIP3    H127744   1.186   1.945   7.333  0.6370  0.4200  1.2684
 1183TIP3    H227745   1.055   1.886   7.286  1.7453 -3.6430  2.7872
 1184TIP3   OH227746   5.674   5.375   7.456  0.2548 -0.4224 -0.0458
 1184TIP3    H127747   5.591   5.329   7.469  0.3902 -0.4936  0.6035
 1184TIP3    H227748   5.677   5.393   7.362 -1.2479  0.9766  0.1147
 1185TIP3   OH227749   3.798   6.866   7.469 -0.3275 -0.7283  0.5297
 1185TIP3    H127750   3.715   6.914   7.467 -0.7883 -1.4534  1.1393
 1185TIP3    H227751   3.799   6.825   7.556  0.3688 -1.2421  0.2871
 1186TIP3   OH227752   2.173   7.316   8.701  0.0216  0.4778  0.0466
 1186TIP3    H127753   2.143   7.388   8.756 -0.6484 -0.5576  1.0753
 1186TIP3    H227754   2.156   7.345   8.611  0.1105  1.7371  0.4179
 1187TIP3   OH227755   4.806   3.790   7.429  0.4734 -1.0149 -0.1035
 1187TIP3    H127756   4.768   3.703   7.419 -2.1812 -0.0984  1.1450
 1187TIP3    H227757   4.814   3.824   7.340  0.0105 -1.9133 -0.4975
 1188TIP3   OH227758   4.941   4.633   8.016 -0.1268 -0.2530 -0.1067
 1188TIP3    H127759   4.950   4.686   7.937  0.1717 -0.6771 -0.3609
 1188TIP3    H227760   4.990   4.553   7.997  0.7942  0.0656  0.8847
 1189TIP3   OH227761   0.168   2.271   7.060  0.1936  0.4950 -0.3993
 1189TIP3    H127762   0.198   2.212   6.992 -0.5668  0.0825 -0.3867
 1189TIP3    H227763   0.249   2.304   7.101  0.6287 -0.2950 -0.6046
 1190TIP3   OH227764   7.378   3.848   8.766  0.0074 -0.3487 -0.5550
 1190TIP3    H127765   7.408   3.772   8.816  0.4385 -0.9384 -1.6807
 1190TIP3    H227766   7.334   3.904   8.831 -1.3574 -2.0949  0.0898
 1191TIP3   OH227767   7.669   7.115   8.990 -0.5072  0.1148  0.6659
 1191TIP3    H127768   7.631   7.199   8.967 -0.1809  0.6903  2.1213
 1191TIP3    H227769   7.599   7.051   8.975 -1.3273  0.8695  1.1927
 1192TIP3   OH227770   2.992   5.285   7.688  0.1764 -0.2508 -0.2088
 1192TIP3    H127771   3.083   5.262   7.706  0.4513  0.5845 -0.4627
 1192TIP3    H227772   2.963   5.220   7.624  0.5561 -0.5946 -0.0355
 1193TIP3   OH227773   6.156   5.398   9.047  0.5636  0.2976 -0.6752
 1193TIP3    H127774   6.071   5.415   9.087  1.0445 -0.3401  0.6726
 1193TIP3    H227775   6.204   5.480   9.057  0.1459  0.6427 -1.3925
 1194TIP3   OH227776   1.954   2.171   7.819  0.4181 -0.2082 -0.3214
 1194TIP3    H127777   1.893   2.140   7.886  2.6061  0.9655  2.4293
 1194TIP3    H227778   2.005   2.094   7.797  2.1783  0.0446  2.3547
 1195TIP3   OH227779   1.298   4.564   7.357  0.0663 -0.1500  0.4904
 1195TIP3    H127780   1.232   4.631   7.340 -0.2665 -0.1213  1.7386
 1195TIP3    H227781   1.305   4.515   7.275 -0.9500  0.3308  0.1010
 1196TIP3   OH227782   5.775   0.076   9.519  0.2487  0.0232 -0.2116
 1196TIP3    H127783   5.730  -0.008   9.509 -0.0431 -0.0835  1.5814
 1196TIP3    H227784   5.795   0.104   9.430  0.9783 -2.2716 -0.8349
 1197TIP3   OH227785   3.679   1.681   6.640 -0.1269  0.7243 -0.2218
 1197TIP3    H127786   3.619   1.693   6.567 -0.2257 -0.5692 -0.3761
 1197TIP3    H227787   3.624   1.651   6.713  0.4243 -1.6360 -0.6986
 1198TIP3   OH227788   5.068   0.255   7.674  0.0103 -0.7794 -0.0124
 1198TIP3    H127789   5.160   0.253   7.698 -0.1182 -0.8227  0.4928
 1198TIP3    H227790   5.023   0.211   7.747 -0.6574  1.3432  0.9251
 1199TIP3   OH227791   3.511   6.385   8.866 -0.0843 -0.1902 -0.2563
 1199TIP3    H127792   3.492   6.355   8.955 -2.4937  1.0809 -0.2349
 1199TIP3    H227793   3.528   6.479   8.875  0.2710 -0.1715 -1.0498
 1200TIP3   OH227794   1.461   6.077   7.368 -0.3171  0.1146  0.6852
 1200TIP3    H127795   1.414   5.994   7.361 -1.9600  1.0122  0.6814
 1200TIP3    H227796   1.396   6.144   7.349  1.4106  1.3683 -1.2183
 1201TIP3   OH227797   7.494   3.284   7.490  0.6796  0.0716  0.0580
 1201TIP3    H127798   7.412   3.238   7.508 -1.1552  2.2036 -2.2648
 1201TIP3    H227799   7.519   3.255   7.402  2.5018 -0.5624  0.7360
 1202TIP3   OH227800   1.343   5.757   8.837  0.4654  0.7407  0.5150
 1202TIP3    H127801   1.412   5.724   8.779  0.6488  1.9343  0.0180
 1202TIP3    H227802   1.274   5.786   8.777  1.2954  3.4500  0.7339
 1203TIP3   OH227803   5.446   0.808   7.318 -0.2910  0.3605 -0.4779
 1203TIP3    H127804   5.448   0.895   7.359  0.0423  0.2288 -0.2099
 1203TIP3    H227805   5.537   0.792   7.294 -0.4661  0.3859 -1.1695
 1204TIP3   OH227806   2.127   2.375   8.921 -0.1365 -0.1707 -0.1137
 1204TIP3    H127807   2.167   2.448   8.969  0.4785 -1.3181  1.2039
 1204TIP3    H227808   2.200   2.318   8.899 -0.6642 -0.6370 -0.7023
 1205TIP3   OH227809   4.557   3.157   8.191 -0.1226 -0.0658 -0.0586
 1205TIP3    H127810   4.532   3.137   8.282  3.0542  0.4465  1.0508
 1205TIP3    H227811   4.623   3.091   8.169  1.5078  1.7426 -0.7942
 1206TIP3   OH227812   4.552   5.708   8.242  0.4174  0.1691 -0.3903
 1206TIP3    H127813   4.536   5.802   8.229  1.5262  0.5160  0.5825
 1206TIP3    H227814   4.536   5.669   8.156  1.0750  1.4123 -1.1063
 1207TIP3   OH227815   5.315   6.089   9.136  0.4842 -0.3468 -0.5612
 1207TIP3    H127816   5.390   6.111   9.191  0.4040 -0.8573 -0.2400
 1207TIP3    H227817   5.293   6.170   9.091 -1.0467  0.8281  2.0677
 1208TIP3   OH227818   3.407   6.271   9.112 -0.2554  0.3123 -0.0120
 1208TIP3    H127819   3.344   6.213   9.153 -0.7849  1.4984  0.9229
 1208TIP3    H227820   3.479   6.276   9.175  1.2052 -1.6455 -1.4022
 1209TIP3   OH227821   3.532   6.709   9.599 -0.3156 -0.1934  0.5326
 1209TIP3    H127822   3.607   6.758   9.565 -0.6715 -1.2652 -2.0457
 1209TIP3    H227823   3.475   6.775   9.637  0.1327  1.1446 -1.0333
 1210TIP3   OH227824   2.100   3.925   7.491  0.3079  0.3594 -0.2184
 1210TIP3    H127825   2.183   3.924   7.538  0.6796  3.7048 -0.5906
 1210TIP3    H227826   2.115   3.871   7.414  0.8953 -2.0568  1.4736
 1211TIP3   OH227827   4.482   2.921   7.821  0.1527 -0.1642  0.0837
 1211TIP3    H127828   4.450   3.010   7.835 -0.4304 -0.3976  0.3018
 1211TIP3    H227829   4.576   2.930   7.808  0.2923  0.3691  1.3124
 1212TIP3   OH227830   6.452   7.542   7.579  0.5068 -0.1345 -0.2069
 1212TIP3    H127831   6.524   7.605   7.590  1.6179 -1.1380 -1.4550
 1212TIP3    H227832   6.388   7.588   7.525  1.7821 -0.3922 -1.9972
 1213TIP3   OH227833   5.466   0.661   9.503  0.9063  0.1511  1.0979
 1213TIP3    H127834   5.451   0.573   9.536  1.9661 -0.5217 -0.1248
 1213TIP3    H227835   5.437   0.719   9.574 -0.5667 -1.1469  1.5983
 1214TIP3   OH227836   1.344   2.473   9.671  0.0973  0.1156  0.2170
 1214TIP3    H127837   1.270   2.500   9.725  0.5689 -1.2427  1.6250
 1214TIP3    H227838   1.313   2.396   9.624 -0.1261  0.9594 -1.0669
 1215TIP3   OH227839   0.341   0.746   8.671 -0.1585 -0.1862  0.2649
 1215TIP3    H127840   0.405   0.675   8.683  1.0066  1.1349  2.4282
 1215TIP3    H227841   0.257   0.704   8.687  0.3994 -1.3932  0.1568
 1216TIP3   OH227842   4.673   3.010   9.049  0.1081  0.6618 -0.4372
 1216TIP3    H127843   4.597   2.955   9.064 -0.1102  1.0293 -0.1564
 1216TIP3    H227844   4.682   3.015   8.954 -0.3573  0.7985 -0.4772
 1217TIP3   OH227845   2.377   5.114   7.210  0.5798  0.1661  0.4842
 1217TIP3    H127846   2.336   5.196   7.184  0.5267 -0.1230 -0.3743
 1217TIP3    H227847   2.307   5.049   7.207  1.2487 -0.5779 -2.1586
 1218TIP3   OH227848   3.742   1.338   8.278 -0.1272 -0.9625 -0.1412
 1218TIP3    H127849   3.679   1.318   8.209 -0.0653 -0.2167 -0.4285
 1218TIP3    H227850   3.818   1.283   8.258  0.0001 -0.5465 -0.8487
 1219TIP3   OH227851   1.731   0.756   9.224 -0.1859 -0.5258 -0.4842
 1219TIP3    H127852   1.652   0.809   9.220  0.4912  0.4820 -0.8635
 1219TIP3    H227853   1.745   0.727   9.134 -0.2530 -0.9045 -0.3750
 1220TIP3   OH227854   5.650   2.894   8.655  0.0476  0.0936  0.3351
 1220TIP3    H127855   5.606   2.853   8.729 -1.7179  1.3683  0.0433
 1220TIP3    H227856   5.683   2.977   8.689  0.8772 -0.1424  0.1405
 1221TIP3   OH227857   0.278   7.215   8.596 -0.0610 -0.2506 -0.1772
 1221TIP3    H127858   0.226   7.257   8.664  0.1482  0.1851 -0.2809
 1221TIP3    H227859   0.337   7.284   8.565  0.6486 -0.7617  0.0154
 1222TIP3   OH227860   3.904   4.632   7.224 -0.6734 -0.6257  0.2370
 1222TIP3    H127861   3.871   4.717   7.255 -2.1693 -1.6766  1.6889
 1222TIP3    H227862   3.830   4.593   7.178  0.2539 -0.8497 -1.1200
 1223TIP3   OH227863   7.307   2.395   8.294  0.4297 -0.2818 -0.1653
 1223TIP3    H127864   7.265   2.323   8.246 -0.8445  1.7424 -2.3078
 1223TIP3    H227865   7.242   2.422   8.359  0.6508 -0.6209  0.2026
 1224TIP3   OH227866   0.786   4.579   7.592 -0.0752 -0.1782 -0.1623
 1224TIP3    H127867   0.715   4.515   7.602 -0.3627  0.2113  0.3038
 1224TIP3    H227868   0.801   4.613   7.680 -0.4207  0.9243 -0.5193
 1225TIP3   OH227869   0.606   5.014   7.799  0.1721 -0.0161  0.1472
 1225TIP3    H127870   0.647   5.096   7.824 -2.7463  1.4725  0.4081
 1225TIP3    H227871   0.570   4.979   7.881 -0.3877 -0.4927 -0.2933
 1226TIP3   OH227872   3.493   2.224   9.213 -0.0779 -0.3400  1.3465
 1226TIP3    H127873   3.510   2.146   9.267 -0.0491  0.1324  2.0340
 1226TIP3    H227874   3.551   2.291   9.250 -1.1297  0.4109  1.6868
 1227TIP3   OH227875   2.096   2.775   9.293  0.5813 -0.0633 -0.3694
 1227TIP3    H127876   2.079   2.691   9.337 -0.4267  0.2437 -0.1603
 1227TIP3    H227877   2.013   2.798   9.251  0.0025  2.1016  1.7471
 1228TIP3   OH227878   6.563   7.552   8.171  0.3979  0.0398  0.1529
 1228TIP3    H127879   6.589   7.532   8.081  1.7380 -1.6965  0.8574
 1228TIP3    H227880   6.500   7.484   8.193  0.3805  0.2105  0.6447
 1229TIP3   OH227881   5.534   6.188   8.764  0.5134 -0.8431  0.4013
 1229TIP3    H127882   5.447   6.224   8.781 -0.6159 -3.5662  0.9041
 1229TIP3    H227883   5.594   6.263   8.775 -1.8016  1.4114 -1.1688
 1230TIP3   OH227884   3.281   4.585   7.586 -0.3882 -0.3746  0.4257
 1230TIP3    H127885   3.273   4.675   7.617 -0.0621 -0.0961 -0.2882
 1230TIP3    H227886   3.261   4.590   7.492  0.1079 -0.9698  0.2834
 1231TIP3   OH227887   7.352   1.063   8.732  0.1530 -1.1383 -0.5635
 1231TIP3    H127888   7.264   1.047   8.699 -0.5283  0.8336  0.1601
 1231TIP3    H227889   7.394   1.117   8.665 -0.6285  1.3584  0.8346
 1232TIP3   OH227890   4.698   3.459   9.187 -0.0455 -0.2049  0.4939
 1232TIP3    H127891   4.720   3.367   9.205 -0.6352  0.0620  2.8637
 1232TIP3    H227892   4.607   3.456   9.157 -0.0833 -0.3930  0.6237
 1233TIP3   OH227893   6.324   4.351   8.797  0.1869  0.7778  0.7206
 1233TIP3    H127894   6.313   4.256   8.794 -0.5140  0.8360  1.4169
 1233TIP3    H227895   6.412   4.363   8.834  1.3830  0.3859 -1.7449
 1234TIP3   OH227896   0.716   2.147   8.188 -0.1402  0.2937 -0.3307
 1234TIP3    H127897   0.700   2.114   8.100 -0.7114  0.6077 -0.3503
 1234TIP3    H227898   0.638   2.122   8.237 -0.1165  0.6998 -0.0845
 1235TIP3   OH227899   4.331   4.044   7.649 -0.1297  0.3504  0.0318
 1235TIP3    H127900   4.391   4.068   7.579  0.2156 -0.7693 -0.0776
 1235TIP3    H227901   4.249   4.023   7.605  0.2698 -0.9693 -0.1264
 1236TIP3   OH227902   3.900   6.400   8.950 -0.1462 -0.0027  0.6180
 1236TIP3    H127903   3.868   6.489   8.936 -1.1185 -0.4140  0.0289
 1236TIP3    H227904   3.979   6.394   8.897 -0.1001  0.5053  0.6263
 1237TIP3   OH227905   0.621   3.910   6.953  0.2833  0.3054  0.1721
 1237TIP3    H127906   0.616   3.854   6.876  2.0580  0.6790 -0.2572
 1237TIP3    H227907   0.537   3.897   6.998 -0.0624 -1.2943 -0.8598
 1238TIP3   OH227908   1.627   5.781   8.181 -0.0281  0.3574  0.5362
 1238TIP3    H127909   1.675   5.702   8.204  0.9609  0.6319 -0.4818
 1238TIP3    H227910   1.693   5.840   8.145 -1.0041  1.0422 -0.2061
 1239TIP3   OH227911   1.717   1.594   9.045  0.0636  0.3763  0.1786
 1239TIP3    H127912   1.731   1.566   8.954 -1.5613 -2.1286  0.5907
 1239TIP3    H227913   1.804   1.596   9.084  0.5762 -0.7544 -0.8565
 1240TIP3   OH227914   3.155   2.941   7.730 -0.1562 -0.2954 -0.2605
 1240TIP3    H127915   3.238   2.986   7.712 -0.5745 -0.0237 -1.6645
 1240TIP3    H227916   3.180   2.859   7.771  0.7555  0.1727  0.1423
 1241TIP3   OH227917   7.377   5.919   8.036  0.7885 -0.1384 -0.4471
 1241TIP3    H127918   7.322   5.848   8.002  0.2606 -0.1283  0.3575
 1241TIP3    H227919   7.422   5.881   8.111 -0.5240  0.7203  0.8328
 1242TIP3   OH227920   3.850   1.206   9.627 -0.0193  0.1336 -0.0126
 1242TIP3    H127921   3.807   1.171   9.549  1.6100 -1.6472 -0.1913
 1242TIP3    H227922   3.816   1.295   9.635 -0.9338  0.0530 -2.2086
 1243TIP3   OH227923   1.480   0.850   9.252  0.1297  0.2547 -0.2254
 1243TIP3    H127924   1.464   0.849   9.346 -1.4560 -1.1574 -0.4668
 1243TIP3    H227925   1.402   0.809   9.213  0.6923  0.9011 -2.1617
 1244TIP3   OH227926   4.481   4.796   8.126  0.3375  0.3119  0.5591
 1244TIP3    H127927   4.546   4.764   8.187 -1.1045 -3.2317  0.4545
 1244TIP3    H227928   4.509   4.763   8.041 -1.1174 -0.5531  0.3848
 1245TIP3   OH227929   6.418   4.504   7.799  0.2921  0.4011 -0.4335
 1245TIP3    H127930   6.349   4.560   7.833 -2.8726 -1.1209 -3.6845
 1245TIP3    H227931   6.427   4.435   7.865 -1.1434  0.7689  0.1922
 1246TIP3   OH227932   6.368   6.107   9.334 -0.4280  0.6698  0.1656
 1246TIP3    H127933   6.294   6.154   9.295  0.2389  3.2688  1.7262
 1246TIP3    H227934   6.348   6.105   9.428  0.3877 -0.7193  0.3295
 1247TIP3   OH227935   7.280   4.076   8.337  0.1431 -0.0782  0.4675
 1247TIP3    H127936   7.294   3.991   8.295  0.8091  0.6004 -0.7442
 1247TIP3    H227937   7.220   4.058   8.409 -0.6292 -1.3915 -0.4568
 1248TIP3   OH227938   5.575   3.310   8.915  0.0508 -0.0138 -0.2481
 1248TIP3    H127939   5.533   3.372   8.854  1.9202 -0.7935 -2.4535
 1248TIP3    H227940   5.589   3.361   8.994 -1.8890  1.2531 -0.6420
 1249TIP3   OH227941   7.354   4.416   7.842  0.2123  0.2199 -0.1226
 1249TIP3    H127942   7.290   4.464   7.790  0.0975 -1.0348 -1.1654
 1249TIP3    H227943   7.423   4.481   7.861 -1.4998  1.7212  1.3796
 1250TIP3   OH227944   6.104   3.961   7.051  0.2760 -0.0015 -0.2087
 1250TIP3    H127945   6.078   3.876   7.087 -0.8277  0.1097 -0.6985
 1250TIP3    H227946   6.022   4.000   7.022  0.6591  1.5820  0.7151
 1251TIP3   OH227947   6.792   1.318   7.505 -0.1931  0.3114  0.2901
 1251TIP3    H127948   6.807   1.255   7.435  1.6554  0.3903  0.5581
 1251TIP3    H227949   6.850   1.391   7.485 -1.7122  1.6112  0.4129
 1252TIP3   OH227950   0.089   0.257   7.994 -0.0593  0.0574 -0.3846
 1252TIP3    H127951   0.092   0.214   7.908  0.4914  1.8578 -1.3148
 1252TIP3    H227952   0.147   0.205   8.049  1.6046  0.3106 -1.8307
 1253TIP3   OH227953   0.187   4.171   8.497  0.2056 -0.7830  0.0039
 1253TIP3    H127954   0.120   4.216   8.446  0.7120 -1.1015 -0.9710
 1253TIP3    H227955   0.238   4.123   8.432  1.5005 -0.3920  0.7051
 1254TIP3   OH227956   6.403   4.301   8.008 -0.6711 -0.1146  0.5491
 1254TIP3    H127957   6.426   4.339   8.093  1.2481 -1.9464  0.9414
 1254TIP3    H227958   6.367   4.215   8.029 -0.8004 -0.3139 -0.4462
 1255TIP3   OH227959   4.617   1.285   9.327 -0.4346  0.2441 -0.4778
 1255TIP3    H127960   4.525   1.307   9.340 -0.5712 -1.5127  2.2177
 1255TIP3    H227961   4.657   1.298   9.413  1.7023  0.2764 -1.4191
 1256TIP3   OH227962   4.029   5.535   9.367  0.0582  0.3018  0.0924
 1256TIP3    H127963   4.046   5.443   9.390  0.5173  0.5482  0.7513
 1256TIP3    H227964   4.062   5.544   9.278 -0.5085 -0.3209 -0.1898
 1257TIP3   OH227965   7.480   2.976   8.929  0.1059  0.6422 -0.3262
 1257TIP3    H127966   7.552   2.915   8.912  0.9732  1.2551  0.9292
 1257TIP3    H227967   7.460   3.013   8.843  0.5042 -0.3757 -0.8845
 1258TIP3   OH227968   5.928   5.453   7.533  0.2560 -0.5836 -0.0222
 1258TIP3    H127969   5.953   5.432   7.443 -0.6240 -0.1586 -0.3860
 1258TIP3    H227970   5.833   5.468   7.528  0.0559 -1.3863  1.1409
 1259TIP3   OH227971   7.649   6.970   8.708 -0.1053 -0.4249  0.0810
 1259TIP3    H127972   7.655   7.048   8.652  0.9673 -1.0125 -0.6743
 1259TIP3    H227973   7.557   6.944   8.704 -0.1491 -0.1627 -1.0320
 1260TIP3   OH227974   4.684   2.928   9.405  0.2452  0.2148  0.4020
 1260TIP3    H127975   4.702   2.846   9.451  1.1091 -0.5082 -1.1282
 1260TIP3    H227976   4.670   2.902   9.314 -0.2413  1.6948  0.0226
 1261TIP3   OH227977   5.648   2.367   6.852  0.0683  0.2561  0.1790
 1261TIP3    H127978   5.700   2.409   6.783  1.8899 -0.5210  1.0167
 1261TIP3    H227979   5.643   2.275   6.825 -0.2684  0.1860  0.4723
 1262TIP3   OH227980   1.719   1.400   8.042  0.0338  0.1039  0.2482
 1262TIP3    H127981   1.678   1.335   8.100  1.9471 -1.5677 -0.1409
 1262TIP3    H227982   1.682   1.381   7.956  1.5723 -1.4930 -0.1281
 1263TIP3   OH227983   7.306   2.383   9.463 -0.6231 -0.1047 -0.2522
 1263TIP3    H127984   7.360   2.306   9.479 -2.7471 -1.3719  1.3695
 1263TIP3    H227985   7.217   2.352   9.475 -1.6674  2.2100 -1.4841
 1264TIP3   OH227986   3.166   6.322   7.612 -0.0694 -0.2163 -0.2326
 1264TIP3    H127987   3.212   6.331   7.528  1.0716 -0.7333  0.3108
 1264TIP3    H227988   3.178   6.230   7.635 -1.6009 -0.4203 -0.1716
 1265TIP3   OH227989   4.668   6.583   8.722  0.0238 -0.3913  0.1481
 1265TIP3    H127990   4.764   6.595   8.721 -0.0363  0.0744 -0.6667
 1265TIP3    H227991   4.656   6.489   8.719  0.4687 -0.5320  1.7450
 1266TIP3   OH227992   1.781   6.844   8.664 -0.1763 -0.4133 -0.4973
 1266TIP3    H127993   1.867   6.824   8.628  0.3844  0.9155  0.0343
 1266TIP3    H227994   1.794   6.847   8.759 -1.2014 -1.9110 -0.2851
 1267TIP3   OH227995   0.220   0.902   9.030 -0.3273  0.3199  0.1216
 1267TIP3    H127996   0.311   0.878   9.046 -0.1854  1.5118  1.2816
 1267TIP3    H227997   0.220   0.941   8.943  0.6842  2.1766  0.9124
 1268TIP3   OH227998   7.408   4.823   8.956 -0.6135 -0.1015  0.3199
 1268TIP3    H127999   7.450   4.738   8.946 -0.1746  0.3323 -2.3491
 1268TIP3    H228000   7.459   4.867   9.024  0.0086 -1.4527  0.7624
 1269TIP3   OH228001   6.976   3.882   8.831 -0.4189  0.4238  0.1134
 1269TIP3    H128002   6.989   3.803   8.884  1.0556  0.1177 -0.6610
 1269TIP3    H228003   7.036   3.946   8.869 -2.6319  1.7002  1.6588
 1270TIP3   OH228004   0.634   5.795   8.623 -0.2537 -0.2372  0.3639
 1270TIP3    H128005   0.604   5.732   8.558 -0.2657 -0.4092  0.5349
 1270TIP3    H228006   0.701   5.749   8.672  1.2581  0.5807 -0.8546
 1271TIP3   OH228007   3.418   0.585   9.206  0.2713  0.1189 -0.3083
 1271TIP3    H128008   3.388   0.514   9.262  1.4801 -0.5056 -0.4151
 1271TIP3    H228009   3.499   0.616   9.247 -0.0038  1.1404 -0.5063
 1272TIP3   OH228010   3.313   1.212   8.447  0.5158 -0.3700 -0.3240
 1272TIP3    H128011   3.359   1.295   8.458  0.3897 -0.2049 -0.9627
 1272TIP3    H228012   3.370   1.160   8.391  1.0100 -1.0657  0.7925
 1273TIP3   OH228013   0.065   4.924   7.285 -0.6715 -0.1836 -0.3958
 1273TIP3    H128014   0.018   4.850   7.247 -2.2010 -0.0895  1.1712
 1273TIP3    H228015   0.069   4.989   7.215 -0.4007 -1.2709 -1.4056
 1274TIP3   OH228016   1.416   7.314   8.834  0.3061 -0.1474  0.1696
 1274TIP3    H128017   1.451   7.400   8.855 -1.4354  0.4106  1.0116
 1274TIP3    H228018   1.407   7.314   8.738 -0.6238  1.0389  0.2295
 1275TIP3   OH228019   2.739   0.103   8.473 -0.6329 -0.4378 -0.0774
 1275TIP3    H128020   2.764   0.097   8.381 -0.1818  0.8570 -0.0519
 1275TIP3    H228021   2.728   0.012   8.500  0.5745 -0.8947 -1.0435
 1276TIP3   OH228022   5.138   2.367   7.208 -0.5261  0.1368  0.0679
 1276TIP3    H128023   5.074   2.314   7.161 -1.2434  0.7336  0.3428
 1276TIP3    H228024   5.161   2.437   7.146 -1.0298  0.5864  0.3725
 1277TIP3   OH228025   5.057   4.850   6.962 -0.1784 -0.2528  0.2787
 1277TIP3    H128026   5.005   4.920   7.003  1.1124  0.1151  1.3576
 1277TIP3    H228027   5.033   4.771   7.011  1.3172  0.1750  1.8099
 1278TIP3   OH228028   3.360   2.725   8.989  0.0267 -0.1861 -0.4351
 1278TIP3    H128029   3.337   2.657   9.051  0.8391 -0.4202 -0.3828
 1278TIP3    H228030   3.288   2.725   8.925  0.9863 -2.5224 -1.6338
 1279TIP3   OH228031   3.852   7.346   9.239  0.3770  0.5667 -0.0251
 1279TIP3    H128032   3.927   7.386   9.283  1.7246  0.8017 -2.3516
 1279TIP3    H228033   3.866   7.252   9.250  1.3515  0.5904 -0.8784
 1280TIP3   OH228034   2.380   5.869   7.768  0.4255  0.0661 -0.2593
 1280TIP3    H128035   2.396   5.933   7.698 -1.2174 -0.7501 -1.4365
 1280TIP3    H228036   2.400   5.784   7.728  0.2511 -0.3649  0.5407
 1281TIP3   OH228037   4.601   6.083   8.389  0.6068 -0.1637 -0.3490
 1281TIP3    H128038   4.588   6.173   8.358 -2.6409  0.5121  2.3726
 1281TIP3    H228039   4.669   6.089   8.455  0.9193  0.1200 -0.6904
 1282TIP3   OH228040   4.257   4.265   8.633 -0.3409  0.3071 -0.7936
 1282TIP3    H128041   4.216   4.243   8.717  0.7389 -1.9460 -0.7894
 1282TIP3    H228042   4.184   4.292   8.577 -1.1962  0.8732  0.5392
 1283TIP3   OH228043   4.794   7.250   7.999 -0.2868  1.0046 -0.3573
 1283TIP3    H128044   4.836   7.263   7.914  1.6657  0.4435  0.4616
 1283TIP3    H228045   4.781   7.155   8.004  0.9307  0.8625  0.5226
 1284TIP3   OH228046   6.657   2.226   7.260  0.1310 -0.6486 -0.0170
 1284TIP3    H128047   6.730   2.281   7.288 -0.3982 -0.5527  1.2334
 1284TIP3    H228048   6.692   2.176   7.187  1.0458  0.3499 -0.2997
 1285TIP3   OH228049   2.058   4.423   6.801 -0.0317  0.0810  0.3928
 1285TIP3    H128050   2.061   4.454   6.710 -1.2130  1.1929  0.6993
 1285TIP3    H228051   2.128   4.473   6.845  0.2382 -0.1207  0.1960
 1286TIP3   OH228052   4.821   4.934   7.361  0.3085 -0.3087 -0.2611
 1286TIP3    H128053   4.905   4.912   7.403 -0.1968 -1.9194 -0.0224
 1286TIP3    H228054   4.763   4.862   7.385 -1.0562  0.5989 -0.7280
 1287TIP3   OH228055   3.886   6.028   7.154  0.5123 -0.5845 -0.4197
 1287TIP3    H128056   3.859   5.950   7.105 -0.6797 -0.4004 -0.0785
 1287TIP3    H228057   3.847   6.017   7.240  1.1822 -0.0829 -0.0490
 1288TIP3   OH228058   3.280   7.475   8.741  0.1128 -0.6187  0.1121
 1288TIP3    H128059   3.331   7.506   8.666 -0.5471  1.0616  0.3180
 1288TIP3    H228060   3.270   7.552   8.797  0.8949 -1.9022  2.1413
 1289TIP3   OH228061   0.576   4.134   8.375  0.5815  0.0071 -0.2029
 1289TIP3    H128062   0.619   4.050   8.393  0.8641  0.7341  2.9139
 1289TIP3    H228063   0.639   4.200   8.402 -0.8112  1.1737  0.3169
 1290TIP3   OH228064   1.278   6.206   8.329  0.1961  0.3572  0.0489
 1290TIP3    H128065   1.188   6.172   8.328  0.1778  0.2984  1.3738
 1290TIP3    H228066   1.317   6.173   8.249 -1.0898  0.7409 -0.7805
 1291TIP3   OH228067   0.310   5.422   7.616 -0.3931  0.4783 -0.1041
 1291TIP3    H128068   0.291   5.504   7.663  0.6952 -0.7028  2.5730
 1291TIP3    H228069   0.398   5.435   7.580 -0.3291  0.5949  0.0921
 1292TIP3   OH228070   1.492   3.061   7.749  0.4970  0.5507 -0.2375
 1292TIP3    H128071   1.426   3.046   7.682  0.9831 -0.4488 -0.5134
 1292TIP3    H228072   1.565   3.101   7.702  0.7051  0.1684 -0.2415
 1293TIP3   OH228073   6.084   2.123   7.956 -0.4475 -0.1632  0.3938
 1293TIP3    H128074   6.120   2.054   7.899  1.9069  0.4422  1.0469
 1293TIP3    H228075   6.056   2.076   8.035  0.8434 -0.4247  0.7074
 1294TIP3   OH228076   7.266   6.327   8.020  0.5825 -0.4213 -0.6092
 1294TIP3    H128077   7.218   6.259   8.067 -0.6258 -0.2684 -1.5543
 1294TIP3    H228078   7.312   6.377   8.088 -1.4027  0.0387  0.4569
 1295TIP3   OH228079   5.072   5.054   8.073 -0.1240  0.5274 -0.1317
 1295TIP3    H128080   4.997   4.995   8.060  1.5265 -1.7945  0.2530
 1295TIP3    H228081   5.077   5.104   7.992 -3.3020  2.3455  0.6083
 1296TIP3   OH228082   2.951   2.791   7.176  0.2449  0.0096  0.6127
 1296TIP3    H128083   2.908   2.828   7.099 -1.1246 -0.6367  1.0369
 1296TIP3    H228084   2.925   2.848   7.248 -0.2101 -0.5899  0.9331
 1297TIP3   OH228085   0.899   5.340   9.141  0.0593 -0.4089 -0.3284
 1297TIP3    H128086   0.942   5.256   9.156  0.1534 -0.1777  0.7457
 1297TIP3    H228087   0.956   5.405   9.182  0.3106  0.2820 -1.6764
 1298TIP3   OH228088   5.262   3.601   8.718 -0.2728 -0.1721  0.5404
 1298TIP3    H128089   5.274   3.614   8.624 -1.1896 -0.2983  0.4038
 1298TIP3    H228090   5.221   3.682   8.748  1.0821  0.3624  1.0557
 1299TIP3   OH228091   0.130   0.306   8.425 -0.1241 -0.5301 -0.3152
 1299TIP3    H128092   0.192   0.371   8.392  0.3986 -1.3868 -1.0519
 1299TIP3    H228093   0.053   0.315   8.369  1.0392 -2.4914 -2.3590
 1300TIP3   OH228094   6.705   5.351   6.875 -0.1143  0.0713  0.1324
 1300TIP3    H128095   6.680   5.288   6.942  0.4718 -1.1946 -0.8121
 1300TIP3    H228096   6.668   5.316   6.794 -0.0990  1.1431 -0.3606
 1301TIP3   OH228097   5.293   7.355   8.720 -0.4373 -0.0664  0.0371
 1301TIP3    H128098   5.242   7.285   8.680  1.0242 -0.9427 -0.3521
 1301TIP3    H228099   5.261   7.360   8.810 -1.5890 -0.1985 -0.3472
 1302TIP3   OH228100   3.981   0.850   8.243  0.1768  0.2985  0.4534
 1302TIP3    H128101   4.038   0.803   8.182  0.8881  0.1183  1.2376
 1302TIP3    H228102   4.028   0.848   8.326 -1.5180 -0.9413  1.4437
 1303TIP3   OH228103   5.172   2.928   9.431 -0.2781 -0.1228  0.2489
 1303TIP3    H128104   5.148   3.004   9.378 -1.8185 -0.1325  0.8884
 1303TIP3    H228105   5.102   2.921   9.495  1.7134  0.1360  2.5908
 1304TIP3   OH228106   4.474   7.531   8.631  0.1860  0.6108  0.3973
 1304TIP3    H128107   4.533   7.573   8.694 -0.3939  2.6841 -0.3637
 1304TIP3    H228108   4.397   7.509   8.682  0.0233  1.5871  0.6023
 1305TIP3   OH228109   2.556   4.583   7.940 -0.1634  0.2462 -0.2770
 1305TIP3    H128110   2.551   4.652   8.006 -1.0338 -0.4383  0.3948
 1305TIP3    H228111   2.535   4.502   7.988 -1.4703 -0.1866 -1.5096
 1306TIP3   OH228112   7.662   2.292   7.358 -0.3210  0.6523 -0.0715
 1306TIP3    H128113   7.614   2.214   7.331 -1.3600  1.2946 -0.1215
 1306TIP3    H228114   7.644   2.357   7.290 -1.3721  1.6559  1.0934
 1307TIP3   OH228115   1.565   6.225   7.767  0.0286  0.5347 -0.2972
 1307TIP3    H128116   1.507   6.292   7.730 -0.2062 -0.5668 -2.0700
 1307TIP3    H228117   1.509   6.173   7.824 -1.0232 -0.9343 -2.5099
 1308TIP3   OH228118   4.162   7.400   9.251  0.5427  0.5532  1.1415
 1308TIP3    H128119   4.215   7.432   9.178 -0.4785  2.8967  1.3390
 1308TIP3    H228120   4.195   7.447   9.327 -1.2502  1.5024  1.3929
 1309TIP3   OH228121   3.268   6.999   8.701  0.3904 -0.3051  0.5416
 1309TIP3    H128122   3.292   7.077   8.751 -0.6181  1.3525 -1.4520
 1309TIP3    H228123   3.352   6.959   8.678  1.1069  1.7652 -0.7335
 1310TIP3   OH228124   3.658   4.495   8.158 -0.6743 -0.4482  0.3329
 1310TIP3    H128125   3.733   4.548   8.184 -1.0021  0.2446 -0.1267
 1310TIP3    H228126   3.688   4.405   8.170 -0.2404 -0.1719  1.4857
 1311TIP3   OH228127   4.899   1.925   7.479 -0.2346  0.0901 -0.0880
 1311TIP3    H128128   4.993   1.927   7.498 -0.3780  4.4426  1.3582
 1311TIP3    H228129   4.858   1.916   7.565 -1.2915 -2.7577 -0.7895
 1312TIP3   OH228130   5.737   5.054   7.380  0.0580  0.1615 -0.4248
 1312TIP3    H128131   5.716   5.066   7.288 -1.8208 -1.0662 -0.2166
 1312TIP3    H228132   5.721   5.140   7.420 -1.1636  0.1848 -0.9272
 1313TIP3   OH228133   3.946   0.406   6.267  0.5772  0.8129  0.4727
 1313TIP3    H128134   3.868   0.379   6.315 -1.2190 -2.0942 -3.4990
 1313TIP3    H228135   4.002   0.329   6.265  1.2624  1.2985 -0.7916
 1314TIP3   OH228136   6.854   4.044   8.464  0.7348  0.2187  0.4175
 1314TIP3    H128137   6.886   3.956   8.484  2.5783  0.5810 -0.7627
 1314TIP3    H228138   6.917   4.103   8.505 -0.7174  1.0422  1.5664
 1315TIP3   OH228139   0.549   5.829   7.549 -0.2696 -0.3082  0.1473
 1315TIP3    H128140   0.510   5.916   7.541 -0.9791 -0.6548 -0.1976
 1315TIP3    H228141   0.516   5.781   7.474  0.3700 -0.7880  0.1641
 1316TIP3   OH228142   2.372   4.266   8.885 -0.1952  0.1889 -0.1394
 1316TIP3    H128143   2.434   4.322   8.932  0.6783 -1.2525  0.5141
 1316TIP3    H228144   2.295   4.262   8.942  0.5192 -0.8341  0.8202
 1317TIP3   OH228145   3.654   1.583   7.225 -0.1801  0.3517 -0.0234
 1317TIP3    H128146   3.562   1.595   7.204  0.2744  1.4787 -1.6182
 1317TIP3    H228147   3.670   1.490   7.210 -0.7053  0.4560 -1.4064
 1318TIP3   OH228148   4.599   6.818   8.189 -0.7358 -0.5157 -0.4802
 1318TIP3    H128149   4.564   6.860   8.110 -1.6115 -0.2328  0.0337
 1318TIP3    H228150   4.684   6.859   8.202 -1.1560  0.4146 -0.5361
 1319TIP3   OH228151   2.548   6.018   6.787 -0.3134 -0.1869 -0.2548
 1319TIP3    H128152   2.621   5.959   6.764 -0.4344 -0.7363  0.7196
 1319TIP3    H228153   2.471   5.961   6.785 -0.9382  0.6215 -2.4133
 1320TIP3   OH228154   1.076   7.245   7.704 -0.5669 -0.4765 -0.1343
 1320TIP3    H128155   1.160   7.236   7.748 -0.3403 -3.1529 -0.9135
 1320TIP3    H228156   1.012   7.256   7.774  0.2212 -0.4417  0.5813
 1321TIP3   OH228157   3.781   6.455   9.196  0.6910 -0.3041  0.1328
 1321TIP3    H128158   3.832   6.432   9.118  0.8177  0.1957  0.0650
 1321TIP3    H228159   3.812   6.394   9.263 -1.2420 -2.4997 -0.8503
 1322TIP3   OH228160   3.828   6.802   7.722 -0.0289  0.1282  0.1546
 1322TIP3    H128161   3.903   6.743   7.718 -0.6716 -0.8082  1.1211
 1322TIP3    H228162   3.845   6.858   7.798  0.4507  1.0110 -0.5986
 1323TIP3   OH228163   1.887   7.385   8.860 -0.2637 -0.0757 -0.0470
 1323TIP3    H128164   1.968   7.402   8.908  1.3456 -0.2497 -2.4985
 1323TIP3    H228165   1.847   7.311   8.906  2.5864 -2.0403 -0.4922
 1324TIP3   OH228166   5.695   2.437   9.114  0.1681  0.2838 -0.3024
 1324TIP3    H128167   5.758   2.509   9.105 -0.8234  1.1446 -0.6004
 1324TIP3    H228168   5.649   2.436   9.030 -1.1831  0.6248  0.4138
 1325TIP3   OH228169   1.396   0.943   7.494 -0.8200 -0.0846  0.1169
 1325TIP3    H128170   1.399   0.852   7.524 -0.5651  0.0758  0.5889
 1325TIP3    H228171   1.462   0.947   7.425  1.5989  0.5052  2.3027
 1326TIP3   OH228172   3.984   4.339   9.587 -0.0557  0.1026  0.0468
 1326TIP3    H128173   3.898   4.370   9.561 -1.0307 -2.5257 -0.1702
 1326TIP3    H228174   4.045   4.390   9.533 -1.4605  1.7100 -0.1043
 1327TIP3   OH228175   2.009   5.446   7.661 -0.3184  0.5861  0.1255
 1327TIP3    H128176   1.971   5.361   7.642 -1.2677  0.9855  0.1677
 1327TIP3    H228177   1.955   5.481   7.732 -0.3338  1.4797 -0.3073
 1328TIP3   OH228178   4.118   5.692   8.306  0.0527 -0.2449  0.0175
 1328TIP3    H128179   4.100   5.782   8.332 -3.2847 -0.7603  0.0641
 1328TIP3    H228180   4.107   5.641   8.387 -2.7808 -1.0657 -0.7572
 1329TIP3   OH228181   5.162   0.196   9.022  0.4143  0.0865  0.1988
 1329TIP3    H128182   5.077   0.237   9.013  0.0288 -0.1545  2.2963
 1329TIP3    H228183   5.185   0.168   8.933 -0.8877  1.6683 -0.6746
 1330TIP3   OH228184   5.729   3.856   7.127 -0.5287  0.1870  0.3331
 1330TIP3    H128185   5.816   3.819   7.134 -0.0324  0.8680 -1.7802
 1330TIP3    H228186   5.719   3.908   7.207  1.1434  0.4220  0.4158
 1331TIP3   OH228187   5.694   4.154   9.193  0.2680 -0.4868 -0.4426
 1331TIP3    H128188   5.766   4.140   9.255  0.9395  0.8405 -0.8868
 1331TIP3    H228189   5.730   4.128   9.108  0.2184  0.1595 -0.6643
 1332TIP3   OH228190   5.306   0.356   8.035 -0.2224 -0.4825 -0.2751
 1332TIP3    H128191   5.236   0.311   8.083 -0.6106 -0.4950 -0.8352
 1332TIP3    H228192   5.362   0.285   8.003  0.6950 -0.4189  1.1226
 1333TIP3   OH228193   2.708   4.571   7.685 -0.1597  0.0699 -0.2169
 1333TIP3    H128194   2.704   4.629   7.760  0.0874 -0.4228  0.1875
 1333TIP3    H228195   2.802   4.562   7.666 -0.1358 -0.8474  0.2570
 1334TIP3   OH228196   0.198   5.108   9.246 -0.1340 -0.7593  0.0733
 1334TIP3    H128197   0.245   5.183   9.212 -1.2522 -0.4865 -0.9400
 1334TIP3    H228198   0.137   5.144   9.311 -0.4853 -0.8176 -0.2196
 1335TIP3   OH228199   4.740   0.696   9.009  0.4977 -0.4552  0.3217
 1335TIP3    H128200   4.804   0.703   8.937 -0.9428  0.0262 -0.9694
 1335TIP3    H228201   4.702   0.783   9.016 -0.8424 -1.0171  0.2643
 1336TIP3   OH228202   0.787   0.391   7.978 -0.4908 -0.2076  0.6383
 1336TIP3    H128203   0.719   0.423   8.037 -2.0791 -2.8027  0.3763
 1336TIP3    H228204   0.791   0.297   7.994  0.2810 -0.7348 -2.1200
 1337TIP3   OH228205   0.968   2.844   9.166  0.4289  0.5742 -0.4408
 1337TIP3    H128206   0.943   2.797   9.087  0.1631 -1.3005  0.7036
 1337TIP3    H228207   1.055   2.811   9.188  0.5871  1.2218 -0.0477
 1338TIP3   OH228208   7.595   5.348   8.607 -0.0052  0.2570  0.2328
 1338TIP3    H128209   7.675   5.308   8.642  0.0622 -0.5287 -0.7671
 1338TIP3    H228210   7.559   5.282   8.548 -0.6837  1.1273 -0.3591
 1339TIP3   OH228211   6.062   6.878   7.463 -0.0588 -0.0529  0.0286
 1339TIP3    H128212   5.985   6.930   7.487  1.1235  1.0751  1.6271
 1339TIP3    H228213   6.106   6.931   7.396 -0.5502 -0.5997 -0.7372
 1340TIP3   OH228214   0.848   4.282   8.533  0.0398 -0.2471 -0.0412
 1340TIP3    H128215   0.901   4.323   8.601  2.0320  0.3320 -1.8149
 1340TIP3    H228216   0.874   4.190   8.533 -0.3474 -0.3600  0.3009
 1341TIP3   OH228217   7.588   4.687   7.510 -0.3888 -0.9106 -0.2009
 1341TIP3    H128218   7.496   4.671   7.489 -0.9802 -2.2156  2.8631
 1341TIP3    H228219   7.625   4.600   7.522  1.1559 -0.3742 -0.8765
 1342TIP3   OH228220   1.501   1.787   8.559 -0.0747 -0.2041 -0.2240
 1342TIP3    H128221   1.473   1.837   8.483  0.6190 -0.9255 -0.9779
 1342TIP3    H228222   1.473   1.697   8.540  1.7847 -0.7688 -0.5636
 1343TIP3   OH228223   1.818   2.718   9.369 -0.1721 -0.0655 -0.6403
 1343TIP3    H128224   1.806   2.771   9.447 -0.8751 -0.4930 -0.4518
 1343TIP3    H228225   1.762   2.758   9.303  0.5078  0.3646 -0.9714
 1344TIP3   OH228226   6.994   3.154   8.586 -0.0371  0.1365  0.3718
 1344TIP3    H128227   7.005   3.067   8.623  2.9622 -0.5916 -1.8259
 1344TIP3    H228228   6.972   3.210   8.660 -3.7223 -2.6317  1.6291
 1345TIP3   OH228229   3.415   0.599   8.083 -0.1298  0.4109 -0.0083
 1345TIP3    H128230   3.446   0.615   8.172  2.2145 -2.9190 -0.0490
 1345TIP3    H228231   3.469   0.656   8.028  0.5881  0.1985  0.4759
 1346TIP3   OH228232   7.403   2.186   7.024  0.2686 -0.1552  0.1558
 1346TIP3    H128233   7.401   2.281   7.010 -1.7269  0.2057  2.1659
 1346TIP3    H228234   7.337   2.151   6.964  0.0378 -0.0849  0.3661
 1347TIP3   OH228235   4.439   3.433   9.095 -0.8194 -0.1294 -0.0524
 1347TIP3    H128236   4.457   3.341   9.076  1.7397  0.5083 -1.1369
 1347TIP3    H228237   4.394   3.466   9.017  2.6511  0.6012 -1.9305
 1348TIP3   OH228238   2.925   6.739   9.057 -0.2803 -0.4700 -0.3372
 1348TIP3    H128239   2.842   6.786   9.061  0.8289  1.7019 -1.0550
 1348TIP3    H228240   2.957   6.754   8.968  1.4958 -0.1089  0.3251
 1349TIP3   OH228241   3.982   1.853   7.945  0.3132 -0.0661 -0.4968
 1349TIP3    H128242   3.970   1.759   7.937 -0.3043  0.0547 -1.1551
 1349TIP3    H228243   4.072   1.869   7.917  0.7143 -0.5525  0.4906
 1350TIP3   OH228244   6.508   3.329   6.977  0.1471 -0.1304 -0.1317
 1350TIP3    H128245   6.553   3.380   6.910  1.4943  1.4800  1.8587
 1350TIP3    H228246   6.578   3.278   7.019  0.2219  2.0530  2.6997
 1351TIP3   OH228247   2.223   2.329   9.298 -0.4656 -0.0151 -0.3057
 1351TIP3    H128248   2.307   2.339   9.342 -0.1880 -0.9712 -0.5913
 1351TIP3    H228249   2.165   2.392   9.341  0.1061 -0.1086  0.6174
 1352TIP3   OH228250   3.684   0.690   9.161  0.0498  0.2693 -0.4889
 1352TIP3    H128251   3.660   0.764   9.217 -0.8764  0.2423 -0.8354
 1352TIP3    H228252   3.756   0.723   9.108 -0.7602  1.1507 -1.0811
 1353TIP3   OH228253   2.373   4.825   7.830 -0.4752  0.4305  0.1583
 1353TIP3    H128254   2.399   4.893   7.892  1.3681 -0.1085  0.0166
 1353TIP3    H228255   2.448   4.815   7.772 -1.0600 -1.0993 -0.3886
 1354TIP3   OH228256   3.371   6.001   7.869  0.0787  0.3727  0.1696
 1354TIP3    H128257   3.399   6.050   7.792 -1.1182  0.4078 -0.2750
 1354TIP3    H228258   3.322   6.065   7.921 -0.5422 -0.0556  0.1284
 1355TIP3   OH228259   4.426   7.119   8.000  0.2582  0.4229 -0.2262
 1355TIP3    H128260   4.397   7.136   7.910 -2.0766 -0.2224  0.3234
 1355TIP3    H228261   4.418   7.024   8.010  0.8324  0.4533  0.5696
 1356TIP3   OH228262   6.353   1.757   9.311 -0.3717 -0.3072  0.3643
 1356TIP3    H128263   6.431   1.809   9.293 -1.2919  1.1648  0.4887
 1356TIP3    H228264   6.313   1.743   9.225 -0.0800 -0.8941  0.3204
 1357TIP3   OH228265   7.401   5.800   7.555  0.0811  0.3345 -0.0291
 1357TIP3    H128266   7.353   5.770   7.477  0.4841  1.5302 -0.7649
 1357TIP3    H228267   7.478   5.744   7.559 -1.4598 -1.8339  1.3531
 1358TIP3   OH228268   0.323   2.789   7.416 -0.3005  0.1441 -0.2959
 1358TIP3    H128269   0.267   2.803   7.493 -0.0142 -2.4275  0.4581
 1358TIP3    H228270   0.286   2.712   7.373  1.0010  0.0841 -1.3659
 1359TIP3   OH228271   3.870   2.173   9.415  0.1224 -0.5280 -0.0553
 1359TIP3    H128272   3.899   2.125   9.338  2.1152  0.8852 -0.2406
 1359TIP3    H228273   3.948   2.217   9.448 -1.5470  2.7333 -0.0172
 1360TIP3   OH228274   6.007   2.303   9.236 -0.3122 -0.5360 -0.0351
 1360TIP3    H128275   6.043   2.392   9.240  0.4332 -0.8614  0.6970
 1360TIP3    H228276   5.919   2.312   9.272 -1.2151  0.3434 -2.2326
 1361TIP3   OH228277   2.492   5.891   8.054  0.1539 -0.5169 -0.4085
 1361TIP3    H128278   2.444   5.885   8.136  0.9412 -1.1975  0.0245
 1361TIP3    H228279   2.424   5.886   7.986 -0.6755  1.7713  0.1649
 1362TIP3   OH228280   6.293   3.573   9.161 -0.2083  0.2072 -0.4631
 1362TIP3    H128281   6.378   3.554   9.121 -0.0324  0.8576 -0.3976
 1362TIP3    H228282   6.310   3.572   9.256  0.0877  1.9149 -0.4630
 1363TIP3   OH228283   7.198   4.143   8.023 -0.7103 -0.7412  0.7086
 1363TIP3    H128284   7.199   4.048   8.011  0.2807 -0.5834 -0.8970
 1363TIP3    H228285   7.125   4.173   7.968  0.2757 -0.4533 -0.5147
 1364TIP3   OH228286   1.322   2.989   7.552 -0.1734  0.0726  0.3934
 1364TIP3    H128287   1.329   3.006   7.458 -2.4110  0.5170  0.2605
 1364TIP3    H228288   1.244   2.935   7.561  1.5300 -2.3881  1.7778
 1365TIP3   OH228289   7.580   0.307   8.295 -0.5661 -0.5928  0.2487
 1365TIP3    H128290   7.529   0.359   8.232 -0.1068  1.5332  1.5573
 1365TIP3    H228291   7.629   0.246   8.240  1.2373  2.3910 -1.7429
 1366TIP3   OH228292   0.212   4.252   9.329  0.5017 -0.1116 -0.0092
 1366TIP3    H128293   0.249   4.165   9.345 -1.1046 -0.6812  0.8511
 1366TIP3    H228294   0.191   4.252   9.236 -1.5822 -1.5529  0.3992
 1367TIP3   OH228295   3.844   0.225   7.567  0.1209  0.6388 -0.6638
 1367TIP3    H128296   3.910   0.178   7.516  1.5375  0.6167  1.0897
 1367TIP3    H228297   3.876   0.315   7.571 -0.4444  0.8420 -0.5496
 1368TIP3   OH228298   6.391   0.165   7.770  0.3749 -0.1143 -0.1058
 1368TIP3    H128299   6.311   0.119   7.745 -0.1078 -0.3156  1.6604
 1368TIP3    H228300   6.362   0.230   7.835  1.4842  0.6027 -0.2996
 1369TIP3   OH228301   4.522   1.851   6.733  0.1947 -0.0134 -0.3684
 1369TIP3    H128302   4.508   1.936   6.689  0.6450  0.6708  0.7673
 1369TIP3    H228303   4.537   1.790   6.661 -2.8063  0.2930 -1.4037
 1370TIP3   OH228304   3.728   3.444   8.626 -1.0948 -0.5067 -0.2710
 1370TIP3    H128305   3.797   3.438   8.691 -1.8316  1.3377  0.7430
 1370TIP3    H228306   3.767   3.408   8.546  1.2514  0.9521  0.1173
 1371TIP3   OH228307   5.827   0.341   9.208 -0.5955  0.4170 -0.1066
 1371TIP3    H128308   5.804   0.409   9.272  0.4620  1.0317 -0.3530
 1371TIP3    H228309   5.743   0.308   9.176 -1.1527  2.7502 -1.1878
 1372TIP3   OH228310   1.178   0.121   8.036  0.2271  0.0267 -0.2748
 1372TIP3    H128311   1.270   0.094   8.036  0.6085  0.9875  2.6631
 1372TIP3    H228312   1.175   0.192   7.972  1.8263  0.7369  0.3636
 1373TIP3   OH228313   5.387   4.733   8.619 -0.1412 -0.2667  0.1213
 1373TIP3    H128314   5.385   4.808   8.559  0.0090  1.1889  1.8541
 1373TIP3    H228315   5.313   4.747   8.678  0.3811 -1.0395  0.9812
 1374TIP3   OH228316   4.434   0.858   8.637  0.2133 -0.8803  0.0334
 1374TIP3    H128317   4.515   0.908   8.635  0.0058 -0.5243  0.3588
 1374TIP3    H228318   4.391   0.885   8.718 -2.2685  2.2000 -2.0865
 1375TIP3   OH228319   3.537   1.792   7.013  0.1935  0.3494  0.2518
 1375TIP3    H128320   3.603   1.861   7.010 -0.1803  0.6798 -0.6514
 1375TIP3    H228321   3.488   1.809   7.093  1.9858 -0.6510  1.6299
 1376TIP3   OH228322   5.798   3.704   8.530  0.1329 -0.3942  0.1205
 1376TIP3    H128323   5.863   3.774   8.520  1.1011 -1.0814  1.4407
 1376TIP3    H228324   5.819   3.663   8.614 -2.5517 -0.0926  1.0205
 1377TIP3   OH228325   3.270   2.202   8.545  0.2884  0.4221  0.5713
 1377TIP3    H128326   3.355   2.223   8.584  1.0635 -1.2706 -0.0986
 1377TIP3    H228327   3.223   2.285   8.543  1.7541  1.3108  1.3761
 1378TIP3   OH228328   5.533   4.654   8.823  0.2512 -0.1567  1.3130
 1378TIP3    H128329   5.455   4.697   8.789 -0.6469 -0.7399  2.5684
 1378TIP3    H228330   5.553   4.701   8.904 -1.0596 -2.3182  2.9992
 1379TIP3   OH228331   5.078   0.359   9.664 -0.2046 -0.5179  0.1628
 1379TIP3    H128332   5.037   0.289   9.715 -0.3041 -0.9553 -0.5068
 1379TIP3    H228333   5.008   0.393   9.609 -0.0369 -0.2279  0.1246
 1380TIP3   OH228334   4.257   3.676   8.493 -0.0960 -0.6494  0.1317
 1380TIP3    H128335   4.174   3.723   8.498 -0.3766 -1.2983  3.3731
 1380TIP3    H228336   4.321   3.745   8.474 -0.7171  0.9521  3.1401
 1381TIP3   OH228337   4.335   5.884   7.604  0.1995 -0.1838 -0.4869
 1381TIP3    H128338   4.319   5.978   7.612  1.4020  0.0056 -0.0962
 1381TIP3    H228339   4.369   5.859   7.690  2.5830 -0.3922 -1.4175
 1382TIP3   OH228340   6.784   3.362   9.067 -0.5745 -0.1984 -0.1633
 1382TIP3    H128341   6.846   3.381   9.137 -0.9634  1.7777 -0.3058
 1382TIP3    H228342   6.700   3.395   9.099 -1.0121 -0.3884 -1.0690
 1383TIP3   OH228343   2.507   4.732   9.510 -0.3802  0.5695  0.5524
 1383TIP3    H128344   2.479   4.643   9.532 -2.4636  0.7906 -0.9374
 1383TIP3    H228345   2.602   4.726   9.505 -0.4834 -1.6753  0.0537
 1384TIP3   OH228346   0.481   4.940   8.059 -0.4813 -0.3898 -0.2490
 1384TIP3    H128347   0.441   4.858   8.030 -0.1458 -0.8469  0.5297
 1384TIP3    H228348   0.408   4.992   8.091 -0.4602 -1.4153  1.6325
 1385TIP3   OH228349   2.824   0.584   8.470  0.3513 -0.0829  0.2766
 1385TIP3    H128350   2.835   0.521   8.541 -0.3882  0.1435  0.5983
 1385TIP3    H228351   2.851   0.536   8.392  0.2964 -0.6268  0.5849
 1386TIP3   OH228352   3.678   3.318   9.235  0.1218  0.2124 -0.4805
 1386TIP3    H128353   3.600   3.369   9.259  0.5568  1.0908 -0.8932
 1386TIP3    H228354   3.644   3.245   9.184 -0.3084  1.5433 -2.1901
 1387TIP3   OH228355   1.994   5.751   9.039  0.8381 -0.1213  0.2976
 1387TIP3    H128356   2.081   5.762   9.077  0.5142 -0.3318  1.1074
 1387TIP3    H228357   1.987   5.657   9.023  0.8721 -0.0664 -0.0521
 1388TIP3   OH228358   2.935   2.798   7.624  0.8134  0.2895 -1.0609
 1388TIP3    H128359   3.009   2.840   7.668 -1.2376  0.8953  2.1146
 1388TIP3    H228360   2.908   2.862   7.557  2.1681  0.7254 -1.2282
 1389TIP3   OH228361   3.751   5.277   8.449  0.1573 -1.1655  0.2871
 1389TIP3    H128362   3.721   5.275   8.539  0.3916 -0.9417  0.3722
 1389TIP3    H228363   3.760   5.371   8.429  0.1045 -1.2134  0.0324
 1390TIP3   OH228364   1.316   2.661   8.261  0.3433 -0.3798 -0.3117
 1390TIP3    H128365   1.281   2.594   8.202  1.8881 -0.9669 -0.6096
 1390TIP3    H228366   1.353   2.612   8.335  0.2801  0.2277  0.1369
 1391TIP3   OH228367   6.267   6.512   9.021  0.4468  0.1751 -0.3242
 1391TIP3    H128368   6.215   6.573   8.969  0.9735  1.1668  0.2940
 1391TIP3    H228369   6.356   6.546   9.017  0.8294 -0.7926 -0.3083
 1392TIP3   OH228370   1.325   2.531   9.389 -0.3901  0.8557 -0.1737
 1392TIP3    H128371   1.385   2.480   9.334 -0.7530 -0.4884  0.6108
 1392TIP3    H228372   1.353   2.511   9.478 -1.6574  0.6243  0.1903
 1393TIP3   OH228373   6.703   6.969   8.390 -0.0308 -1.0136  0.0636
 1393TIP3    H128374   6.731   7.059   8.371  0.8677 -1.4177 -0.6273
 1393TIP3    H228375   6.691   6.929   8.304  0.8369 -1.9184  0.3345
 1394TIP3   OH228376   3.484   0.918   8.509  0.1818  0.0252  0.1770
 1394TIP3    H128377   3.517   0.828   8.515 -0.6465 -0.3476 -0.6537
 1394TIP3    H228378   3.396   0.914   8.548 -0.0339  0.3800 -0.2722
 1395TIP3   OH228379   5.129   2.848   8.902  0.0635 -0.0547  0.2716
 1395TIP3    H128380   5.060   2.847   8.968  0.8142 -1.4224  1.0987
 1395TIP3    H228381   5.086   2.878   8.822 -1.4366 -0.6333  0.8227
 1396TIP3   OH228382   6.533   1.336   9.637 -0.4650  0.3021  0.3078
 1396TIP3    H128383   6.619   1.311   9.669 -0.7339 -2.1988 -0.6597
 1396TIP3    H228384   6.551   1.387   9.558  0.1778 -0.9152 -0.3663
 1397TIP3   OH228385   1.905   6.787   6.622  0.2236 -0.2391  0.0989
 1397TIP3    H128386   1.856   6.745   6.692  0.8153 -0.4036  0.4203
 1397TIP3    H228387   1.955   6.857   6.666 -1.6064  1.5897 -0.5788
 1398TIP3   OH228388   4.888   6.935   8.637  0.1694  0.2072 -0.5185
 1398TIP3    H128389   4.814   6.995   8.633 -1.2108 -1.3600  0.0790
 1398TIP3    H228390   4.883   6.898   8.726  0.9353 -0.8173 -0.8879
 1399TIP3   OH228391   3.701   0.552   7.041  0.4433 -0.3232  0.6138
 1399TIP3    H128392   3.736   0.621   7.097  0.6085 -1.1851  1.5795
 1399TIP3    H228393   3.607   0.573   7.034  0.3952 -0.2907  1.3270
 1400TIP3   OH228394   6.818   4.843   8.461  0.8091  0.2833 -0.2143
 1400TIP3    H128395   6.898   4.808   8.499  1.6365  2.7404  0.5082
 1400TIP3    H228396   6.842   4.863   8.370  1.0655  1.0678  0.0164
 1401TIP3   OH228397   6.699   2.039   7.722  0.7738  0.6737  0.0688
 1401TIP3    H128398   6.767   2.084   7.671  0.2623  0.8772 -0.4487
 1401TIP3    H228399   6.638   2.109   7.747  1.2136  0.6398  1.3091
 1402TIP3   OH228400   3.215   3.838   8.080  0.5509 -0.4379  0.4665
 1402TIP3    H128401   3.137   3.823   8.026 -0.3419  0.1682  1.5596
 1402TIP3    H228402   3.187   3.817   8.169  1.3328  0.7897  1.0192
 1403TIP3   OH228403   4.781   1.135   7.352 -0.9099 -0.0543 -0.0565
 1403TIP3    H128404   4.858   1.130   7.409 -0.5236  0.5151 -0.5159
 1403TIP3    H228405   4.762   1.228   7.346 -1.0211 -0.1164 -0.7597
 1404TIP3   OH228406   3.508   5.660   7.835 -0.1806  0.2468 -0.1170
 1404TIP3    H128407   3.459   5.601   7.779 -2.8128  1.4880  0.7363
 1404TIP3    H228408   3.577   5.696   7.779 -0.2585 -1.4857 -1.3912
 1405TIP3   OH228409   4.668   1.436   7.258 -0.3980  0.2221 -0.0842
 1405TIP3    H128410   4.724   1.495   7.307 -1.0764  0.9361 -0.1442
 1405TIP3    H228411   4.721   1.408   7.183 -0.2865  1.2709 -0.4114
 1406TIP3   OH228412   2.997   5.540   7.363  0.1503  0.8125 -0.1373
 1406TIP3    H128413   3.034   5.555   7.450 -2.6870  1.0589  1.1471
 1406TIP3    H228414   3.002   5.625   7.319  1.1008  0.8204 -0.0357
 1407TIP3   OH228415   5.339   0.239   7.665 -0.0032 -0.0524  0.8227
 1407TIP3    H128416   5.394   0.308   7.628 -1.7863  1.5739  1.0556
 1407TIP3    H228417   5.339   0.171   7.598 -0.4984  1.4131 -0.7460
 1408TIP3   OH228418   5.775   5.632   7.333 -0.0648 -0.3912 -0.7396
 1408TIP3    H128419   5.857   5.592   7.305 -0.0553  0.9391 -2.8136
 1408TIP3    H228420   5.719   5.629   7.255 -0.6973  1.9435 -0.4526
 1409TIP3   OH228421   1.465   4.301   6.783 -0.2067  0.0668 -0.3716
 1409TIP3    H128422   1.397   4.368   6.774 -1.3783 -0.9398  0.6313
 1409TIP3    H228423   1.457   4.248   6.704 -0.3083  0.1952 -0.4469
 1410TIP3   OH228424   5.955   7.349   6.931  0.8454  0.0406 -0.3179
 1410TIP3    H128425   5.923   7.322   6.845  2.4980 -1.4080 -0.5226
 1410TIP3    H228426   6.029   7.407   6.913  0.5737  0.5399  0.1379
 1411TIP3   OH228427   7.230   1.732   8.838  0.1040 -0.0423  0.4254
 1411TIP3    H128428   7.278   1.649   8.848  0.5127 -0.0898 -1.5167
 1411TIP3    H228429   7.201   1.732   8.747  0.7130  2.2657  0.1726
 1412TIP3   OH228430   5.678   6.934   8.805  0.4596  0.3935 -0.0091
 1412TIP3    H128431   5.588   6.943   8.772 -0.0035  0.4570  1.2123
 1412TIP3    H228432   5.727   7.002   8.758  0.2171 -0.5710 -1.7575
 1413TIP3   OH228433   0.794   5.446   8.922 -0.3285  1.0868  0.0787
 1413TIP3    H128434   0.717   5.487   8.960 -0.1044  2.6497 -1.0922
 1413TIP3    H228435   0.846   5.419   8.998 -0.8090  2.3752  0.8941
 1414TIP3   OH228436   2.252   7.647   7.712  0.3507 -0.0037  0.2023
 1414TIP3    H128437   2.311   7.576   7.685 -1.2639 -1.8096  1.1240
 1414TIP3    H228438   2.170   7.602   7.734 -1.0392  2.2795  0.0010
 1415TIP3   OH228439   6.340   5.619   8.559 -0.4231 -0.1244  0.0535
 1415TIP3    H128440   6.335   5.606   8.654 -1.6782  0.2107  0.0519
 1415TIP3    H228441   6.253   5.650   8.534  0.4022  1.5201 -0.9636
 1416TIP3   OH228442   6.045   1.892   8.116 -0.0284 -0.2003 -0.0082
 1416TIP3    H128443   6.083   1.816   8.071  0.8187 -0.0986  0.5025
 1416TIP3    H228444   6.056   1.873   8.209  1.2725  1.0449  0.1332
 1417TIP3   OH228445   6.571   7.448   7.144  1.1519 -0.2745 -0.0623
 1417TIP3    H128446   6.514   7.480   7.074  1.6785 -0.7969 -0.7456
 1417TIP3    H228447   6.588   7.356   7.120  0.1037 -0.9290  1.5569
 1418TIP3   OH228448   3.104   1.965   8.839  0.4967 -0.2929  0.3582
 1418TIP3    H128449   3.145   1.903   8.899  0.6829 -1.1894 -0.6636
 1418TIP3    H228450   3.174   1.989   8.778  0.6759  1.6408  1.2565
 1419TIP3   OH228451   5.620   5.484   7.926  0.0631 -0.9159  0.2681
 1419TIP3    H128452   5.534   5.452   7.953 -0.4573 -0.3115 -0.6095
 1419TIP3    H228453   5.665   5.407   7.892 -0.3787 -1.1167  0.1304
 1420TIP3   OH228454   3.247   0.126   7.193 -0.0968 -0.2228  0.4078
 1420TIP3    H128455   3.276   0.199   7.248  1.0516 -0.7448  0.5255
 1420TIP3    H228456   3.205   0.167   7.118  0.1144  0.5493  0.7067
 1421TIP3   OH228457   1.026   6.741   9.359 -0.3740  0.3502 -0.0950
 1421TIP3    H128458   0.951   6.699   9.401  0.0203 -0.2606  0.0169
 1421TIP3    H228459   1.008   6.835   9.366 -0.6119  0.2448  0.8991
 1422TIP3   OH228460   3.654   1.333   8.533 -0.2217 -0.1321  0.0419
 1422TIP3    H128461   3.565   1.366   8.520 -0.0810  0.9725  1.5892
 1422TIP3    H228462   3.691   1.329   8.445 -1.1006  1.4498 -0.4412
 1423TIP3   OH228463   6.864   1.279   9.598 -0.3434 -0.2549 -0.5632
 1423TIP3    H128464   6.921   1.287   9.675 -2.0187 -0.4756  0.7749
 1423TIP3    H228465   6.880   1.359   9.548 -0.9555  1.1144  1.3077
 1424TIP3   OH228466   4.713   5.778   8.465 -0.3196 -0.4905 -0.0339
 1424TIP3    H128467   4.652   5.763   8.393  1.2868 -0.2449 -1.5226
 1424TIP3    H228468   4.767   5.851   8.435  0.3757 -0.3605  1.4490
 1425TIP3   OH228469   6.773   1.324   8.550 -0.3557  0.3548 -0.4403
 1425TIP3    H128470   6.811   1.240   8.523  0.9270  0.8287 -0.1704
 1425TIP3    H228471   6.711   1.346   8.480 -1.6427 -1.3860  0.0802
 1426TIP3   OH228472   2.633   2.133   7.342  0.0628  0.0828 -0.3381
 1426TIP3    H128473   2.590   2.210   7.305 -0.8074 -0.6859 -0.9777
 1426TIP3    H228474   2.630   2.147   7.437 -1.8546 -0.0355 -0.3376
 1427TIP3   OH228475   2.597   0.475   7.794 -0.2737 -0.2078 -0.0876
 1427TIP3    H128476   2.550   0.507   7.871 -1.9717 -1.1474 -0.6969
 1427TIP3    H228477   2.668   0.422   7.830  0.3748  1.2039  0.8437
 1428TIP3   OH228478   5.625   5.295   9.378  0.2431  0.1716 -0.3367
 1428TIP3    H128479   5.560   5.243   9.427 -1.1813  1.5509 -0.6743
 1428TIP3    H228480   5.681   5.230   9.336 -0.3168 -1.0648  0.7647
 1429TIP3   OH228481   7.408   5.901   6.803 -0.8045 -0.4980  0.1148
 1429TIP3    H128482   7.439   5.970   6.744 -1.2936 -1.7420 -1.6838
 1429TIP3    H228483   7.357   5.947   6.869  0.3592  1.0275  0.0121
 1430TIP3   OH228484   4.403   7.151   8.502  0.5904 -0.5170  0.0934
 1430TIP3    H128485   4.482   7.180   8.458  0.2301  0.5227  0.0957
 1430TIP3    H228486   4.341   7.224   8.492 -0.3217 -1.2473  0.2012
 1431TIP3   OH228487   7.267   1.549   9.224  0.2629  0.4330 -0.1042
 1431TIP3    H128488   7.207   1.491   9.178 -0.5669  0.9636  0.2960
 1431TIP3    H228489   7.276   1.625   9.166  1.5950 -0.2046 -0.7760
 1432TIP3   OH228490   5.353   2.576   7.229  0.2717  0.1174  0.2707
 1432TIP3    H128491   5.340   2.520   7.305  0.4551 -0.9048 -0.4310
 1432TIP3    H228492   5.270   2.624   7.220  0.5229  0.8486  1.5599
 1433TIP3   OH228493   4.737   4.671   7.014  0.2712 -0.4215  0.5098
 1433TIP3    H128494   4.784   4.629   6.941 -0.8450  2.4140 -2.0842
 1433TIP3    H228495   4.645   4.649   6.999 -0.2569  2.0954 -0.4949
 1434TIP3   OH228496   3.265   4.354   8.382  0.0539  0.5209  0.6281
 1434TIP3    H128497   3.270   4.442   8.344  0.5203  0.2803  0.1250
 1434TIP3    H228498   3.336   4.305   8.339 -0.2443 -0.1180  0.8568
 1435TIP3   OH228499   3.259   5.013   9.158  0.2288  0.1507 -0.4889
 1435TIP3    H128500   3.231   5.092   9.112 -3.1519 -0.2976  0.4696
 1435TIP3    H228501   3.263   5.039   9.250 -0.3735 -0.6077 -0.2314
 1436TIP3   OH228502   3.074   5.897   7.942 -0.0308 -0.1408  0.0313
 1436TIP3    H128503   3.069   5.887   8.037  0.0736 -0.5653 -0.0076
 1436TIP3    H228504   3.154   5.851   7.917 -0.5160 -0.7874 -0.3686
 1437TIP3   OH228505   7.524   3.302   9.260 -0.0713  0.7250 -0.2118
 1437TIP3    H128506   7.584   3.289   9.187  1.1037  3.0303  0.2667
 1437TIP3    H228507   7.451   3.352   9.222  0.7351  2.2861  0.2146
 1438TIP3   OH228508   6.186   0.377   9.388  0.1681 -0.3274  0.5044
 1438TIP3    H128509   6.143   0.303   9.430  1.3853 -1.8727 -0.8402
 1438TIP3    H228510   6.115   0.429   9.351 -0.6407 -1.7956 -0.0703
 1439TIP3   OH228511   4.785   7.055   6.796 -0.2271 -0.4415 -0.2210
 1439TIP3    H128512   4.812   6.976   6.748  0.2379 -0.3380 -0.1313
 1439TIP3    H228513   4.690   7.049   6.799 -0.2851 -0.3935 -1.2781
 1440TIP3   OH228514   4.290   6.769   7.111 -0.3487 -0.3453  0.5649
 1440TIP3    H128515   4.343   6.694   7.084 -0.6863 -0.8897  1.3818
 1440TIP3    H228516   4.204   6.732   7.128 -0.5455  0.2532  0.8615
 1441TIP3   OH228517   4.759   5.958   7.985  1.0940  0.3106 -0.0129
 1441TIP3    H128518   4.805   5.879   7.956  0.1537 -0.2659  0.0350
 1441TIP3    H228519   4.829   6.021   8.001  1.9243 -0.7295  0.6432
 1442TIP3   OH228520   1.642   1.169   8.478 -0.1112 -0.1060 -0.1735
 1442TIP3    H128521   1.643   1.261   8.505  0.1434 -0.2709  0.4091
 1442TIP3    H228522   1.719   1.131   8.520 -1.5968 -1.1799  1.8331
 1443TIP3   OH228523   1.041   7.154   7.252 -0.2817 -0.1310 -0.0532
 1443TIP3    H128524   0.982   7.136   7.325 -1.0496 -0.7311 -0.7916
 1443TIP3    H228525   1.096   7.226   7.282  0.9981 -1.8729  1.9705
 1444TIP3   OH228526   4.214   2.203   8.810 -0.3091 -0.4049 -0.3533
 1444TIP3    H128527   4.235   2.146   8.735 -0.8347 -0.9437 -0.0964
 1444TIP3    H228528   4.288   2.191   8.870  0.6407  0.8433 -1.2384
 1445TIP3   OH228529   4.656   2.175   8.583  0.5816  0.1476 -0.3237
 1445TIP3    H128530   4.628   2.093   8.625  0.7124 -0.2690 -1.0411
 1445TIP3    H228531   4.729   2.150   8.527  0.0152  0.5735 -1.2875
 1446TIP3   OH228532   4.112   3.875   7.476 -0.3028 -0.3981 -0.3453
 1446TIP3    H128533   4.084   3.812   7.410 -2.6737  0.2105  0.0071
 1446TIP3    H228534   4.153   3.946   7.425  0.1658 -1.0676 -0.9248
 1447TIP3   OH228535   6.835   7.267   7.102 -0.0107  0.1126  0.2591
 1447TIP3    H128536   6.748   7.230   7.088  0.3693 -0.3278 -1.1598
 1447TIP3    H228537   6.868   7.285   7.014  2.0560 -1.5013  0.5961
 1448TIP3   OH228538   3.639   3.436   7.001  0.5947 -0.6133  0.4776
 1448TIP3    H128539   3.564   3.475   7.047  0.6688  0.1674 -0.0363
 1448TIP3    H228540   3.601   3.367   6.947 -0.0826  1.0265 -1.2644
 1449TIP3   OH228541   0.472   2.078   8.354  1.2251 -0.1290 -0.0567
 1449TIP3    H128542   0.385   2.066   8.318 -0.2623 -0.1941  3.2417
 1449TIP3    H228543   0.496   1.993   8.391  1.8914  0.3209  0.6071
 1450TIP3   OH228544   4.565   1.100   7.054  0.1882 -0.3949 -0.3561
 1450TIP3    H128545   4.547   1.055   7.136  0.1430  1.1050  0.4885
 1450TIP3    H228546   4.603   1.033   6.998  0.0158 -1.5032  0.8003
 1451TIP3   OH228547   7.005   2.257   8.285 -0.3638  0.1384 -0.5917
 1451TIP3    H128548   6.975   2.180   8.333  2.6098 -1.6044 -1.2387
 1451TIP3    H228549   7.000   2.231   8.193 -0.0226  1.0042 -0.8598
 1452TIP3   OH228550   2.937   1.593   7.550  0.5217  0.3483  0.1080
 1452TIP3    H128551   2.962   1.501   7.547 -2.0884 -0.3808 -1.6094
 1452TIP3    H228552   2.948   1.624   7.460  1.0124  1.6556  0.5901
 1453TIP3   OH228553   3.288   2.731   7.906 -0.2708  0.0019 -0.4521
 1453TIP3    H128554   3.210   2.680   7.927 -0.6492  1.2720  1.4844
 1453TIP3    H228555   3.351   2.709   7.975  0.6231 -0.0637 -1.2775
 1454TIP3   OH228556   1.230   3.588   9.517  0.2040 -0.2725 -0.1432
 1454TIP3    H128557   1.325   3.575   9.511  0.1372 -0.8965  0.1063
 1454TIP3    H228558   1.193   3.502   9.496 -0.3209  0.0698 -0.6496
 1455TIP3   OH228559   2.515   5.019   8.015 -0.2711 -0.3326 -0.4050
 1455TIP3    H128560   2.558   5.079   7.953 -0.3864 -0.1699 -0.3282
 1455TIP3    H228561   2.461   5.076   8.069  0.7225 -0.3183  0.6268
 1456TIP3   OH228562   2.793   6.455   8.955 -0.1849  0.5455 -0.0938
 1456TIP3    H128563   2.827   6.497   8.876  0.2101 -1.3875 -1.0132
 1456TIP3    H228564   2.862   6.468   9.020  1.2448 -1.0881 -1.1974
 1457TIP3   OH228565   4.384   7.204   7.752 -0.3186 -0.0093  0.2871
 1457TIP3    H128566   4.473   7.200   7.715  0.3275  0.0774  1.7720
 1457TIP3    H228567   4.342   7.277   7.706  1.3245  1.7871  1.5025
 1458TIP3   OH228568   5.937   3.278   8.115  0.0062 -0.1364  0.0192
 1458TIP3    H128569   5.990   3.339   8.166 -0.7315  0.5550 -0.0346
 1458TIP3    H228570   5.860   3.262   8.169 -0.7465  0.5403 -0.8235
 1459TIP3   OH228571   1.750   2.578   8.861  0.3189  0.1502 -0.1568
 1459TIP3    H128572   1.727   2.591   8.952 -2.0818 -0.9413 -0.5297
 1459TIP3    H228573   1.768   2.666   8.827  1.7081  0.5232  1.4119
 1460TIP3   OH228574   0.372   1.066   9.656  0.0400 -0.4112 -0.2600
 1460TIP3    H128575   0.365   1.065   9.561 -1.3890 -1.0351 -0.1730
 1460TIP3    H228576   0.341   0.979   9.683  3.0979 -1.3381  0.6468
 1461TIP3   OH228577   4.105   4.401   6.989 -0.9611  0.0295 -0.0256
 1461TIP3    H128578   4.176   4.357   6.941 -2.0606 -0.8852 -0.8525
 1461TIP3    H228579   4.025   4.370   6.947 -1.9389 -0.2781  1.9686
 1462TIP3   OH228580   2.081   3.864   6.771 -0.1315 -0.3112 -0.4801
 1462TIP3    H128581   2.086   3.959   6.781 -0.0292 -0.0083 -2.7932
 1462TIP3    H228582   2.172   3.836   6.769 -0.1583 -0.4342  0.0133
 1463TIP3   OH228583   1.200   6.299   7.836 -0.6018  1.0124 -0.7290
 1463TIP3    H128584   1.282   6.347   7.825  0.5585 -0.5394  0.8183
 1463TIP3    H228585   1.201   6.232   7.768  1.2902 -1.4356  1.5557
 1464TIP3   OH228586   5.027   7.484   7.232  0.1130  0.1101  0.0416
 1464TIP3    H128587   4.959   7.552   7.239  1.2271  1.0427  4.0569
 1464TIP3    H228588   5.076   7.509   7.154  0.3035  3.9061  1.1525
 1465TIP3   OH228589   0.647   0.944   7.148 -0.7738  0.0338  0.3980
 1465TIP3    H128590   0.696   0.908   7.074 -1.2815 -1.0132  0.5549
 1465TIP3    H228591   0.601   0.869   7.186 -0.9534  0.6487  1.4487
 1466TIP3   OH228592   5.725   6.379   8.755 -0.3383  0.6099 -0.2036
 1466TIP3    H128593   5.750   6.470   8.774 -0.4652  0.7361 -0.6379
 1466TIP3    H228594   5.743   6.368   8.662 -1.1973  0.4710 -0.3581
 1467TIP3   OH228595   6.338   2.006   8.255  0.8989 -0.2477 -0.1861
 1467TIP3    H128596   6.309   2.001   8.164  1.4109 -0.5242 -0.3417
 1467TIP3    H228597   6.275   1.954   8.304 -1.0440  2.1875  0.0666
 1468TIP3   OH228598   2.362   3.024   7.411  0.6690 -0.0585  0.2057
 1468TIP3    H128599   2.407   2.951   7.370  0.6210 -0.4939  0.9290
 1468TIP3    H228600   2.283   2.986   7.449 -0.1044  0.6234 -0.6788
 1469TIP3   OH228601   1.729   4.211   9.160 -0.0123 -0.1042 -0.2185
 1469TIP3    H128602   1.783   4.151   9.211  0.0495  1.0253  1.0933
 1469TIP3    H228603   1.784   4.234   9.085  0.6348 -0.3349  0.1747
 1470TIP3   OH228604   7.648   1.910   7.779  0.3298 -0.0119  0.3137
 1470TIP3    H128605   7.648   1.990   7.725 -1.2959  0.5027  1.0245
 1470TIP3    H228606   7.572   1.861   7.749  0.4133 -0.5499  0.9651
 1471TIP3   OH228607   7.419   7.600   7.991 -0.0029  0.8029  0.0233
 1471TIP3    H128608   7.475   7.536   7.947 -0.5178  0.0099  0.5101
 1471TIP3    H228609   7.382   7.652   7.919 -0.7798 -0.4291 -0.4977
 1472TIP3   OH228610   6.311   2.157   7.763  0.2175  0.5031  0.5819
 1472TIP3    H128611   6.232   2.209   7.743  0.6832  0.6896 -0.9754
 1472TIP3    H228612   6.280   2.067   7.767  0.1083  0.3790 -1.6470
 1473TIP3   OH228613   2.470   4.881   7.386  0.6684  0.3322 -0.9015
 1473TIP3    H128614   2.432   4.967   7.365  0.2469  0.4960  0.4129
 1473TIP3    H228615   2.408   4.818   7.349  0.1694  0.6037 -0.5531
 1474TIP3   OH228616   5.923   3.271   9.063 -0.1486  0.2621  0.1084
 1474TIP3    H128617   5.979   3.342   9.095  1.1410 -1.1081  1.0269
 1474TIP3    H228618   5.835   3.308   9.064  0.5269  1.9813  0.1368
 1475TIP3   OH228619   5.499   1.376   8.933  0.0132 -0.2146 -0.6185
 1475TIP3    H128620   5.501   1.472   8.926  0.6760 -0.0704  1.1104
 1475TIP3    H228621   5.567   1.346   8.873  1.2625  0.5244  0.4052
 1476TIP3   OH228622   6.707   5.172   7.906  0.7462 -0.0491 -0.5209
 1476TIP3    H128623   6.643   5.227   7.860  0.6521 -0.9969 -1.5548
 1476TIP3    H228624   6.749   5.232   7.968  0.3574  1.1081 -1.3297
 1477TIP3   OH228625   1.782   1.998   9.037  0.1248 -0.0372  0.7436
 1477TIP3    H128626   1.789   1.927   9.101  0.9826 -1.0581 -0.4465
 1477TIP3    H228627   1.871   2.007   9.002 -0.1112  1.2163  0.4316
 1478TIP3   OH228628   1.302   4.309   8.630  0.1218 -0.0846  0.2207
 1478TIP3    H128629   1.334   4.292   8.718 -0.7195 -0.2101  0.5118
 1478TIP3    H228630   1.374   4.355   8.587  0.8033 -0.6188  0.7525
 1479TIP3   OH228631   1.873   6.213   7.185  0.1908  0.0880 -0.2325
 1479TIP3    H128632   1.810   6.284   7.196 -0.5272 -0.6693  0.8020
 1479TIP3    H228633   1.823   6.133   7.201  1.2670 -0.5771 -0.0112
 1480TIP3   OH228634   6.484   1.536   6.927  0.1724 -0.2290  0.0059
 1480TIP3    H128635   6.524   1.582   7.001 -0.8235  0.6767  0.0144
 1480TIP3    H228636   6.464   1.449   6.961 -2.0137  0.7399  1.4872
 1481TIP3   OH228637   7.614   7.392   8.937  0.3683  0.3892  0.1013
 1481TIP3    H128638   7.618   7.434   9.023  0.7621 -1.0620  0.8165
 1481TIP3    H228639   7.525   7.412   8.906  0.0086  0.4473  1.1080
 1482TIP3   OH228640   6.781   6.403   7.498  0.3816 -0.0052 -0.3585
 1482TIP3    H128641   6.788   6.405   7.594  0.6506 -0.4928 -0.3663
 1482TIP3    H228642   6.688   6.384   7.482 -0.0455  1.7971 -0.2188
 1483TIP3   OH228643   4.327   4.283   8.368  0.4510  0.9329  0.2854
 1483TIP3    H128644   4.342   4.303   8.460 -0.1541  1.0546  0.3649
 1483TIP3    H228645   4.242   4.239   8.367  1.4054 -1.0243  0.0334
 1484TIP3   OH228646   3.054   6.836   8.794 -0.2170 -0.6565  0.4098
 1484TIP3    H128647   2.960   6.850   8.805 -0.3983 -2.6767  1.9078
 1484TIP3    H228648   3.085   6.916   8.751 -2.5982  0.0406 -0.1506
 1485TIP3   OH228649   4.490   2.719   7.144  0.1902 -0.0043 -0.1356
 1485TIP3    H128650   4.510   2.731   7.051  0.0087 -0.7489 -0.2752
 1485TIP3    H228651   4.401   2.753   7.154 -0.4399 -1.4233 -0.5934
 1486TIP3   OH228652   2.752   5.954   8.117  0.0610 -0.3263  0.2884
 1486TIP3    H128653   2.658   5.957   8.101 -0.5446  0.9562  3.4509
 1486TIP3    H228654   2.761   5.906   8.200  1.9883  1.1918  1.0462
 1487TIP3   OH228655   4.752   7.135   9.044  0.4509  0.5006  0.2903
 1487TIP3    H128656   4.685   7.167   8.984  0.5011  0.8175  0.4034
 1487TIP3    H228657   4.768   7.045   9.015 -1.2293 -0.1764  1.3090
 1488TIP3   OH228658   1.050   5.503   7.065  0.5095  0.3146  0.0217
 1488TIP3    H128659   0.996   5.507   6.986  2.3942 -1.6806 -1.4995
 1488TIP3    H228660   1.001   5.553   7.130 -3.0208 -1.1168 -1.2786
 1489TIP3   OH228661   3.680   5.493   7.327 -0.4614 -0.1474 -0.6586
 1489TIP3    H128662   3.666   5.400   7.346 -0.0875 -0.1257 -0.2683
 1489TIP3    H228663   3.759   5.494   7.272 -1.0297 -0.1369 -1.4966
 1490TIP3   OH228664   7.363   2.383   8.628  0.3137 -0.3775  0.0769
 1490TIP3    H128665   7.430   2.315   8.630 -0.4381 -1.1424  0.1860
 1490TIP3    H228666   7.356   2.412   8.719 -0.3069 -1.1252  0.2770
 1491TIP3   OH228667   1.965   5.251   9.269 -0.1733  0.2722  0.1677
 1491TIP3    H128668   1.962   5.228   9.176  2.1291  0.3631 -0.0025
 1491TIP3    H228669   2.016   5.181   9.309 -0.0395  0.9026  1.1254
 1492TIP3   OH228670   2.132   2.607   7.948 -0.1773 -0.3637 -0.1523
 1492TIP3    H128671   2.048   2.647   7.926 -0.0126 -0.9222 -1.9647
 1492TIP3    H228672   2.178   2.602   7.864  1.6462 -0.1372  0.7907
 1493TIP3   OH228673   4.714   3.728   8.554 -0.1190 -0.4402 -0.1885
 1493TIP3    H128674   4.786   3.790   8.559 -0.4164 -0.0497 -0.6869
 1493TIP3    H228675   4.746   3.650   8.599  0.5477 -0.2088 -0.2586
 1494TIP3   OH228676   6.284   6.271   7.310 -0.2518  0.3745 -0.2258
 1494TIP3    H128677   6.349   6.226   7.256  0.9652  1.3968  0.3266
 1494TIP3    H228678   6.310   6.363   7.307 -0.4493  0.5319  1.6546
 1495TIP3   OH228679   1.591   1.759   7.927 -0.0032  0.1241 -0.0585
 1495TIP3    H128680   1.516   1.800   7.971  0.0514  0.5359 -0.3504
 1495TIP3    H228681   1.658   1.755   7.995  0.8507  2.7688 -0.6254
 1496TIP3   OH228682   5.421   4.184   9.142 -0.0562 -0.6154  0.2043
 1496TIP3    H128683   5.512   4.161   9.158 -0.1574 -0.7904  0.5411
 1496TIP3    H228684   5.425   4.269   9.098  0.2821 -0.8162 -0.1629
 1497TIP3   OH228685   7.435   1.387   7.296 -0.5681  0.1914 -0.0744
 1497TIP3    H128686   7.467   1.399   7.206  0.2573 -0.4429  0.1210
 1497TIP3    H228687   7.507   1.419   7.350 -0.5553 -0.5749  0.3708
 1498TIP3   OH228688   3.087   0.259   8.363 -0.5763  0.1370  0.4151
 1498TIP3    H128689   3.007   0.286   8.318 -1.3094 -1.1908  0.8807
 1498TIP3    H228690   3.091   0.316   8.440 -0.4229  1.0077 -0.2192
 1499TIP3   OH228691   7.410   4.487   9.404 -0.1584 -0.0228  0.1360
 1499TIP3    H128692   7.496   4.446   9.405 -0.4161 -0.5922 -0.5442
 1499TIP3    H228693   7.364   4.449   9.478 -0.1989 -0.5504 -0.1534
 1500TIP3   OH228694   1.067   3.930   8.347 -0.2770  0.2918  0.0692
 1500TIP3    H128695   0.995   3.957   8.403  1.1592  0.9579  1.6733
 1500TIP3    H228696   1.066   3.834   8.351  0.3515  0.3327  2.0171
 1501TIP3   OH228697   6.510   4.159   8.949  0.1293  0.3107  0.1458
 1501TIP3    H128698   6.575   4.136   9.016  0.5995  1.9862  0.3123
 1501TIP3    H228699   6.430   4.114   8.975  0.1062  1.4758  2.2562
 1502TIP3   OH228700   3.896   1.849   6.744  0.1816  1.0635  0.2209
 1502TIP3    H128701   3.975   1.814   6.701 -0.4381 -0.6400  0.4007
 1502TIP3    H228702   3.824   1.801   6.704 -0.5778  0.9184  1.6969
 1503TIP3   OH228703   3.691   2.471   7.505 -0.0669  0.3734 -0.1677
 1503TIP3    H128704   3.777   2.430   7.508  0.4062  1.3525  0.0389
 1503TIP3    H228705   3.664   2.479   7.596 -0.7946 -0.7527 -0.2650
 1504TIP3   OH228706   4.266   1.004   8.238  0.1111 -0.0309 -0.0366
 1504TIP3    H128707   4.330   1.009   8.167 -1.2860  0.0858 -1.3204
 1504TIP3    H228708   4.236   1.094   8.251 -2.8906 -0.5397 -2.4284
 1505TIP3   OH228709   1.743   7.676   7.116 -0.1934  0.4285 -0.3568
 1505TIP3    H128710   1.823   7.693   7.167 -0.0429  0.5140 -0.6216
 1505TIP3    H228711   1.702   7.762   7.107 -0.3571  0.3725 -0.1535
 1506TIP3   OH228712   0.799   6.829   7.542 -0.0353 -0.4869  0.3198
 1506TIP3    H128713   0.889   6.800   7.526  0.4030  0.5905  0.7263
 1506TIP3    H228714   0.746   6.779   7.480  0.9343 -0.5849 -0.4474
 1507TIP3   OH228715   6.553   4.492   7.392  0.1892  0.2508  0.2731
 1507TIP3    H128716   6.609   4.414   7.388 -1.1922 -0.7455 -1.7575
 1507TIP3    H228717   6.549   4.522   7.301 -2.8525  0.0038  0.2284
 1508TIP3   OH228718   2.945   3.323   8.441  0.0486 -0.0813  0.5652
 1508TIP3    H128719   2.860   3.363   8.460 -1.3348 -1.9883 -1.2133
 1508TIP3    H228720   2.970   3.280   8.523 -0.4056  0.9058  1.2535
 1509TIP3   OH228721   3.850   7.038   7.069 -0.6028 -0.5488  0.4710
 1509TIP3    H128722   3.879   7.017   7.158  0.7189 -0.2599  0.1303
 1509TIP3    H228723   3.762   7.075   7.080 -0.0348  0.4830  1.7660
 1510TIP3   OH228724   5.984   7.128   7.798 -0.5215 -0.5146 -0.3533
 1510TIP3    H128725   5.941   7.158   7.878 -0.6004  0.5628 -0.7771
 1510TIP3    H228726   5.963   7.035   7.793 -0.9353 -0.4887  0.6113
 1511TIP3   OH228727   6.748   0.429   7.240 -0.3730 -0.3736  0.2556
 1511TIP3    H128728   6.683   0.405   7.173 -0.1906  0.0557 -0.0806
 1511TIP3    H228729   6.696   0.457   7.315 -0.5870 -0.0624 -0.0016
 1512TIP3   OH228730   5.066   1.581   9.178 -0.4713  0.3356 -0.1758
 1512TIP3    H128731   5.145   1.527   9.188 -0.8243  0.1082  1.8273
 1512TIP3    H228732   5.047   1.578   9.085  1.2498 -0.5353 -0.5439
 1513TIP3   OH228733   6.425   4.904   8.583  0.5339  0.3851 -0.3823
 1513TIP3    H128734   6.441   4.910   8.489  1.6702 -2.0070 -0.4027
 1513TIP3    H228735   6.509   4.924   8.623  0.4830 -0.2252  0.0402
 1514TIP3   OH228736   7.057   3.575   8.090  0.1116 -0.3617 -0.1191
 1514TIP3    H128737   7.077   3.482   8.096 -1.1781 -0.7467 -1.3471
 1514TIP3    H228738   6.976   3.580   8.040  1.0518  1.5211 -1.6139
 1515TIP3   OH228739   3.399   5.373   8.364 -0.1909  0.3058 -0.3589
 1515TIP3    H128740   3.364   5.348   8.278 -0.6671 -0.6929  0.1032
 1515TIP3    H228741   3.482   5.325   8.371  0.4074  1.2740 -0.7183
 1516TIP3   OH228742   6.126   7.645   8.856  0.1597  0.1255  0.4557
 1516TIP3    H128743   6.124   7.557   8.893 -0.2404 -0.2078 -0.3413
 1516TIP3    H228744   6.209   7.682   8.887  0.6243 -0.7520  0.2849
 1517TIP3   OH228745   5.509   2.327   7.518  0.8110 -0.4173 -0.1163
 1517TIP3    H128746   5.523   2.342   7.612  0.9957  1.4922 -0.4072
 1517TIP3    H228747   5.457   2.402   7.489 -0.8356 -1.9115 -1.2141
 1518TIP3   OH228748   3.735   1.465   9.591  0.0665 -0.2048  0.3559
 1518TIP3    H128749   3.720   1.497   9.502  0.7476 -2.0272 -0.4613
 1518TIP3    H228750   3.669   1.396   9.603 -0.1499  0.1649  1.3522
 1519TIP3   OH228751   3.137   0.035   8.516 -0.1715 -0.0501 -0.0416
 1519TIP3    H128752   3.129   0.099   8.446  0.8386  0.6152  0.4337
 1519TIP3    H228753   3.129   0.086   8.596  1.4700 -0.3513  0.3590
 1520TIP3   OH228754   0.672   3.342   8.804 -0.1152 -0.0435  0.5275
 1520TIP3    H128755   0.603   3.406   8.784  2.5111  2.7569 -0.4288
 1520TIP3    H228756   0.679   3.343   8.899  1.5728  3.3345  0.5258
 1521TIP3   OH228757   4.860   2.557   8.909  0.0629 -0.0194  0.4031
 1521TIP3    H128758   4.940   2.533   8.956 -0.3635 -0.0732  1.1066
 1521TIP3    H228759   4.822   2.628   8.961 -0.5972 -0.3182  0.3355
 1522TIP3   OH228760   3.169   2.682   8.264 -1.1633 -0.5681  0.5164
 1522TIP3    H128761   3.262   2.670   8.282 -1.1338  1.5267  2.1207
 1522TIP3    H228762   3.125   2.618   8.320 -0.7046 -1.2868  0.0604
 1523TIP3   OH228763   2.721   5.613   9.002  0.0798 -0.6945  0.1586
 1523TIP3    H128764   2.696   5.589   8.913  1.1877  2.2617 -1.0949
 1523TIP3    H228765   2.655   5.677   9.029  0.3680 -0.7502  1.0143
 1524TIP3   OH228766   5.945   3.567   7.449 -0.1068 -0.3394  0.1191
 1524TIP3    H128767   6.029   3.562   7.495 -0.5868 -0.0035  1.0367
 1524TIP3    H228768   5.889   3.619   7.506 -0.5572  0.5532 -1.0867
 1525TIP3   OH228769   1.694   0.965   9.582  0.7919  0.0025 -0.1352
 1525TIP3    H128770   1.749   1.040   9.557  0.2414 -0.0778 -1.7096
 1525TIP3    H228771   1.736   0.890   9.540  0.5544 -0.3557  0.2651
 1526TIP3   OH228772   5.049   1.511   8.917  0.5292 -0.6605  0.5540
 1526TIP3    H128773   5.115   1.448   8.945  0.9506 -0.7962 -0.7139
 1526TIP3    H228774   5.034   1.492   8.824 -0.3117  0.2426  0.4813
 1527TIP3   OH228775   3.444   2.611   8.341 -0.7738  0.6495 -0.2661
 1527TIP3    H128776   3.484   2.694   8.314  1.6788  1.3813  4.5687
 1527TIP3    H228777   3.506   2.544   8.313 -0.9482  0.7489 -0.9329
 1528TIP3   OH228778   1.555   4.539   7.047  0.2486  0.1289 -0.3376
 1528TIP3    H128779   1.590   4.581   7.126 -1.1170  1.1634 -0.2429
 1528TIP3    H228780   1.633   4.511   6.998  1.1413  0.5700  0.7881
 1529TIP3   OH228781   0.338   5.609   8.740 -0.0248  0.2418  0.0066
 1529TIP3    H128782   0.394   5.685   8.751  1.7023 -0.7779 -1.2286
 1529TIP3    H228783   0.381   5.540   8.790 -0.3888 -0.4553 -0.6235
 1530TIP3   OH228784   4.774   6.391   9.007 -0.1155 -0.1987 -0.0066
 1530TIP3    H128785   4.713   6.317   9.004  0.7767 -0.9878  0.5749
 1530TIP3    H228786   4.759   6.431   9.093 -0.8229  0.5105 -0.4490
 1531TIP3   OH228787   7.421   2.647   9.473  0.0070  0.1011 -0.2858
 1531TIP3    H128788   7.507   2.644   9.516 -0.2397  1.3181  0.3272
 1531TIP3    H228789   7.382   2.562   9.493  0.1761  0.3736  1.3623
 1532TIP3   OH228790   2.438   5.355   7.399 -0.0535  0.2234  0.6157
 1532TIP3    H128791   2.442   5.261   7.380 -1.2189  0.2985 -0.0615
 1532TIP3    H228792   2.432   5.397   7.314  1.2531  0.9857  0.8696
 1533TIP3   OH228793   6.084   3.199   9.406 -0.2463  0.3286  0.1283
 1533TIP3    H128794   5.995   3.217   9.435 -0.1476 -0.6482  1.0517
 1533TIP3    H228795   6.079   3.115   9.360  0.2927  0.0019  0.6566
 1534TIP3   OH228796   4.090   3.431   8.524 -0.3904 -0.0204 -0.6233
 1534TIP3    H128797   4.079   3.441   8.619 -0.9826 -0.4785 -0.6391
 1534TIP3    H228798   4.157   3.496   8.501 -1.3844  1.2314 -0.1359
 1535TIP3   OH228799   4.087   4.528   9.411  0.1242 -0.4389 -0.2828
 1535TIP3    H128800   4.182   4.530   9.401  0.1837 -0.5546  0.2534
 1535TIP3    H228801   4.061   4.620   9.409  0.5864 -0.1575  2.6359
 1536TIP3   OH228802   4.936   6.483   7.271 -0.4691 -0.3875  0.0102
 1536TIP3    H128803   4.889   6.484   7.188  0.9379 -0.1148 -0.8167
 1536TIP3    H228804   4.929   6.572   7.304 -1.8280 -0.7139  0.6883
 1537TIP3   OH228805   0.265   1.602   7.476 -0.0823 -0.1707 -0.2829
 1537TIP3    H128806   0.191   1.650   7.512 -0.0155  0.8585 -1.4618
 1537TIP3    H228807   0.269   1.522   7.528 -0.2481  1.0385  1.6590
 1538TIP3   OH228808   0.953   1.239   8.201 -0.1470 -0.0853  0.2743
 1538TIP3    H128809   0.905   1.196   8.129  1.6180 -0.4837 -0.7172
 1538TIP3    H228810   1.019   1.175   8.227 -0.5069  0.2064  2.0550
 1539TIP3   OH228811   6.868   5.253   8.376 -0.3870  0.1237  0.1840
 1539TIP3    H128812   6.910   5.248   8.461 -0.3646  1.2681  0.2607
 1539TIP3    H228813   6.776   5.268   8.395 -0.6134 -0.9521  0.0046
 1540TIP3   OH228814   0.038   1.236   6.827 -0.0943 -0.0424 -0.5292
 1540TIP3    H128815  -0.045   1.191   6.839 -0.6738  1.1286  0.0894
 1540TIP3    H228816   0.018   1.310   6.769  0.6224 -0.0361 -0.7823
 1541TIP3   OH228817   2.673   4.777   8.745 -1.1340 -0.2499 -0.0345
 1541TIP3    H128818   2.636   4.772   8.657 -1.7897  0.1881  0.2041
 1541TIP3    H228819   2.690   4.871   8.759  0.2095 -0.4483 -0.1800
 1542TIP3   OH228820   4.262   2.522   8.641  0.1263 -0.0008 -0.3321
 1542TIP3    H128821   4.272   2.430   8.616  0.7265  0.1878 -0.8140
 1542TIP3    H228822   4.325   2.534   8.713 -2.6067 -0.9208  2.4338
 1543TIP3   OH228823   1.620   1.211   7.470  0.7274  0.0376 -0.5524
 1543TIP3    H128824   1.699   1.164   7.442  1.1196  0.3754 -0.0381
 1543TIP3    H228825   1.618   1.289   7.414  0.6507 -0.0730 -0.7024
 1544TIP3   OH228826   0.096   3.931   7.981  0.0463 -0.0616  0.4340
 1544TIP3    H128827   0.089   4.014   7.933  1.2440  0.8119  1.6802
 1544TIP3    H228828   0.034   3.939   8.053 -0.9837 -0.9281 -0.3373
 1545TIP3   OH228829   5.067   0.117   8.354  0.4811 -0.4230 -0.2322
 1545TIP3    H128830   5.044   0.030   8.386  0.4443 -0.2481  0.2294
 1545TIP3    H228831   4.984   0.164   8.351  0.6295 -0.0938  0.4997
 1546TIP3   OH228832   3.094   6.947   9.483 -0.3276 -0.0920 -0.0564
 1546TIP3    H128833   3.054   6.870   9.442  0.6163 -0.6100 -0.0193
 1546TIP3    H228834   3.028   7.016   9.474 -0.5418 -0.4593 -1.5581
 1547TIP3   OH228835   7.574   0.602   8.579 -0.4978 -0.4655 -0.2890
 1547TIP3    H128836   7.663   0.597   8.615 -0.8663 -0.3637  0.6753
 1547TIP3    H228837   7.579   0.670   8.512 -0.0244  0.1080  0.3138
 1548TIP3   OH228838   6.417   4.004   8.467  0.5977  0.0255 -0.1050
 1548TIP3    H128839   6.367   4.084   8.455 -1.5105 -0.6717  2.8476
 1548TIP3    H228840   6.495   4.031   8.516  0.3230  0.3927  0.1336
 1549TIP3   OH228841   0.905   4.455   9.295 -0.0460 -0.5887 -0.3753
 1549TIP3    H128842   0.867   4.507   9.223 -2.9010  0.1477  1.5072
 1549TIP3    H228843   0.899   4.365   9.265  0.3109 -0.2215 -1.6565
 1550TIP3   OH228844   6.562   1.144   7.801 -0.2949  0.2945 -0.1266
 1550TIP3    H128845   6.476   1.118   7.833 -0.1486  0.3744  0.3296
 1550TIP3    H228846   6.547   1.166   7.709 -0.8279  0.6060  0.0289
 1551TIP3   OH228847   5.446   3.657   9.337 -0.4349  0.0307  0.0939
 1551TIP3    H128848   5.368   3.709   9.354 -0.4140  0.4226 -0.9708
 1551TIP3    H228849   5.418   3.592   9.273  0.4136  0.9936 -1.3040
 1552TIP3   OH228850   3.616   1.276   7.124  0.4276 -0.6922 -0.1777
 1552TIP3    H128851   3.539   1.296   7.070 -0.1012 -0.4874  0.6347
 1552TIP3    H228852   3.619   1.180   7.126  0.5833 -0.7016 -0.7478
 1553TIP3   OH228853   2.292   0.099   8.913  0.2825 -0.0926 -0.0102
 1553TIP3    H128854   2.287   0.052   8.996 -1.5837  1.5081  0.8483
 1553TIP3    H228855   2.376   0.145   8.917  0.5441 -0.6174  0.6688
 1554TIP3   OH228856   3.598   6.267   7.311 -0.0765  0.1606 -0.0512
 1554TIP3    H128857   3.660   6.198   7.334 -0.1262  0.5704  1.4370
 1554TIP3    H228858   3.650   6.329   7.260  0.3384 -0.2633 -0.1562
 1555TIP3   OH228859   1.434   2.860   7.075 -0.3222 -0.3281 -0.1513
 1555TIP3    H128860   1.475   2.782   7.038 -0.8768 -0.5905 -0.2242
 1555TIP3    H228861   1.385   2.898   7.003  2.0022  1.5680 -0.8613
 1556TIP3   OH228862   0.465   0.507   8.808  0.3069 -0.3748 -0.1925
 1556TIP3    H128863   0.522   0.541   8.877  0.6784  0.0153 -0.6859
 1556TIP3    H228864   0.390   0.471   8.855  0.5783 -0.1571  0.4194
 1557TIP3   OH228865   5.703   5.730   9.392  0.1488  0.4343  0.1396
 1557TIP3    H128866   5.711   5.771   9.306 -0.4086 -0.9261 -0.5870
 1557TIP3    H228867   5.613   5.748   9.419 -0.6091 -1.4802 -0.8649
 1558TIP3   OH228868   3.702   6.700   8.285  0.1815  0.1448  0.1642
 1558TIP3    H128869   3.615   6.662   8.295  0.2923 -0.3131 -0.5411
 1558TIP3    H228870   3.742   6.693   8.371 -0.7486  1.0432  0.6879
 1559TIP3   OH228871   7.579   4.106   9.014 -0.2400  0.5846  0.0040
 1559TIP3    H128872   7.485   4.100   8.997 -0.4885  2.2365  0.5597
 1559TIP3    H228873   7.620   4.078   8.933 -1.1924 -0.5516 -0.1164
 1560TIP3   OH228874   6.514   5.322   8.131 -0.1197  0.0559 -0.0897
 1560TIP3    H128875   6.460   5.337   8.054  0.2093 -0.5208 -0.4351
 1560TIP3    H228876   6.453   5.332   8.205 -0.0548  2.5603 -0.2646
 1561TIP3   OH228877   4.215   1.805   7.605  0.1332 -0.1014 -0.3390
 1561TIP3    H128878   4.291   1.827   7.551 -0.1373 -0.3822 -0.8424
 1561TIP3    H228879   4.142   1.849   7.562  0.5578  4.3514  2.7404
 1562TIP3   OH228880   1.883   6.412   7.406  0.2381  0.2643 -0.7037
 1562TIP3    H128881   1.893   6.465   7.327  0.8730  1.4075  0.1114
 1562TIP3    H228882   1.887   6.321   7.375  0.2283  0.6845 -1.9970
 1563TIP3   OH228883   5.774   5.898   9.126 -0.3396 -0.0870  0.0573
 1563TIP3    H128884   5.799   5.987   9.103  0.0806 -0.0579  0.6113
 1563TIP3    H228885   5.795   5.846   9.048  0.2966  0.1429  0.0724
 1564TIP3   OH228886   3.522   1.582   6.847  0.2908  0.2606 -0.1865
 1564TIP3    H128887   3.535   1.636   6.925 -0.2987 -0.4009  0.3876
 1564TIP3    H228888   3.435   1.544   6.858  0.1376  0.2694 -1.2499
 1565TIP3   OH228889   7.378   1.756   9.084 -0.2408  0.4663  1.3118
 1565TIP3    H128890   7.392   1.844   9.117 -0.4857  0.6798  0.8534
 1565TIP3    H228891   7.320   1.767   9.009  0.5264  0.0295  0.6332
 1566TIP3   OH228892   6.579   1.501   7.492  0.2779  0.0099 -0.0909
 1566TIP3    H128893   6.553   1.528   7.403 -0.4668 -0.2151  0.0532
 1566TIP3    H228894   6.666   1.463   7.480  0.5481  0.7547 -0.5920
 1567TIP3   OH228895   7.353   5.771   8.678  0.7836 -0.2085 -0.1664
 1567TIP3    H128896   7.304   5.713   8.619 -0.0331 -0.4009  0.6618
 1567TIP3    H228897   7.397   5.712   8.739 -0.8849 -0.0102  1.3359
 1568TIP3   OH228898   7.343   7.489   7.493 -0.0236 -0.8218  0.6601
 1568TIP3    H128899   7.418   7.515   7.440  2.5086  0.6332  4.5543
 1568TIP3    H228900   7.345   7.393   7.493  0.4369 -0.8508 -0.9676
 1569TIP3   OH228901   6.934   1.594   7.676  0.1653 -0.7602 -0.2611
 1569TIP3    H128902   6.859   1.591   7.735  0.5489 -0.3814  0.2596
 1569TIP3    H228903   6.998   1.536   7.716  0.9431  0.5366  0.4392
 1570TIP3   OH228904   5.439   1.588   8.207 -0.2559  0.0305  0.5023
 1570TIP3    H128905   5.428   1.638   8.287  0.2326 -0.1157  0.6618
 1570TIP3    H228906   5.415   1.499   8.230  1.7399 -0.4281  1.0210
 1571TIP3   OH228907   3.834   2.338   8.491 -0.1308  0.0468  0.5858
 1571TIP3    H128908   3.901   2.399   8.460  0.7231 -1.2064 -0.1218
 1571TIP3    H228909   3.879   2.284   8.556  0.3478 -2.4448 -1.6546
 1572TIP3   OH228910   5.964   2.006   9.669  0.5091 -0.0810  0.0369
 1572TIP3    H128911   5.907   1.950   9.616  0.1595 -1.3450  1.6878
 1572TIP3    H228912   5.975   1.959   9.751  0.9153  1.8939  1.1819
 1573TIP3   OH228913   3.256   4.434   8.087 -0.4883  0.3487 -0.1890
 1573TIP3    H128914   3.161   4.427   8.084 -0.4422 -0.1495 -0.7093
 1573TIP3    H228915   3.286   4.344   8.105 -0.0253 -0.0018 -2.4909
 1574TIP3   OH228916   3.875   3.815   7.201  0.3046  0.1095  0.2961
 1574TIP3    H128917   3.969   3.806   7.215  0.5662  2.2782  0.2872
 1574TIP3    H228918   3.855   3.754   7.131  1.5232 -1.0224  0.8847
 1575TIP3   OH228919   3.956   6.346   7.474  0.5711 -0.2425 -0.1639
 1575TIP3    H128920   3.926   6.344   7.383  0.4135  0.5837 -0.1390
 1575TIP3    H228921   4.040   6.392   7.470  0.0238  0.8115  0.2468
 1576TIP3   OH228922   5.752   5.305   7.735  0.1914  0.0262 -0.0710
 1576TIP3    H128923   5.812   5.372   7.768 -1.7810  1.1344  1.5298
 1576TIP3    H228924   5.730   5.335   7.647 -0.4975  1.4421  0.5443
 1577TIP3   OH228925   7.356   0.710   9.494  0.0024  0.3521  0.0710
 1577TIP3    H128926   7.388   0.650   9.427 -1.6243  0.0954 -0.5238
 1577TIP3    H228927   7.434   0.757   9.524  1.4046 -2.2291  0.7837
 1578TIP3   OH228928   5.261   5.715   8.923 -0.0142 -0.1649  0.1934
 1578TIP3    H128929   5.296   5.800   8.898 -1.1907  0.9831  2.1997
 1578TIP3    H228930   5.338   5.665   8.950  0.5134  0.9318  0.8038
 1579TIP3   OH228931   3.526   3.569   7.673  0.0609 -0.3389 -0.2926
 1579TIP3    H128932   3.462   3.498   7.676 -1.1492  0.7375  0.3158
 1579TIP3    H228933   3.487   3.634   7.615 -0.6191  1.4119  1.9858
 1580TIP3   OH228934   5.902   0.613   8.601 -0.3484  0.1686  0.2400
 1580TIP3    H128935   5.835   0.629   8.534  0.4842  1.5491 -0.3052
 1580TIP3    H228936   5.859   0.638   8.683 -0.2664  1.9172 -0.2025
 1581TIP3   OH228937   6.613   1.437   8.360 -0.1885  0.2886 -0.1857
 1581TIP3    H128938   6.662   1.376   8.304  0.2764  0.2752  0.2309
 1581TIP3    H228939   6.526   1.398   8.367 -0.0908  0.0171 -0.4675
 1582TIP3   OH228940   0.084   3.781   8.226 -0.2895 -0.1522  0.1806
 1582TIP3    H128941   0.050   3.862   8.263 -0.0457 -0.1815  0.4723
 1582TIP3    H228942   0.090   3.721   8.300  0.3221 -0.1708  0.1199
 1583TIP3   OH228943   0.153   6.091   8.284  0.5872 -0.5091  0.2866
 1583TIP3    H128944   0.155   5.997   8.267 -0.9907 -1.0613  2.6110
 1583TIP3    H228945   0.211   6.102   8.360  0.0409  0.2373  0.6039
 1584TIP3   OH228946   0.318   1.747   9.424  0.5065 -0.1031 -0.0232
 1584TIP3    H128947   0.291   1.776   9.337 -0.4146  0.3317  0.3951
 1584TIP3    H228948   0.244   1.694   9.455 -0.2360  1.6705  1.4246
 1585TIP3   OH228949   3.538   3.326   8.000  0.1632  0.4241 -0.3667
 1585TIP3    H128950   3.540   3.302   7.908  2.2528  1.3259 -0.5982
 1585TIP3    H228951   3.477   3.401   8.003  1.2012  1.3488 -1.3047
 1586TIP3   OH228952   2.434   2.516   8.235  0.3155 -0.4881  1.1776
 1586TIP3    H128953   2.528   2.509   8.222  0.1168 -1.3895  0.1009
 1586TIP3    H228954   2.412   2.445   8.295  0.5272  0.6960  2.7111
 1587TIP3   OH228955   2.884   1.626   8.694  0.4379 -0.0509 -0.7530
 1587TIP3    H128956   2.892   1.720   8.710 -1.1558 -0.3363  2.4919
 1587TIP3    H228957   2.933   1.585   8.766 -1.4147 -1.6272 -0.3001
 1588TIP3   OH228958   1.921   6.521   7.150 -0.6048  0.2641  1.0933
 1588TIP3    H128959   1.959   6.473   7.077 -0.7015 -1.2795  2.0197
 1588TIP3    H228960   1.832   6.542   7.120  0.2175  2.1204 -0.2789
 1589TIP3   OH228961   5.696   5.602   8.570  0.1961  0.3965  0.0458
 1589TIP3    H128962   5.774   5.545   8.576  1.0489  1.5564  0.2780
 1589TIP3    H228963   5.727   5.687   8.600 -1.0537  1.0007 -0.3553
 1590TIP3   OH228964   1.701   5.656   7.100  0.3368 -0.4939  0.1369
 1590TIP3    H128965   1.704   5.694   7.012  1.0583 -2.1028 -0.5783
 1590TIP3    H228966   1.782   5.685   7.142 -0.5095  1.1694  0.7015
 1591TIP3   OH228967   2.963   7.048   8.238 -0.3685 -0.7348 -0.2330
 1591TIP3    H128968   3.023   6.995   8.291  0.0853 -1.2588 -1.2413
 1591TIP3    H228969   2.983   7.023   8.148 -0.2592  1.0468 -0.7307
 1592TIP3   OH228970   2.999   3.842   6.611  0.4342 -0.0463  0.0206
 1592TIP3    H128971   2.931   3.890   6.658  2.0979  0.6723  1.8425
 1592TIP3    H228972   3.047   3.911   6.564  1.3684 -0.2139  0.7139
 1593TIP3   OH228973   7.150   2.074   8.772 -0.2179  0.2612  0.3309
 1593TIP3    H128974   7.241   2.092   8.748 -0.8735  0.2310 -2.5443
 1593TIP3    H228975   7.103   2.153   8.748 -0.9117  0.6381  2.6459
 1594TIP3   OH228976   7.216   0.740   7.254  0.4676  0.4617 -0.2225
 1594TIP3    H128977   7.128   0.722   7.287  0.3809 -1.0341 -1.1924
 1594TIP3    H228978   7.202   0.800   7.181  0.3628  1.0243  0.2481
 1595TIP3   OH228979   6.211   6.988   7.217 -0.7389  0.0500 -0.0716
 1595TIP3    H128980   6.286   6.995   7.158 -1.0642 -1.2807 -0.6631
 1595TIP3    H228981   6.148   7.051   7.181 -0.9549 -0.7745 -1.2008
 1596TIP3   OH228982   6.000   1.652   7.181  0.7311  0.1476 -0.0985
 1596TIP3    H128983   5.938   1.598   7.231  1.7129 -0.6151  0.3149
 1596TIP3    H228984   5.982   1.742   7.210  0.2743 -0.1357  0.5132
 1597TIP3   OH228985   3.195   5.251   9.417 -0.2109  0.0604 -0.0788
 1597TIP3    H128986   3.133   5.313   9.457 -0.6795 -0.3448 -0.1701
 1597TIP3    H228987   3.211   5.186   9.485  2.3200  1.6510  0.9769
 1598TIP3   OH228988   6.922   7.246   8.042 -0.3000  0.0005  0.0168
 1598TIP3    H128989   6.974   7.167   8.061 -1.2711 -0.1107  2.6094
 1598TIP3    H228990   6.832   7.213   8.031 -0.6182  0.6763  0.5486
 1599TIP3   OH228991   6.618   5.693   8.523  0.3362 -0.0467 -0.0622
 1599TIP3    H128992   6.629   5.618   8.581  0.4971  0.2775  0.3385
 1599TIP3    H228993   6.525   5.715   8.529  0.0895 -0.8253 -0.9582
 1600TIP3   OH228994   4.505   1.968   7.849  0.3731  0.0395 -0.1698
 1600TIP3    H128995   4.538   1.882   7.824  0.5186  0.4573 -1.5139
 1600TIP3    H228996   4.575   2.005   7.904  0.0610 -0.8922  0.8973
 1601TIP3   OH228997   3.274   4.202   8.728 -0.0779  0.2775  0.1847
 1601TIP3    H128998   3.332   4.259   8.778 -1.2342 -0.2003  2.2055
 1601TIP3    H228999   3.215   4.261   8.682 -1.4235  0.7918  2.4496
 1602TIP3   OH229000   4.373   7.280   9.435 -0.2596 -0.0647 -0.3681
 1602TIP3    H129001   4.362   7.239   9.350 -0.0811 -2.7058  0.7907
 1602TIP3    H229002   4.330   7.365   9.427 -1.2330 -0.7143 -2.7130
 1603TIP3   OH229003   0.587   2.763   7.434  0.1183 -0.4116 -0.1830
 1603TIP3    H129004   0.600   2.816   7.355 -1.4177  1.1597  0.5385
 1603TIP3    H229005   0.492   2.761   7.446  0.3222  0.5717  2.3311
 1604TIP3   OH229006   2.513   7.649   6.945  0.3694 -1.1273 -0.5489
 1604TIP3    H129007   2.516   7.576   7.006 -2.4430 -0.6001  0.3756
 1604TIP3    H229008   2.475   7.611   6.865  0.5742 -1.0379 -0.6894
 1605TIP3   OH229009   4.876   5.952   8.291 -0.0600 -0.2482 -0.1149
 1605TIP3    H129010   4.858   5.998   8.209  1.9780 -1.7230 -1.4870
 1605TIP3    H229011   4.970   5.932   8.288  0.3313  0.4415  3.0426
 1606TIP3   OH229012   3.963   0.389   7.186  0.4935  0.4270  0.0233
 1606TIP3    H129013   3.940   0.368   7.095  0.2325 -1.4358  0.4810
 1606TIP3    H229014   4.052   0.356   7.196 -0.5287 -2.2771  1.2457
 1607TIP3   OH229015   1.237   0.834   8.511 -0.1057  0.1742  0.0676
 1607TIP3    H129016   1.318   0.884   8.502  0.5237 -0.9233 -0.5523
 1607TIP3    H229017   1.226   0.791   8.426 -1.2167  0.1172  0.2259
 1608TIP3   OH229018   4.052   5.839   7.494 -0.5923  0.8333 -0.4416
 1608TIP3    H129019   4.131   5.786   7.501 -0.9549  0.2317 -0.8145
 1608TIP3    H229020   4.071   5.901   7.424 -0.7392  0.1696 -1.0769
 1609TIP3   OH229021   3.164   5.041   7.833  0.7157 -0.1727  0.5894
 1609TIP3    H129022   3.111   5.036   7.912 -0.6411 -3.8381 -0.3673
 1609TIP3    H229023   3.255   5.040   7.865  0.1977 -0.8057  2.1152
 1610TIP3   OH229024   1.966   2.708   8.450  0.4838 -0.4153  0.6382
 1610TIP3    H129025   1.934   2.668   8.369  0.1254 -0.2428  0.6958
 1610TIP3    H229026   2.036   2.649   8.479 -0.1996 -1.1365  0.8495
 1611TIP3   OH229027   3.017   4.827   7.710 -0.3043  0.1216  0.3643
 1611TIP3    H129028   3.025   4.804   7.802 -2.2993 -0.0239  0.5437
 1611TIP3    H229029   3.047   4.918   7.705 -0.1392  0.1179  1.1261
 1612TIP3   OH229030   6.803   1.572   8.013 -0.2090  0.3113  0.1846
 1612TIP3    H129031   6.719   1.530   7.994  0.2168 -1.1607  1.3762
 1612TIP3    H229032   6.795   1.659   7.974 -1.8129 -0.2220 -0.7929
 1613TIP3   OH229033   6.371   0.306   7.542 -0.0541  0.4308  0.7351
 1613TIP3    H129034   6.391   0.276   7.630  1.2552 -0.7704  0.0843
 1613TIP3    H229035   6.440   0.268   7.488 -1.6860 -0.1759 -1.0510
 1614TIP3   OH229036   5.883   0.985   8.051 -0.7551 -0.0116 -0.2298
 1614TIP3    H129037   5.963   0.937   8.073 -1.0467 -0.8631 -0.9935
 1614TIP3    H229038   5.884   1.061   8.110 -0.1061 -0.7511  0.7428
 1615TIP3   OH229039   1.846   1.871   8.354 -0.1011  0.3841  0.6360
 1615TIP3    H129040   1.813   1.947   8.402  1.1679  1.3017  0.1157
 1615TIP3    H229041   1.841   1.799   8.417  1.6922  1.5788  2.2753
 1616TIP3   OH229042   4.843   4.833   8.381  0.6372  0.1784 -0.2124
 1616TIP3    H129043   4.912   4.785   8.427 -0.4343 -1.2138 -0.0071
 1616TIP3    H229044   4.768   4.831   8.440  0.1247  0.8768 -0.8214
 1617TIP3   OH229045   6.432   0.096   8.543 -0.1093  1.1531 -0.1959
 1617TIP3    H129046   6.450   0.173   8.489  1.2273  1.0142  0.0070
 1617TIP3    H229047   6.380   0.129   8.616 -0.2162  1.7151 -0.5218
 1618TIP3   OH229048   4.283   1.613   6.729  0.1391 -0.5236 -0.2295
 1618TIP3    H129049   4.278   1.701   6.693 -1.3496 -0.1648  0.7512
 1618TIP3    H229050   4.248   1.556   6.661  0.6672 -0.3209 -0.6805
 1619TIP3   OH229051   4.122   2.482   7.921  0.2995 -0.0350 -0.1909
 1619TIP3    H129052   4.103   2.421   7.849 -0.0220 -3.0894  2.2661
 1619TIP3    H229053   4.210   2.458   7.950 -0.5649 -0.7691  2.0508
 1620TIP3   OH229054   2.514   1.601   7.266 -0.1141 -0.4363  0.0292
 1620TIP3    H129055   2.602   1.569   7.248 -0.2949 -1.4601  0.9090
 1620TIP3    H229056   2.468   1.592   7.183  0.4393 -0.4286 -0.2868
 1621TIP3   OH229057   3.448   1.367   8.851 -0.2012  0.1855  0.5647
 1621TIP3    H129058   3.450   1.459   8.828 -0.6670  0.2794  0.8822
 1621TIP3    H229059   3.519   1.356   8.914 -0.3240  0.3844  0.7355
 1622TIP3   OH229060   0.254   1.584   8.436 -0.7403  0.0429  0.4892
 1622TIP3    H129061   0.316   1.580   8.363 -0.8140  1.9536  0.2708
 1622TIP3    H229062   0.169   1.561   8.397 -0.4963 -0.6792  0.3717
 1623TIP3   OH229063   1.679   3.686   8.210 -0.4306 -0.2608 -0.3642
 1623TIP3    H129064   1.645   3.685   8.299  0.4375 -1.1671 -0.0361
 1623TIP3    H229065   1.620   3.628   8.161  0.5369 -1.7512  0.1816
 1624TIP3   OH229066   2.426   6.796   7.048 -0.3423 -0.0214 -0.9074
 1624TIP3    H129067   2.456   6.880   7.016  0.3483 -0.1325 -0.5644
 1624TIP3    H229068   2.499   6.736   7.032 -0.4984 -0.3666 -0.3491
 1625TIP3   OH229069   6.284   6.962   8.938  0.2788  0.0424  0.1253
 1625TIP3    H129070   6.210   7.004   8.893  0.9240 -0.9342 -1.9682
 1625TIP3    H229071   6.335   7.035   8.972  0.7711  1.0291 -2.4449
 1626TIP3   OH229072   4.645   7.680   8.772  0.3685  0.5400  0.3687
 1626TIP3    H129073   4.597   7.754   8.809 -0.9884 -1.0571  1.9825
 1626TIP3    H229074   4.716   7.720   8.722 -2.1593  3.0009 -1.5170
 1627TIP3   OH229075   2.252   6.749   8.324  0.2694 -0.2445  0.0080
 1627TIP3    H129076   2.197   6.701   8.262  1.3988  0.1607 -1.3748
 1627TIP3    H229077   2.312   6.683   8.359  1.5318  0.0144 -1.5601
 1628TIP3   OH229078   7.214   5.247   8.474 -0.0701 -0.5890 -0.0928
 1628TIP3    H129079   7.305   5.217   8.462  0.1088 -0.0644 -0.0490
 1628TIP3    H229080   7.167   5.167   8.498  0.1796 -1.0681 -1.1108
 1629TIP3   OH229081   0.156   5.499   9.097  0.4241  0.2576 -0.3199
 1629TIP3    H129082   0.210   5.578   9.107  1.1095 -0.1912 -0.4156
 1629TIP3    H229083   0.205   5.430   9.141 -1.1263  0.2750  1.5207
 1630TIP3   OH229084   1.482   4.965   8.050 -0.5035  0.0322  0.3611
 1630TIP3    H129085   1.507   5.010   8.131 -0.3904  1.3042 -0.3531
 1630TIP3    H229086   1.387   4.974   8.046 -0.5180 -0.1113  0.4117
 1631TIP3   OH229087   1.945   2.782   7.755 -0.2203  0.0067  0.1333
 1631TIP3    H129088   2.008   2.854   7.748  1.6753 -1.4530  1.1753
 1631TIP3    H229089   1.978   2.715   7.695 -0.3621 -1.0657  1.2092
 1632TIP3   OH229090   5.165   1.212   7.896  0.0155 -0.4043  0.2975
 1632TIP3    H129091   5.092   1.273   7.898 -1.1138 -1.6102 -1.5460
 1632TIP3    H229092   5.139   1.141   7.955  0.1730 -0.3563  0.4281
 1633TIP3   OH229093   5.236   7.502   7.588  0.5315 -0.3082  0.3004
 1633TIP3    H129094   5.282   7.576   7.549 -0.2640 -0.4007 -0.8775
 1633TIP3    H229095   5.143   7.521   7.574  0.2987 -1.2868  0.4276
 1634TIP3   OH229096   1.421   0.879   9.503 -0.4052 -0.0630 -0.1043
 1634TIP3    H129097   1.493   0.922   9.550 -0.3475  0.0877 -0.3332
 1634TIP3    H229098   1.346   0.937   9.516 -0.3593  0.0392 -0.3042
 1635TIP3   OH229099   4.460   2.190   8.942  0.3627  0.2289  0.2820
 1635TIP3    H129100   4.521   2.232   9.002  0.8437 -0.8035  0.5292
 1635TIP3    H229101   4.516   2.146   8.878 -0.1356  0.0846 -0.0595
 1636TIP3   OH229102   5.125   0.968   9.036 -0.1613 -0.3730 -0.4529
 1636TIP3    H129103   5.131   0.931   9.124 -0.0791  1.5990  0.4270
 1636TIP3    H229104   5.208   1.013   9.023 -0.4343 -0.0935 -1.2775
 1637TIP3   OH229105   3.162   1.778   9.018 -0.2897 -0.3894 -0.0104
 1637TIP3    H129106   3.113   1.810   9.094 -1.5628  0.7591 -1.2611
 1637TIP3    H229107   3.254   1.786   9.044 -0.6813  0.5133  1.2020
 1638TIP3   OH229108   3.691   2.711   8.676 -0.0077  0.0934 -0.0202
 1638TIP3    H129109   3.724   2.756   8.598 -1.1653 -0.7961 -1.0684
 1638TIP3    H229110   3.675   2.782   8.739 -0.5625  1.0285 -1.1701
 1639TIP3   OH229111   0.630   4.261   8.874 -0.2480  0.0194  0.2755
 1639TIP3    H129112   0.582   4.231   8.951 -0.8279  0.5525  0.1338
 1639TIP3    H229113   0.711   4.210   8.875 -1.6886 -2.4851 -0.6458
 1640TIP3   OH229114   0.517   1.816   8.515  0.4957  0.2093 -0.6506
 1640TIP3    H129115   0.533   1.726   8.487 -0.9550 -0.2018 -0.2329
 1640TIP3    H229116   0.485   1.808   8.605  0.7521  1.1846 -0.4509
 1641TIP3   OH229117   2.788   1.992   7.829 -0.8630 -0.2566  0.3242
 1641TIP3    H129118   2.779   1.965   7.737  0.5341 -0.7004  0.2990
 1641TIP3    H229119   2.762   2.084   7.829 -1.7002 -0.4765 -0.3542
 1642TIP3   OH229120   5.481   2.461   9.548 -0.0908 -0.6878  0.2060
 1642TIP3    H129121   5.446   2.484   9.462 -0.8287  2.2380  1.1456
 1642TIP3    H229122   5.466   2.367   9.556  0.2586 -1.1166 -2.9146
 1643TIP3   OH229123   2.571   6.576   7.361  0.3123  0.7922 -0.2375
 1643TIP3    H129124   2.489   6.582   7.313 -0.8427  0.2025  1.5299
 1643TIP3    H229125   2.637   6.557   7.295 -1.2492 -0.4397 -1.5299
 1644TIP3   OH229126   1.380   2.366   8.976  0.0567 -0.3299  0.1382
 1644TIP3    H129127   1.460   2.343   8.930  0.0661  0.2974 -0.1864
 1644TIP3    H229128   1.312   2.313   8.934 -0.2530  1.5168 -1.9290
 1645TIP3   OH229129   2.848   3.208   7.864  0.0105 -0.1726  0.3282
 1645TIP3    H129130   2.754   3.216   7.880  0.1102 -0.8652  1.3329
 1645TIP3    H229131   2.884   3.291   7.893 -0.1362 -0.4237  1.2573
 1646TIP3   OH229132   5.520   7.529   9.150 -1.0486  0.2471 -0.4617
 1646TIP3    H129133   5.473   7.540   9.067  0.6013  0.8016 -1.3708
 1646TIP3    H229134   5.530   7.434   9.159 -1.1847  0.1839 -0.9380
 1647TIP3   OH229135   5.934   1.356   8.568 -0.4315  0.0886 -0.4603
 1647TIP3    H129136   5.885   1.393   8.494  2.2269  1.6628 -1.5540
 1647TIP3    H229137   5.982   1.282   8.530 -1.8009 -1.4225  0.5937
 1648TIP3   OH229138   1.456   5.234   9.251  0.1776 -0.0177  0.1483
 1648TIP3    H129139   1.458   5.138   9.245 -0.1485  0.0195 -0.5885
 1648TIP3    H229140   1.547   5.259   9.263  0.2764 -0.4130  0.2367
 1649TIP3   OH229141   4.610   5.656   7.486  0.7348 -0.2755  0.1898
 1649TIP3    H129142   4.670   5.584   7.470  1.5322  0.1943  0.9926
 1649TIP3    H229143   4.598   5.657   7.581 -0.8091 -0.5571  0.0304
 1650TIP3   OH229144   1.653   1.241   7.072  0.1402 -0.1109 -0.3076
 1650TIP3    H129145   1.713   1.173   7.041 -1.0229 -0.6576 -1.4540
 1650TIP3    H229146   1.602   1.265   6.995 -1.2593  0.1826  0.6723
 1651TIP3   OH229147   5.059   5.397   7.574  0.2908  0.0815  0.7068
 1651TIP3    H129148   5.131   5.360   7.626  0.7970 -0.1434 -0.1440
 1651TIP3    H229149   5.063   5.491   7.593  0.7861  0.0663  0.6954
 1652TIP3   OH229150   7.158   2.775   7.963 -0.2184  0.4562  0.7570
 1652TIP3    H129151   7.122   2.862   7.951 -0.1249  0.1547 -2.6509
 1652TIP3    H229152   7.088   2.725   8.006 -2.3386  0.9883 -1.8122
 1653TIP3   OH229153   2.352   2.467   7.387  0.1140 -0.5703 -0.5188
 1653TIP3    H129154   2.349   2.545   7.332 -0.9738 -1.2184 -1.4326
 1653TIP3    H229155   2.408   2.406   7.340  2.8933  0.3978  1.3064
 1654TIP3   OH229156   3.303   4.736   9.173  0.3970 -0.1436  0.5467
 1654TIP3    H129157   3.267   4.820   9.145  0.9033 -0.3376 -0.7529
 1654TIP3    H229158   3.387   4.758   9.213  0.3344  0.0047  0.5987
 1655TIP3   OH229159   3.327   3.406   7.537 -0.2217  0.5202  0.1735
 1655TIP3    H129160   3.413   3.367   7.551  0.5216  1.0582 -2.4181
 1655TIP3    H229161   3.292   3.419   7.625  2.6090  0.9369  1.3366
 1656TIP3   OH229162   4.438   4.945   6.901 -0.0786 -0.4507  0.0794
 1656TIP3    H129163   4.421   5.034   6.869  0.2925 -0.2787  0.3482
 1656TIP3    H229164   4.531   4.946   6.926  0.3583 -1.3732 -1.3846
 1657TIP3   OH229165   2.419   6.583   8.039  0.4083  0.3517  0.3755
 1657TIP3    H129166   2.502   6.631   8.049  1.5136 -1.2749 -0.4954
 1657TIP3    H229167   2.416   6.526   8.116  0.7304 -0.4569 -0.1961
 1658TIP3   OH229168   0.892   1.131   6.983  0.6756 -0.3791  0.1498
 1658TIP3    H129169   0.813   1.168   7.020  0.7551 -0.4834  0.4296
 1658TIP3    H229170   0.874   1.037   6.977  0.6649 -0.3628 -0.0696
 1659TIP3   OH229171   0.911   2.749   8.450  0.5497  0.0740  0.1887
 1659TIP3    H129172   0.968   2.814   8.410  1.1515 -0.3823  0.2870
 1659TIP3    H229173   0.878   2.698   8.376  0.6481  0.0406  0.1667
 1660TIP3   OH229174   7.235   5.316   7.860  0.0876  0.4411 -0.6888
 1660TIP3    H129175   7.204   5.384   7.919  0.3771  1.5706 -1.7703
 1660TIP3    H229176   7.299   5.361   7.804  1.8229 -1.2037 -0.1456
 1661TIP3   OH229177   5.794   4.088   8.947  0.1005  0.3529 -0.1048
 1661TIP3    H129178   5.885   4.068   8.927 -0.0933  0.1058 -0.7798
 1661TIP3    H229179   5.745   4.054   8.872 -0.7400 -1.2886  1.1235
 1662TIP3   OH229180   0.724   6.141   9.214 -0.5655  0.1548 -0.0631
 1662TIP3    H129181   0.678   6.192   9.147 -1.0380  0.8715  0.7840
 1662TIP3    H229182   0.807   6.118   9.174 -1.2422 -0.3116 -1.2699
 1663TIP3   OH229183   5.507   5.894   7.949  0.2749  0.1000 -0.1418
 1663TIP3    H129184   5.551   5.920   8.030  0.8257 -0.3172 -0.2962
 1663TIP3    H229185   5.574   5.905   7.881  0.2981 -0.9887 -0.3108
 1664TIP3   OH229186   5.355   7.158   9.231  0.0908  0.5671 -0.5267
 1664TIP3    H129187   5.345   7.072   9.273 -0.2781 -0.2969 -2.2607
 1664TIP3    H229188   5.333   7.221   9.299 -0.2958 -0.7461  0.6115
 1665TIP3   OH229189   5.687   0.026   8.680 -0.4817 -0.4298  0.0275
 1665TIP3    H129190   5.711   0.118   8.678  1.6881 -0.9466 -1.9895
 1665TIP3    H229191   5.671   0.008   8.772  1.2751  1.4511  0.7858
 1666TIP3   OH229192   4.937   0.714   9.317 -0.2087  0.1443  0.0150
 1666TIP3    H129193   4.907   0.729   9.227 -1.5411 -0.8624  0.2564
 1666TIP3    H229194   5.027   0.746   9.317  0.0425 -0.3851 -1.8597
 1667TIP3   OH229195   2.027   7.083   8.652  0.0412  0.2106  0.5456
 1667TIP3    H129196   2.064   7.171   8.664  1.5060 -0.1969 -0.6858
 1667TIP3    H229197   1.936   7.099   8.628 -0.0662  1.3351  1.5969
 1668TIP3   OH229198   2.206   5.393   6.698  0.1548 -0.1331  0.1245
 1668TIP3    H129199   2.223   5.309   6.741 -1.2781 -1.6241 -2.0351
 1668TIP3    H229200   2.234   5.380   6.608  0.3022  1.8867 -0.1582
 1669TIP3   OH229201   3.879   2.848   8.202  0.5210  0.1446  0.3109
 1669TIP3    H129202   3.859   2.754   8.200 -1.1988  0.4839 -1.4897
 1669TIP3    H229203   3.972   2.853   8.178  0.4907 -1.0710 -0.1437
 1670TIP3   OH229204   0.602   6.835   8.285 -0.4267 -0.0867  0.4057
 1670TIP3    H129205   0.511   6.847   8.310 -0.1532  1.1296  0.9193
 1670TIP3    H229206   0.599   6.795   8.199 -1.4215 -2.2362  1.3695
 1671TIP3   OH229207   5.222   0.557   8.383 -0.0090  0.0599  0.3320
 1671TIP3    H129208   5.308   0.582   8.351 -0.7187 -0.8429 -2.6346
 1671TIP3    H229209   5.232   0.465   8.410  0.2920  0.4385  1.5641
 1672TIP3   OH229210   5.771   4.406   8.945  0.5579  0.6134 -0.0637
 1672TIP3    H129211   5.734   4.318   8.960  1.1190  0.7520  2.7380
 1672TIP3    H229212   5.838   4.393   8.878 -0.8858 -0.6495 -1.3248
 1673TIP3   OH229213   3.550   3.446   7.336 -0.3691 -0.5030  0.4589
 1673TIP3    H129214   3.530   3.488   7.251 -1.0196 -1.9685 -0.1433
 1673TIP3    H229215   3.635   3.481   7.360 -0.3665  0.2831 -0.5867
 1674TIP3   OH229216   3.030   3.286   8.718 -0.2306 -0.1408 -0.3442
 1674TIP3    H129217   2.967   3.342   8.764 -0.8948  0.0158 -1.4310
 1674TIP3    H229218   3.108   3.340   8.710  0.0463 -0.3151  0.9575
 1675TIP3   OH229219   1.307   5.362   8.177  0.3126 -0.1660  0.2652
 1675TIP3    H129220   1.341   5.383   8.090  0.2101 -1.6196 -0.1532
 1675TIP3    H229221   1.363   5.411   8.238 -0.2206  1.6294 -0.6452
 1676TIP3   OH229222   3.681   3.816   7.513 -0.8562  0.4187  0.2876
 1676TIP3    H129223   3.654   3.864   7.591  0.2975  0.5339  0.6460
 1676TIP3    H229224   3.749   3.871   7.474 -0.8342 -0.0395 -0.3315
 1677TIP3   OH229225   6.051   2.922   7.725  0.0517  0.3964 -0.0823
 1677TIP3    H129226   5.997   2.981   7.674 -2.3652 -1.4212  0.2146
 1677TIP3    H229227   6.068   2.970   7.807  2.0064  2.3819 -1.5261
 1678TIP3   OH229228   3.130   5.245   9.087 -0.0187  0.0948 -0.3037
 1678TIP3    H129229   3.197   5.312   9.073 -1.6133  1.7486 -0.3396
 1678TIP3    H229230   3.103   5.256   9.178 -0.4188 -0.3957 -0.3576
 1679TIP3   OH229231   7.227   7.148   6.731 -0.2027  0.2695  0.1071
 1679TIP3    H129232   7.167   7.079   6.760  0.4341 -0.2219  0.2732
 1679TIP3    H229233   7.207   7.159   6.638 -2.1519  1.7465  0.6172
 1680TIP3   OH229234   6.566   0.461   6.738 -0.9208 -0.1950 -0.1266
 1680TIP3    H129235   6.480   0.438   6.703 -0.8752 -1.1893  0.3933
 1680TIP3    H229236   6.575   0.555   6.719 -1.3538 -0.4600 -1.7897
 1681TIP3   OH229237   5.429   7.003   8.638  0.0844  0.3660 -0.6541
 1681TIP3    H129238   5.386   7.066   8.582 -1.0056  2.1566  1.9887
 1681TIP3    H229239   5.359   6.945   8.668  1.2572 -3.5377 -4.3585
 1682TIP3   OH229240   0.398   7.466   8.588  0.4193 -0.4739  0.1541
 1682TIP3    H129241   0.365   7.550   8.618  0.6044 -0.1260 -0.5831
 1682TIP3    H229242   0.493   7.478   8.582  0.3813 -0.5026 -0.6221
 1683TIP3   OH229243   2.918   5.089   7.469 -0.0895  0.2584  0.1789
 1683TIP3    H129244   2.851   5.066   7.533 -1.9030 -0.2162 -1.8004
 1683TIP3    H229245   2.955   5.005   7.442  0.6385  0.4531  0.5458
 1684TIP3   OH229246   1.114   3.769   7.309  0.2273  0.0406  0.1401
 1684TIP3    H129247   1.113   3.787   7.215 -0.2531  0.4388  0.2200
 1684TIP3    H229248   1.198   3.725   7.324  1.0098  1.3741 -0.2115
 1685TIP3   OH229249   1.930   4.940   7.548  0.1851  0.0971 -0.1202
 1685TIP3    H129250   2.018   4.938   7.585  0.5995  0.9762 -1.0253
 1685TIP3    H229251   1.924   4.860   7.496 -0.1558 -0.7972  1.2553
 1686TIP3   OH229252   4.582   0.936   9.004 -0.5049  0.1436 -0.0337
 1686TIP3    H129253   4.536   0.962   9.084  1.8529 -1.1664  1.9049
 1686TIP3    H229254   4.670   0.972   9.014  0.6570 -2.2812 -0.6913
 1687TIP3   OH229255   5.025   2.991   8.665  0.4021 -0.2509 -0.0102
 1687TIP3    H129256   5.009   2.968   8.574  3.4580 -1.6157 -0.3313
 1687TIP3    H229257   4.980   3.074   8.678 -1.0141 -0.5751 -2.4253
 1688TIP3   OH229258   3.722   0.731   7.989  0.6672  0.0890  0.2621
 1688TIP3    H129259   3.781   0.778   7.930 -0.3994  0.5183 -0.4997
 1688TIP3    H229260   3.726   0.640   7.960 -0.4684  0.4206 -1.0705
 1689TIP3   OH229261   5.232   3.562   6.832  0.5114  0.0383 -0.0366
 1689TIP3    H129262   5.264   3.493   6.774 -2.5959 -3.3945  1.9053
 1689TIP3    H229263   5.292   3.560   6.906  1.7310  1.1045 -0.9504
 1690TIP3   OH229264   4.156   1.259   8.169 -0.1856  0.2275 -0.0806
 1690TIP3    H129265   4.141   1.326   8.235  1.7752  0.7615 -0.1136
 1690TIP3    H229266   4.211   1.302   8.103 -0.2347 -0.9443 -0.9236
 1691TIP3   OH229267   3.189   7.297   8.477  0.0290 -0.0258  0.3669
 1691TIP3    H129268   3.125   7.285   8.407  0.1570  1.2457  0.0131
 1691TIP3    H229269   3.138   7.294   8.558 -0.2109 -0.8300  0.1901
 1692TIP3   OH229270   1.126   7.260   8.335  0.2119 -0.2464  0.2747
 1692TIP3    H129271   1.103   7.210   8.257 -0.1350 -0.5220  0.5518
 1692TIP3    H229272   1.146   7.194   8.402  1.1490 -0.0180  0.2413
 1693TIP3   OH229273   0.148   1.336   9.260 -0.2441 -0.1361  0.0006
 1693TIP3    H129274   0.233   1.375   9.241  0.7418 -2.5396 -0.8605
 1693TIP3    H229275   0.094   1.356   9.183 -0.0771  0.3426  0.0064
 1694TIP3   OH229276   2.132   7.248   9.091  0.2810 -0.5438 -0.0659
 1694TIP3    H129277   2.099   7.230   9.179 -1.4556  1.0005 -0.3621
 1694TIP3    H229278   2.117   7.166   9.043 -0.9756 -0.6194  0.4349
 1695TIP3   OH229279   1.975   4.857   9.262  0.3360  0.5020 -0.1889
 1695TIP3    H129280   1.887   4.846   9.299  0.1624  3.1540  0.4050
 1695TIP3    H229281   2.032   4.803   9.317 -0.6049  0.5631  0.8839
 1696TIP3   OH229282   3.004   2.063   8.057  0.2835  0.1066 -0.3075
 1696TIP3    H129283   2.969   2.150   8.037  0.0553 -0.1714 -1.1367
 1696TIP3    H229284   2.972   2.007   7.986  2.0494 -0.2584 -0.8495
 1697TIP3   OH229285   3.558   2.137   7.386 -0.0441 -0.5983 -0.2491
 1697TIP3    H129286   3.635   2.113   7.333 -0.8728 -1.1016 -1.2667
 1697TIP3    H229287   3.531   2.223   7.352 -0.7819 -1.0752 -0.9167
 1698TIP3   OH229288   2.463   5.629   8.299 -0.0768  0.6491 -0.0277
 1698TIP3    H129289   2.458   5.724   8.300 -0.1225  0.6444  1.1013
 1698TIP3    H229290   2.554   5.610   8.276 -0.3093  0.9371 -1.2587
 1699TIP3   OH229291   4.202   0.972   9.454 -0.2561 -0.0803 -0.5598
 1699TIP3    H129292   4.199   1.019   9.370  0.4616  1.4704  0.2352
 1699TIP3    H229293   4.199   1.041   9.520  0.2108 -1.2083  0.6828
 1700TIP3   OH229294   0.834   7.304   8.529 -0.0631  0.4042 -0.3080
 1700TIP3    H129295   0.909   7.289   8.472  1.3946  0.6127  1.4398
 1700TIP3    H229296   0.806   7.216   8.557  0.8078  0.3792  0.5475
 1701TIP3   OH229297   6.879   0.586   9.782  0.1790  0.4370  0.5963
 1701TIP3    H129298   6.971   0.595   9.756 -0.2409  1.0556 -0.7942
 1701TIP3    H229299   6.837   0.663   9.746 -1.4209 -1.2413 -1.4147
 1702TIP3   OH229300   5.005   3.689   6.770  0.0575  0.1170 -0.1639
 1702TIP3    H129301   5.030   3.707   6.679  0.8737  0.0648  0.0400
 1702TIP3    H229302   5.084   3.652   6.810 -0.5141 -0.5566  0.3740
 1703TIP3   OH229303   2.538   0.714   8.582 -0.1678  0.2732  0.2199
 1703TIP3    H129304   2.625   0.753   8.575  0.3857 -0.6968  1.3374
 1703TIP3    H229305   2.484   0.783   8.619  0.6391  0.2550  1.5216
 1704TIP3   OH229306   0.129   0.365   7.604 -0.2801  0.2456  0.2360
 1704TIP3    H129307   0.085   0.292   7.647  2.2611 -1.0705  0.7793
 1704TIP3    H229308   0.218   0.362   7.637  0.6700  1.7947 -1.9750
 1705TIP3   OH229309   3.816   3.626   7.028 -0.8763  0.4224  0.0199
 1705TIP3    H129310   3.752   3.554   7.021 -1.5068  0.7901  1.4659
 1705TIP3    H229311   3.901   3.584   7.012 -1.0994 -0.9643  2.0189
 1706TIP3   OH229312   0.243   0.020   8.761  0.8750  0.1868 -0.1696
 1706TIP3    H129313   0.253  -0.002   8.854  0.0591 -1.0636 -0.3532
 1706TIP3    H229314   0.153   0.051   8.753  0.6721 -0.4943 -0.6691
 1707TIP3   OH229315   0.655   1.370   7.546  0.2092 -0.3731  0.4537
 1707TIP3    H129316   0.668   1.306   7.475 -0.6265 -0.3036  0.2303
 1707TIP3    H229317   0.625   1.449   7.501 -1.6891 -0.7438  0.9855
 1708TIP3   OH229318   2.935   0.435   7.635  0.0914  0.3484 -0.2279
 1708TIP3    H129319   2.926   0.440   7.730 -0.6769 -1.1232 -0.1896
 1708TIP3    H229320   3.029   0.440   7.620  0.5062 -2.4591  0.8845
 1709TIP3   OH229321   4.259   5.399   8.799 -0.2421 -0.1212 -0.4563
 1709TIP3    H129322   4.310   5.320   8.819  0.6599  0.3336 -0.8900
 1709TIP3    H229323   4.192   5.369   8.738 -1.5667 -1.0634  1.3580
 1710TIP3   OH229324   4.284   3.080   7.654 -0.2679  0.0082 -1.1417
 1710TIP3    H129325   4.324   3.002   7.614  0.5807 -0.8618  1.2100
 1710TIP3    H229326   4.273   3.141   7.581 -2.7810 -2.9396 -3.5277
 1711TIP3   OH229327   7.477   3.217   8.340 -0.7276 -0.6616 -0.0212
 1711TIP3    H129328   7.481   3.244   8.248  0.3032  0.2370  0.2699
 1711TIP3    H229329   7.476   3.121   8.337  0.1164 -0.6534 -0.9481
 1712TIP3   OH229330   1.706   4.854   9.396 -0.3043  0.0876 -0.3852
 1712TIP3    H129331   1.661   4.883   9.317 -0.7184  0.0473 -0.1709
 1712TIP3    H229332   1.636   4.822   9.453 -0.1150  0.9334  0.3532
 1713TIP3   OH229333   6.818   4.491   7.565  0.3417 -0.2357 -0.4203
 1713TIP3    H129334   6.860   4.549   7.501  0.3291  0.0440 -0.1787
 1713TIP3    H229335   6.776   4.550   7.627 -0.7784 -0.5095 -0.8944
 1714TIP3   OH229336   0.821   0.424   8.364  0.2512 -0.5248  0.3499
 1714TIP3    H129337   0.896   0.448   8.309 -0.3276  0.7970  0.0941
 1714TIP3    H229338   0.824   0.329   8.369  0.3399 -0.6873 -1.9426
 1715TIP3   OH229339   4.411   2.760   9.404 -0.0191 -0.6185 -0.7987
 1715TIP3    H129340   4.341   2.716   9.452 -1.1588  2.2556  0.3739
 1715TIP3    H229341   4.481   2.771   9.469  0.4096 -0.9920 -1.1894
 1716TIP3   OH229342   0.244   3.805   8.647  0.7520 -0.2187 -0.1198
 1716TIP3    H129343   0.288   3.828   8.566  1.1826  0.1627  0.2203
 1716TIP3    H229344   0.166   3.757   8.619  2.1328 -2.2888 -0.6932
 1717TIP3   OH229345   7.280   4.118   9.375  0.0007  0.1929  0.0203
 1717TIP3    H129346   7.305   4.167   9.296  0.9670 -0.8766 -0.3651
 1717TIP3    H229347   7.235   4.041   9.341 -0.3246  0.1460  0.5588
 1718TIP3   OH229348   3.448   3.995   8.364  0.4749  0.0939 -0.2558
 1718TIP3    H129349   3.413   3.910   8.337 -2.2771  0.8820  0.5555
 1718TIP3    H229350   3.463   4.042   8.282 -1.2401  0.0050 -0.6598
 1719TIP3   OH229351   2.193   6.201   9.000 -0.2867  0.1201 -0.5011
 1719TIP3    H129352   2.204   6.180   9.092 -2.0654 -0.1134 -0.2986
 1719TIP3    H229353   2.223   6.291   8.991  0.6618 -0.1169  0.1115
 1720TIP3   OH229354   7.461   0.837   8.871 -0.4308  0.1183  0.5670
 1720TIP3    H129355   7.406   0.819   8.948 -0.3009 -0.1572  0.5962
 1720TIP3    H229356   7.422   0.915   8.832 -2.0652 -1.1828 -0.5397
 1721TIP3   OH229357   4.708   0.777   8.277  0.2514  0.3293 -1.1962
 1721TIP3    H129358   4.784   0.786   8.334 -0.7700  1.6639  0.0493
 1721TIP3    H229359   4.657   0.705   8.315 -0.3339  1.0936 -0.4918
 1722TIP3   OH229360   1.353   1.850   8.777  0.0969 -0.0896  0.0656
 1722TIP3    H129361   1.425   1.813   8.726  1.1881  1.3688  0.4711
 1722TIP3    H229362   1.384   1.850   8.867  0.0697  1.5393  0.1144
 1723TIP3   OH229363   0.320   4.546   9.068  0.0894  0.1915 -0.3346
 1723TIP3    H129364   0.401   4.548   9.018  2.1481 -1.4859  2.6600
 1723TIP3    H229365   0.288   4.457   9.058  1.3724 -0.6664  2.3588
 1724TIP3   OH229366   5.472   7.108   7.842  0.0787 -0.3859 -0.6871
 1724TIP3    H129367   5.457   7.150   7.927  1.0214 -0.0374 -0.6690
 1724TIP3    H229368   5.426   7.025   7.847 -0.2486 -0.1717  0.0021
 1725TIP3   OH229369   7.464   5.739   9.059  0.6228 -0.1936 -0.4831
 1725TIP3    H129370   7.382   5.693   9.038  0.4472 -0.3140  0.4249
 1725TIP3    H229371   7.436   5.815   9.111  1.1036 -0.3934  0.0786
 1726TIP3   OH229372   2.634   3.389   8.807  0.4838  0.1764 -0.3241
 1726TIP3    H129373   2.582   3.324   8.760  0.4252  0.9199 -1.3308
 1726TIP3    H229374   2.620   3.470   8.759  1.4142  0.7048  0.2576
 1727TIP3   OH229375   5.483   1.723   9.169 -0.3056  0.1365 -0.4956
 1727TIP3    H129376   5.555   1.785   9.157  0.9527 -1.2708 -0.6488
 1727TIP3    H229377   5.457   1.699   9.081 -1.1348  0.8142 -0.4399
 1728TIP3   OH229378   3.136   4.110   8.376 -0.5686 -0.0495  0.0630
 1728TIP3    H129379   3.178   4.138   8.295 -0.3454  1.7089  0.7429
 1728TIP3    H229380   3.130   4.189   8.429 -1.2214 -1.0426  1.5539
 1729TIP3   OH229381   6.478   0.423   7.192 -0.0355  0.6796 -0.2931
 1729TIP3    H129382   6.428   0.450   7.115 -0.3093  1.0106 -0.0083
 1729TIP3    H229383   6.432   0.465   7.265  0.5280  0.7947 -0.0026
 1730TIP3   OH229384   4.636   6.677   9.151 -0.2368 -0.0168  0.1484
 1730TIP3    H129385   4.716   6.728   9.167  0.0600 -0.2435 -0.5786
 1730TIP3    H229386   4.604   6.656   9.238  0.7162 -0.2529  0.4516
 1731TIP3   OH229387   7.227   0.290   8.103 -0.3264 -0.1186  0.0206
 1731TIP3    H129388   7.219   0.383   8.084  0.7001 -0.2865 -1.4316
 1731TIP3    H229389   7.184   0.247   8.028 -2.3842 -0.8488  1.5095
 1732TIP3   OH229390   7.442   7.587   8.272  0.0687 -0.2879  0.4734
 1732TIP3    H129391   7.435   7.586   8.176  1.3069 -0.5824  0.3667
 1732TIP3    H229392   7.397   7.667   8.299 -0.2293 -0.1652 -0.3601
 1733TIP3   OH229393   5.629   2.420   8.457 -0.0375 -0.3786 -0.1602
 1733TIP3    H129394   5.715   2.416   8.415 -0.5354  2.3400 -1.6247
 1733TIP3    H229395   5.582   2.344   8.423  0.5958  0.0902 -2.1963
 1734TIP3   OH229396   0.209   0.910   8.094 -0.2409 -0.0941  0.0968
 1734TIP3    H129397   0.216   0.999   8.058 -1.8560  0.4593  1.0455
 1734TIP3    H229398   0.131   0.874   8.053 -0.5834 -0.4272  1.0144
 1735TIP3   OH229399   6.522   1.604   7.937  0.7592  0.3257  0.1085
 1735TIP3    H129400   6.507   1.529   7.994  1.6677 -0.0017 -0.0721
 1735TIP3    H229401   6.461   1.592   7.864  0.9747 -0.2908  0.0277
 1736TIP3   OH229402   6.836   5.653   9.510 -0.0727 -0.4915 -0.3682
 1736TIP3    H129403   6.811   5.640   9.601 -0.9983  1.2276 -0.3501
 1736TIP3    H229404   6.932   5.650   9.510 -0.0568 -0.0773  0.7149
 1737TIP3   OH229405   0.365   1.762   7.716 -0.0322 -0.0755 -0.3360
 1737TIP3    H129406   0.299   1.719   7.769  0.3314 -0.1760  0.0407
 1737TIP3    H229407   0.438   1.701   7.713  0.5968  0.6198  0.4361
 1738TIP3   OH229408   5.985   3.071   7.462  0.0169  0.4234 -0.3152
 1738TIP3    H129409   6.023   2.995   7.416  0.9357  0.4352  0.3874
 1738TIP3    H229410   6.022   3.147   7.416 -2.2029  0.5348 -2.1081
 1739TIP3   OH229411   7.679   6.268   7.870 -0.4967  0.4559 -0.2106
 1739TIP3    H129412   7.735   6.281   7.793  0.1053  0.4202  0.2162
 1739TIP3    H229413   7.693   6.347   7.922  1.0341 -0.5887  1.0637
 1740TIP3   OH229414   0.737   1.057   9.225 -0.3358  0.6028 -0.2736
 1740TIP3    H129415   0.780   1.131   9.182  1.6827 -1.3828 -1.9071
 1740TIP3    H229416   0.741   1.078   9.318  1.9531  1.7117 -0.5506
 1741TIP3   OH229417   5.491   3.421   8.154  0.3252  0.5779  0.3377
 1741TIP3    H129418   5.508   3.335   8.115 -0.0356 -0.7583  2.9073
 1741TIP3    H229419   5.406   3.447   8.117  0.9963  0.4555 -1.3963
 1742TIP3   OH229420   6.208   2.774   9.103  0.3090  0.1636  1.0925
 1742TIP3    H129421   6.174   2.736   9.021 -0.2189  1.6695  0.5886
 1742TIP3    H229422   6.300   2.793   9.084  0.1524  0.6360  0.8003
 1743TIP3   OH229423   4.328   1.264   7.010  0.2462  0.1740  0.5814
 1743TIP3    H129424   4.406   1.213   7.031 -0.2647 -0.1982  1.6215
 1743TIP3    H229425   4.259   1.199   7.000 -0.4409  0.6345  2.0690
 1744TIP3   OH229426   1.838   1.940   7.009  0.7409 -0.3200  0.4562
 1744TIP3    H129427   1.928   1.939   7.040  0.8410 -0.2674  0.1712
 1744TIP3    H229428   1.805   2.026   7.034  0.9332 -0.1415  0.1029
 1745TIP3   OH229429   2.263   4.870   8.181  0.4682 -0.1439 -0.0970
 1745TIP3    H129430   2.274   4.965   8.187 -2.8834  0.3448  0.1875
 1745TIP3    H229431   2.169   4.856   8.193  0.7854 -3.4886 -0.5983
 1746TIP3   OH229432   0.770   3.765   9.474 -0.0051  0.0927 -0.1239
 1746TIP3    H129433   0.733   3.760   9.562 -1.9328 -0.0866 -0.9038
 1746TIP3    H229434   0.863   3.744   9.487 -0.1903  0.2458  1.8721
 1747TIP3   OH229435   3.407   4.067   7.434  0.0377  0.0286 -0.1629
 1747TIP3    H129436   3.425   4.042   7.525 -1.2365 -2.6823 -0.5322
 1747TIP3    H229437   3.326   4.117   7.439  0.5787  0.8722  0.2869
 1748TIP3   OH229438   7.378   5.478   8.789 -0.1285  0.0123 -0.6271
 1748TIP3    H129439   7.458   5.476   8.841 -0.1833 -0.4805 -0.5628
 1748TIP3    H229440   7.404   5.441   8.704  0.2540  1.8643 -1.3826
 1749TIP3   OH229441   2.649   7.105   9.319  0.3116  0.5575  0.1544
 1749TIP3    H129442   2.703   7.087   9.396 -1.6082  0.3236  1.5245
 1749TIP3    H229443   2.674   7.193   9.292 -0.6693  1.6782  2.6150
 1750TIP3   OH229444   4.041   5.254   9.370  0.0217  0.3365 -0.0083
 1750TIP3    H129445   3.980   5.198   9.418  0.3654  0.5980  0.7554
 1750TIP3    H229446   4.031   5.228   9.278 -0.0320 -0.7681  0.2966
 1751TIP3   OH229447   2.655   1.396   7.490 -0.1193  0.0894 -0.5377
 1751TIP3    H129448   2.596   1.341   7.439  0.0787 -0.3955 -0.2459
 1751TIP3    H229449   2.737   1.394   7.441  0.0732 -0.3819 -0.1963
 1752TIP3   OH229450   5.092   6.860   9.176  0.6962  0.1642 -0.0872
 1752TIP3    H129451   5.064   6.951   9.163  0.0736 -0.1808 -1.3572
 1752TIP3    H229452   5.187   6.866   9.183  0.4978  1.2658  3.4454
 1753TIP3   OH229453   3.528   2.945   7.906  0.4108  0.0361  0.6385
 1753TIP3    H129454   3.602   3.003   7.890 -0.0645  1.2587  2.5081
 1753TIP3    H229455   3.463   2.971   7.840  0.6282  0.8721  0.7341
 1754TIP3   OH229456   5.211   5.618   8.661 -0.0276  0.4667  0.3059
 1754TIP3    H129457   5.169   5.702   8.643  0.5504  1.1520  1.9494
 1754TIP3    H229458   5.255   5.631   8.745  0.8175 -1.2132  0.1630
 1755TIP3   OH229459   0.909   2.412   8.841  0.0638 -0.7105  0.1382
 1755TIP3    H129460   0.861   2.452   8.768 -0.1824 -0.9611  0.1606
 1755TIP3    H229461   0.918   2.483   8.905 -2.5408 -1.2798  1.2604
 1756TIP3   OH229462   4.526   5.958   8.156 -0.0563  0.1570  0.5204
 1756TIP3    H129463   4.547   6.037   8.206  0.1162  1.0747 -0.9239
 1756TIP3    H229464   4.595   5.952   8.090 -0.4142 -0.8571  0.2079
 1757TIP3   OH229465   4.723   4.947   7.045  0.8541  0.0693  0.4557
 1757TIP3    H129466   4.706   4.855   7.064  0.7784  0.0503  0.2981
 1757TIP3    H229467   4.783   4.975   7.115  0.5314  0.0193  0.7553
 1758TIP3   OH229468   7.620   4.760   8.541 -0.3724 -0.1659  0.3810
 1758TIP3    H129469   7.667   4.813   8.605 -0.4906  2.0594 -1.2549
 1758TIP3    H229470   7.562   4.822   8.496 -1.1166 -1.8455 -1.0914
 1759TIP3   OH229471   0.182   6.346   7.657  0.0689 -0.5657 -0.0429
 1759TIP3    H129472   0.162   6.344   7.563 -0.8041 -0.7932  0.1368
 1759TIP3    H229473   0.278   6.347   7.661  0.1212 -0.8076 -0.9320
 1760TIP3   OH229474   6.389   1.481   9.333  0.7135  0.5028 -0.3666
 1760TIP3    H129475   6.336   1.556   9.305  0.4352 -0.0483 -1.3337
 1760TIP3    H229476   6.468   1.521   9.369 -0.9603  1.4673  2.6976
 1761TIP3   OH229477   2.201   3.840   8.437  0.0849  0.6698  0.3677
 1761TIP3    H129478   2.151   3.759   8.439  1.4684 -0.1927  2.2546
 1761TIP3    H229479   2.256   3.837   8.515  0.0964  3.4943  0.5683
 1762TIP3   OH229480   0.956   6.272   7.958 -0.1999 -0.5022  0.4711
 1762TIP3    H129481   0.904   6.345   7.923 -2.2119 -1.5302  1.1475
 1762TIP3    H229482   1.038   6.276   7.909 -0.5573  1.7146 -0.0669
 1763TIP3   OH229483   0.613   6.647   9.182  0.4184 -0.4784  0.0135
 1763TIP3    H129484   0.597   6.627   9.274 -0.5398 -1.8279 -0.4129
 1763TIP3    H229485   0.549   6.594   9.134  1.8372 -0.9133 -1.5061
 1764TIP3   OH229486   6.352   4.584   7.538 -0.6622 -0.3629  0.1588
 1764TIP3    H129487   6.386   4.558   7.624 -0.5585 -1.4695 -0.1994
 1764TIP3    H229488   6.414   4.547   7.476 -0.0832  1.4236 -0.3910
 1765TIP3   OH229489   0.323   1.889   9.708 -0.5333  0.2579 -0.4725
 1765TIP3    H129490   0.329   1.793   9.711 -1.1326  0.1480 -1.9447
 1765TIP3    H229491   0.346   1.911   9.618 -0.4098  1.5093 -0.1460
 1766TIP3   OH229492   0.791   6.304   8.624  0.5298  0.1319 -0.0618
 1766TIP3    H129493   0.796   6.220   8.579  0.0976  0.8090 -1.4366
 1766TIP3    H229494   0.701   6.334   8.608  1.2715  1.8107 -1.4553
 1767TIP3   OH229495   6.974   3.319   8.371 -0.1561 -0.2678  0.1597
 1767TIP3    H129496   6.968   3.283   8.460 -1.1747 -0.6711 -0.0608
 1767TIP3    H229497   7.067   3.314   8.350  0.2468  0.7693  1.5804
 1768TIP3   OH229498   3.938   7.256   6.905  0.4384  0.2498  0.1979
 1768TIP3    H129499   3.935   7.170   6.947 -0.3159 -0.6941 -1.6255
 1768TIP3    H229500   3.923   7.237   6.812  1.8821  2.2079 -0.4990
 1769TIP3   OH229501   5.391   7.494   9.612  0.0396 -0.3222 -0.4794
 1769TIP3    H129502   5.380   7.571   9.555  0.4581  0.3881  0.3845
 1769TIP3    H229503   5.485   7.490   9.629 -0.1016 -0.4159  0.3138
 1770TIP3   OH229504   1.517   6.980   8.708 -0.3198  0.5878  0.2026
 1770TIP3    H129505   1.515   7.066   8.667 -0.5049 -0.9429 -3.3082
 1770TIP3    H229506   1.582   6.930   8.659 -1.2239 -1.7053  1.1576
 1771TIP3   OH229507   0.185   7.395   8.150  0.1059  0.5595  0.2411
 1771TIP3    H129508   0.141   7.421   8.231 -1.4390 -0.6398 -0.1727
 1771TIP3    H229509   0.276   7.379   8.177 -0.6723 -1.2272  2.0844
 1772TIP3   OH229510   3.101   1.552   9.431  0.3819 -0.1156 -0.1252
 1772TIP3    H129511   3.102   1.626   9.371 -1.8602 -1.2942 -1.7711
 1772TIP3    H229512   3.011   1.550   9.464  0.9566 -0.9010  1.5235
 1773TIP3   OH229513   6.456   0.775   9.639  0.0441  0.1053 -0.4614
 1773TIP3    H129514   6.498   0.693   9.664 -1.4487 -0.5994 -0.1030
 1773TIP3    H229515   6.365   0.750   9.619 -0.5260  1.7128 -0.0320
 1774TIP3   OH229516   5.132   2.832   8.027  0.6364 -0.7747 -0.1093
 1774TIP3    H129517   5.100   2.912   7.985  2.2061  1.0313  1.9009
 1774TIP3    H229518   5.181   2.786   7.958  1.9157  1.3573 -0.7210
 1775TIP3   OH229519   3.892   0.007   8.096  0.6131 -0.0488  0.0371
 1775TIP3    H129520   3.933  -0.028   8.175  0.1050  2.7638  1.6641
 1775TIP3    H229521   3.839  -0.065   8.063  0.9781 -1.3668  2.1517
 1776TIP3   OH229522   2.308   3.731   7.016 -0.0552 -0.0987 -0.3511
 1776TIP3    H129523   2.311   3.639   7.043 -0.0684 -0.0904 -0.3207
 1776TIP3    H229524   2.307   3.728   6.921 -1.9724 -0.2046 -0.3853
 1777TIP3   OH229525   0.972   6.660   6.615  0.0140 -0.0024 -0.1106
 1777TIP3    H129526   1.022   6.739   6.591 -0.7625  0.8288  0.8780
 1777TIP3    H229527   0.920   6.688   6.691 -1.0206 -1.1981 -0.3569
 1778TIP3   OH229528   5.545   4.441   8.211  0.1554  0.1588 -0.1079
 1778TIP3    H129529   5.590   4.476   8.135  2.1442 -0.6475  0.6390
 1778TIP3    H229530   5.504   4.517   8.252 -2.4110  0.4137 -2.7927
 1779TIP3   OH229531   2.981   3.795   7.941 -0.3239 -0.1335 -0.3425
 1779TIP3    H129532   2.905   3.796   7.999  0.0027  0.0905  0.0930
 1779TIP3    H229533   2.957   3.853   7.869 -0.9373 -0.8270 -0.7126
 1780TIP3   OH229534   7.310   2.182   8.049 -0.2708  0.2075 -0.5549
 1780TIP3    H129535   7.263   2.186   7.966  0.2362  1.0968 -0.8047
 1780TIP3    H229536   7.368   2.258   8.048 -0.1300  0.1322  0.5341
 1781TIP3   OH229537   2.048   6.254   6.982  0.8752  0.5335 -0.2103
 1781TIP3    H129538   2.037   6.175   6.930  1.5217  0.8712 -0.8837
 1781TIP3    H229539   1.978   6.251   7.047  0.3571 -0.1434 -0.7965
 1782TIP3   OH229540   4.500   5.902   7.847  0.2409  0.5468  0.5215
 1782TIP3    H129541   4.479   5.995   7.858  0.8090  0.4409  3.1391
 1782TIP3    H229542   4.586   5.892   7.886  0.5328 -0.9777 -0.4268
 1783TIP3   OH229543   0.513   7.564   9.139  0.6498  0.2400  0.0916
 1783TIP3    H129544   0.546   7.567   9.049  1.0017  1.2534  0.2402
 1783TIP3    H229545   0.441   7.500   9.136  1.1916 -0.3477 -0.7197
 1784TIP3   OH229546   1.397   1.127   9.229 -0.0527 -0.1326 -0.0988
 1784TIP3    H129547   1.469   1.189   9.233  1.0712 -0.9497 -3.8168
 1784TIP3    H229548   1.439   1.041   9.222 -1.3664 -0.7037 -1.6410
 1785TIP3   OH229549   6.782   2.584   8.584  0.2696 -0.6877  0.1924
 1785TIP3    H129550   6.797   2.648   8.653  1.5850 -2.0561  1.2415
 1785TIP3    H229551   6.750   2.635   8.510 -0.7060  0.8841  1.6304
 1786TIP3   OH229552   3.845   0.439   9.296  0.6829 -0.0108  0.6737
 1786TIP3    H129553   3.764   0.481   9.323  1.2024 -0.3781  3.0729
 1786TIP3    H229554   3.909   0.465   9.362  1.7909 -2.0615  0.5125
 1787TIP3   OH229555   0.889   2.520   7.966  0.2883  0.1437  0.0515
 1787TIP3    H129556   0.820   2.516   7.900 -1.8003 -1.0406  2.1919
 1787TIP3    H229557   0.937   2.438   7.955  1.3462  0.8950 -1.3240
 1788TIP3   OH229558   6.826   0.307   9.715 -0.5941 -0.1853  0.2093
 1788TIP3    H129559   6.731   0.300   9.724 -0.7811  1.9630  0.4233
 1788TIP3    H229560   6.845   0.399   9.734  1.3455 -0.1930 -1.4187
 1789TIP3   OH229561   5.077   1.137   8.639  0.0145  0.0813 -0.1466
 1789TIP3    H129562   5.167   1.163   8.658  0.3345 -0.0202 -1.4263
 1789TIP3    H229563   5.078   1.112   8.547 -0.8027 -2.2220  0.4071
 1790TIP3   OH229564   1.706   5.796   8.482 -0.2418  0.1098 -0.0168
 1790TIP3    H129565   1.747   5.729   8.428 -1.0415  0.9680 -1.7826
 1790TIP3    H229566   1.769   5.869   8.481 -0.1350  0.0289  0.4694
 1791TIP3   OH229567   3.005   1.570   8.426 -0.5629  0.6101 -1.1717
 1791TIP3    H129568   3.008   1.475   8.412  0.2109  0.1033  1.6870
 1791TIP3    H229569   2.923   1.584   8.473 -0.4664  1.2952 -1.2032
 1792TIP3   OH229570   4.313   6.254   8.578 -0.3400 -0.0789 -0.5665
 1792TIP3    H129571   4.233   6.307   8.584 -1.0132 -1.2146  1.8999
 1792TIP3    H229572   4.380   6.307   8.622  0.0049  0.3804 -1.6189
 1793TIP3   OH229573   0.144   0.881   8.546 -0.6597 -0.3193  0.0297
 1793TIP3    H129574   0.136   0.910   8.455 -0.3829 -0.1473  0.0578
 1793TIP3    H229575   0.218   0.820   8.546  0.0777  0.5489  0.3391
 1794TIP3   OH229576   4.483   3.794   6.855  0.4767 -0.2494 -0.7411
 1794TIP3    H129577   4.524   3.788   6.942  1.5173 -2.3486 -1.2942
 1794TIP3    H229578   4.546   3.752   6.796 -1.6735 -2.0202 -1.9348
 1795TIP3   OH229579   2.812   4.025   8.955  0.3212  0.1261 -0.6048
 1795TIP3    H129580   2.788   3.995   8.868 -0.5668 -0.5615 -0.1429
 1795TIP3    H229581   2.832   3.944   9.003 -2.4591  0.1393  0.7741
 1796TIP3   OH229582   6.349   0.603   9.158 -0.0552 -0.5487 -0.1754
 1796TIP3    H129583   6.365   0.515   9.190  0.6043 -0.7187 -0.9489
 1796TIP3    H229584   6.400   0.610   9.077 -0.7752  0.2427 -0.5928
 1797TIP3   OH229585   2.402   2.793   8.253  0.0805 -0.3298 -0.6206
 1797TIP3    H129586   2.430   2.702   8.261  1.5864  0.0696 -1.0380
 1797TIP3    H229587   2.405   2.827   8.343  0.6899 -0.3670 -0.6259
 1798TIP3   OH229588   7.090   0.355   9.266  0.4897 -0.1340  0.4347
 1798TIP3    H129589   7.159   0.410   9.230 -1.6317  1.2496 -1.8264
 1798TIP3    H229590   7.107   0.268   9.229  0.9596  0.2258 -0.2209
 1799TIP3   OH229591   3.587   2.925   7.379  0.5420  0.2802  0.3140
 1799TIP3    H129592   3.630   3.005   7.409 -0.5982 -0.2641  3.9388
 1799TIP3    H229593   3.498   2.953   7.357  0.1294  0.1165  1.6246
 1800TIP3   OH229594   7.313   3.154   7.855 -0.7316 -0.2093  0.1299
 1800TIP3    H129595   7.404   3.140   7.827 -0.6036 -2.2532  1.3665
 1800TIP3    H229596   7.267   3.075   7.827 -2.3071  1.0098 -0.9316
 1801TIP3   OH229597   6.514   5.971   8.231 -0.1586 -0.3200 -0.2023
 1801TIP3    H129598   6.567   6.049   8.214 -1.5031  0.8555  0.7640
 1801TIP3    H229599   6.439   6.003   8.281 -2.1325 -1.7925 -2.0303
 1802TIP3   OH229600   5.571   0.328   8.457  0.1971  0.1079 -0.0342
 1802TIP3    H129601   5.596   0.323   8.549  0.4233 -0.2137 -0.1081
 1802TIP3    H229602   5.651   0.355   8.412  0.0971  0.2251 -0.1412
 1803TIP3   OH229603   3.285   2.565   7.078  0.5337  0.0754  0.4633
 1803TIP3    H129604   3.303   2.656   7.053  2.9048 -0.8396 -1.5886
 1803TIP3    H229605   3.255   2.523   6.997 -1.8022 -0.7589  1.6744
 1804TIP3   OH229606   2.483   7.485   7.815  0.4270 -0.3346 -0.1990
 1804TIP3    H129607   2.487   7.401   7.769 -2.3341 -0.8827  0.4066
 1804TIP3    H229608   2.506   7.464   7.905 -0.6003 -0.5247  0.0248
 1805TIP3   OH229609   2.182   1.311   8.216 -0.7305 -0.5235 -0.1853
 1805TIP3    H129610   2.229   1.394   8.215 -0.0209 -0.9030  0.5775
 1805TIP3    H229611   2.129   1.315   8.296 -0.3774 -0.9689  0.0751
 1806TIP3   OH229612   7.440   6.362   6.907 -0.2445  0.3582 -0.0460
 1806TIP3    H129613   7.422   6.360   7.001 -1.4719 -3.3480 -0.2066
 1806TIP3    H229614   7.360   6.331   6.866  1.2697 -1.2049 -2.0442
 1807TIP3   OH229615   4.787   5.533   8.554 -0.2641  0.4119  0.3430
 1807TIP3    H129616   4.786   5.622   8.521  2.3166  0.4067  0.0454
 1807TIP3    H229617   4.769   5.478   8.478  0.1980  0.6122  0.0862
 1808TIP3   OH229618   5.849   2.921   9.225 -0.7373  0.3154 -0.2427
 1808TIP3    H129619   5.761   2.895   9.254 -0.1737  0.6105  1.8869
 1808TIP3    H229620   5.845   3.016   9.219 -0.0262  0.5353  1.9818
 1809TIP3   OH229621   1.282   3.056   7.936 -0.4080 -0.2703 -0.2799
 1809TIP3    H129622   1.313   3.008   8.013 -2.1720 -1.5283 -0.2765
 1809TIP3    H229623   1.356   3.055   7.875 -0.1428 -2.4398  0.0003
 1810TIP3   OH229624   4.390   2.728   6.893 -0.0031 -0.4903  0.0634
 1810TIP3    H129625   4.356   2.798   6.837 -1.4115 -0.0421  1.3991
 1810TIP3    H229626   4.403   2.654   6.834  0.0348  0.4189 -1.1102
 1811TIP3   OH229627   3.354   1.448   9.444  0.1694 -0.0832 -0.3879
 1811TIP3    H129628   3.393   1.516   9.389  0.1991 -0.2842 -0.6193
 1811TIP3    H229629   3.259   1.464   9.438  0.1992  0.2175 -0.0719
 1812TIP3   OH229630   3.333   2.808   7.451 -0.0756 -0.3430  0.1503
 1812TIP3    H129631   3.353   2.765   7.535 -0.1946 -0.9680 -0.1378
 1812TIP3    H229632   3.411   2.792   7.397  0.3146  0.7014  0.3848
 1813TIP3   OH229633   5.267   7.354   7.350  0.5378  0.2761  0.0767
 1813TIP3    H129634   5.180   7.368   7.311  1.2266  1.8454 -0.9577
 1813TIP3    H229635   5.264   7.403   7.432  1.2477  2.4677 -1.1496
 1814TIP3   OH229636   7.263   0.983   7.946  0.3067  0.1425 -0.0910
 1814TIP3    H129637   7.344   0.971   7.996  0.4792  2.4945  0.3171
 1814TIP3    H229638   7.292   1.023   7.864 -0.2651 -1.0248 -0.8851
 1815TIP3   OH229639   1.298   6.668   7.891 -0.4215 -0.1385  0.0997
 1815TIP3    H129640   1.271   6.643   7.802 -0.7804 -3.2502  0.9582
 1815TIP3    H229641   1.393   6.661   7.889 -0.2069  2.0663 -0.5558
 1816TIP3   OH229642   4.496   4.835   8.951 -0.0316 -0.4023 -0.6459
 1816TIP3    H129643   4.540   4.781   8.885  0.5357 -2.5455  1.3683
 1816TIP3    H229644   4.413   4.791   8.966 -0.4179  0.4121 -0.3635
 1817TIP3   OH229645   2.872   0.818   8.324 -0.4055 -0.4262  0.4643
 1817TIP3    H129646   2.955   0.784   8.356 -0.5987 -0.9489  0.4170
 1817TIP3    H229647   2.807   0.782   8.384 -0.6839 -0.7398 -0.0187
 1818TIP3   OH229648   3.057   0.809   9.316  0.1745  0.1443  0.3910
 1818TIP3    H129649   3.093   0.831   9.402  0.8244  0.5167  0.0373
 1818TIP3    H229650   3.102   0.869   9.256 -2.4648  2.0603  0.1427
 1819TIP3   OH229651   0.025   0.234   6.988  0.1152  0.4046  0.4482
 1819TIP3    H129652  -0.007   0.245   6.898  2.3319  1.2291 -0.3084
 1819TIP3    H229653   0.027   0.139   7.001  1.1383  0.2014 -0.9469
 1820TIP3   OH229654   6.144   5.055   7.458 -0.3112 -0.3486  0.3722
 1820TIP3    H129655   6.139   5.126   7.395  1.8210  0.4117  0.9617
 1820TIP3    H229656   6.054   5.040   7.485 -1.0589  0.5642 -1.4439
 1821TIP3   OH229657   6.174   2.019   7.376  0.0533  0.3558 -0.2989
 1821TIP3    H129658   6.258   2.035   7.420 -0.9501  0.5058  1.6633
 1821TIP3    H229659   6.110   2.066   7.430 -1.2461  0.6240 -2.0183
 1822TIP3   OH229660   5.986   1.309   7.392 -0.3580 -0.6283 -0.0288
 1822TIP3    H129661   5.964   1.216   7.385  2.2762 -1.4929  1.6301
 1822TIP3    H229662   6.071   1.317   7.348  0.6127  0.4259  1.8989
 1823TIP3   OH229663   5.188   4.565   8.250 -0.5377  0.1265 -0.1570
 1823TIP3    H129664   5.238   4.503   8.304 -1.3438 -0.9569 -0.6116
 1823TIP3    H229665   5.105   4.521   8.234 -1.0240  1.2208 -0.7422
 1824TIP3   OH229666   1.923   6.919   7.965  0.3415 -0.1517 -0.0737
 1824TIP3    H129667   1.937   6.863   8.042  1.4486 -0.8435 -0.7563
 1824TIP3    H229668   1.978   6.880   7.897 -1.5205 -0.2692 -1.5890
 1825TIP3   OH229669   1.256   3.510   7.322  0.5035 -0.2369 -0.1772
 1825TIP3    H129670   1.232   3.418   7.318 -1.4213  0.2521 -2.4237
 1825TIP3    H229671   1.341   3.515   7.278 -0.6695 -0.6882 -2.6872
 1826TIP3   OH229672   3.680   7.287   6.616  0.9399  0.0904 -0.2998
 1826TIP3    H129673   3.658   7.271   6.707 -0.6183 -0.4012 -0.7463
 1826TIP3    H229674   3.758   7.234   6.601  0.9960 -0.1133  0.6396
 1827TIP3   OH229675   6.150   4.325   8.590  0.1205 -0.0921  0.4916
 1827TIP3    H129676   6.151   4.408   8.541  0.3895 -0.9384 -1.0129
 1827TIP3    H229677   6.207   4.341   8.665  1.2187  0.7096 -0.4615
 1828TIP3   OH229678   5.831   0.149   7.666 -0.8313 -0.1083  0.0588
 1828TIP3    H129679   5.868   0.237   7.668  0.0946 -0.5079  1.3324
 1828TIP3    H229680   5.839   0.122   7.574 -1.5144  1.2682 -0.4362
 1829TIP3   OH229681   1.640   0.745   8.326 -0.1041  0.2401 -0.1369
 1829TIP3    H129682   1.646   0.657   8.363 -3.3326  0.0491  0.1925
 1829TIP3    H229683   1.606   0.731   8.237  2.4117  1.0446 -1.3211
 1830TIP3   OH229684   1.646   1.682   7.348  0.5903  0.2142  0.4921
 1830TIP3    H129685   1.625   1.773   7.325  0.8176  0.1914  0.1985
 1830TIP3    H229686   1.561   1.640   7.360  0.4558  0.0959 -0.7794
 1831TIP3   OH229687   6.889   2.451   8.885 -0.7978  0.0770 -0.0941
 1831TIP3    H129688   6.888   2.423   8.793 -1.4223 -0.8495  0.1877
 1831TIP3    H229689   6.844   2.382   8.932 -0.8748  0.7582  0.8661
 1832TIP3   OH229690   4.977   0.053   7.842  0.3170  0.3398  0.2638
 1832TIP3    H129691   4.889   0.040   7.879  0.7519  0.0092  1.1938
 1832TIP3    H229692   5.037   0.023   7.910  1.1507 -0.0186 -0.6048
 1833TIP3   OH229693   6.865   3.886   7.868  0.1321 -0.1890 -0.0303
 1833TIP3    H129694   6.906   3.817   7.816  1.0407 -0.0292  0.4533
 1833TIP3    H229695   6.937   3.924   7.919 -0.7063 -0.3564  1.3566
 1834TIP3   OH229696   3.380   2.227   7.865  0.0591 -0.1095 -0.2568
 1834TIP3    H129697   3.454   2.217   7.804  2.0206 -0.7175  2.0745
 1834TIP3    H229698   3.419   2.264   7.944 -2.4559  0.9920  0.5538
 1835TIP3   OH229699   5.579   5.100   7.013  0.3750  0.1568 -0.2704
 1835TIP3    H129700   5.502   5.088   6.957 -0.6524 -0.7560  1.2843
 1835TIP3    H229701   5.545   5.093   7.102  1.8209  2.4358  0.5308
 1836TIP3   OH229702   7.205   5.509   8.522  0.6848 -0.0007  0.3335
 1836TIP3    H129703   7.201   5.413   8.523  1.5949 -0.0478  1.3742
 1836TIP3    H229704   7.292   5.529   8.489  0.1993  0.5013 -0.6886
 1837TIP3   OH229705   3.873   4.060   7.501 -0.0978 -0.0053  0.3147
 1837TIP3    H129706   3.883   4.151   7.527  1.4191  0.6797 -2.3463
 1837TIP3    H229707   3.962   4.029   7.483 -0.2753 -2.7908  3.2508
 1838TIP3   OH229708   0.131   2.009   7.979  0.2022  0.2918  0.4386
 1838TIP3    H129709   0.095   1.966   7.902  0.4526  0.0122  0.4711
 1838TIP3    H229710   0.061   2.064   8.012 -0.4984 -0.8992  0.9989
 1839TIP3   OH229711   1.663   1.207   9.247 -0.4904 -0.2023 -0.7035
 1839TIP3    H129712   1.731   1.200   9.315  0.7054 -0.2051 -1.8654
 1839TIP3    H229713   1.693   1.150   9.177 -2.6379 -1.6396 -0.5404
 1840TIP3   OH229714   1.091   7.153   6.983 -0.1554 -0.4186  0.4405
 1840TIP3    H129715   1.078   7.165   7.077  0.6462  1.2531  0.3853
 1840TIP3    H229716   1.027   7.211   6.943  0.9775  0.5816  0.0246
 1841TIP3   OH229717   1.838   3.726   7.323 -0.2099  0.3115 -0.1643
 1841TIP3    H129718   1.823   3.690   7.235 -0.4226 -2.0839  0.7869
 1841TIP3    H229719   1.753   3.761   7.350 -0.3501  0.3006 -0.5859
 1842TIP3   OH229720   3.538   1.100   8.306  0.1031 -0.3421  0.2706
 1842TIP3    H129721   3.515   1.039   8.376  1.7201 -0.6381  0.5850
 1842TIP3    H229722   3.634   1.096   8.301  0.0104 -1.2509 -2.7695
 1843TIP3   OH229723   7.227   6.996   9.341 -0.3668  0.4811 -0.0067
 1843TIP3    H129724   7.259   6.918   9.297 -1.5890 -0.3804  0.5728
 1843TIP3    H229725   7.297   7.060   9.331  1.2157 -1.0787  0.5936
 1844TIP3   OH229726   3.725   0.448   9.056  0.9452  0.2494  0.0148
 1844TIP3    H129727   3.701   0.539   9.077  2.3819  0.9860 -1.3286
 1844TIP3    H229728   3.777   0.419   9.131  1.5656  1.0105 -0.1062
 1845TIP3   OH229729   1.147   6.911   7.859 -0.9588 -0.0011 -0.2168
 1845TIP3    H129730   1.166   6.818   7.867 -3.6194 -0.6370 -0.3835
 1845TIP3    H229731   1.054   6.915   7.837 -0.8530  2.6965 -0.5245
 1846TIP3   OH229732   7.491   7.612   7.101  0.0861 -0.2642 -0.4601
 1846TIP3    H129733   7.445   7.529   7.086 -1.5674  0.4463  0.4225
 1846TIP3    H229734   7.550   7.620   7.026  0.4959 -2.3398 -0.4461
 1847TIP3   OH229735   4.325   1.009   7.949 -0.1587 -0.0919  0.4473
 1847TIP3    H129736   4.397   0.946   7.949  0.7817  0.9487 -0.0699
 1847TIP3    H229737   4.367   1.093   7.931 -1.0610  1.0691  3.1911
 1848TIP3   OH229738   2.764   7.632   7.685  0.7528 -1.1707  0.8891
 1848TIP3    H129739   2.803   7.663   7.603  1.3747 -1.1973  1.1729
 1848TIP3    H229740   2.706   7.704   7.712 -2.3748 -2.5662 -1.4445
 1849TIP3   OH229741   5.174   4.664   9.180  0.0451  0.3443  0.0797
 1849TIP3    H129742   5.083   4.691   9.195  0.1012  1.2731 -1.1003
 1849TIP3    H229743   5.222   4.704   9.253 -0.2647  1.2595 -0.2006
 1850TIP3   OH229744   2.211   2.068   6.630  0.2076 -0.5307 -0.2074
 1850TIP3    H129745   2.206   1.976   6.657  1.7061 -0.3712  0.7211
 1850TIP3    H229746   2.122   2.101   6.643  0.2861 -1.0899  2.4532
 1851TIP3   OH229747   0.275   2.801   8.914  0.1760 -0.4302 -0.4823
 1851TIP3    H129748   0.264   2.719   8.961 -0.4616 -0.2747 -0.3439
 1851TIP3    H229749   0.219   2.792   8.837 -0.7413  0.2800  0.0797
 1852TIP3   OH229750   2.224   3.248   7.316  0.1627  0.2185  0.8334
 1852TIP3    H129751   2.160   3.187   7.279 -0.0706  1.0421 -0.1607
 1852TIP3    H229752   2.270   3.197   7.383 -1.0574 -0.5910  1.0853
 1853TIP3   OH229753   1.211   0.582   8.890  0.2891 -0.6033 -0.3255
 1853TIP3    H129754   1.185   0.564   8.800  0.9899  2.2525 -1.2206
 1853TIP3    H229755   1.130   0.610   8.933  0.3931  0.5586 -0.8474
 1854TIP3   OH229756   6.568   0.643   8.935 -0.2297 -0.1207 -0.4931
 1854TIP3    H129757   6.560   0.587   8.858  0.7726  1.8891 -2.1648
 1854TIP3    H229758   6.659   0.630   8.965 -0.5512 -0.7346  0.2513
 1855TIP3   OH229759   3.857   0.547   7.378 -0.1291  0.1970  0.3445
 1855TIP3    H129760   3.886   0.496   7.303 -0.1672 -2.0772  1.7700
 1855TIP3    H229761   3.773   0.509   7.402 -0.3884  1.2514  1.2002
 1856TIP3   OH229762   2.688   4.696   9.155 -0.3698 -0.2279 -0.2285
 1856TIP3    H129763   2.726   4.748   9.226 -0.3880 -0.7009  0.1302
 1856TIP3    H229764   2.637   4.759   9.104  0.3763  0.2922 -0.3498
 1857TIP3   OH229765   6.976   4.048   7.280 -0.1511 -0.2613  0.5536
 1857TIP3    H129766   6.928   4.004   7.350  0.3437 -0.3970  0.8108
 1857TIP3    H229767   7.068   4.026   7.296 -0.0834 -0.9371 -0.5773
 1858TIP3   OH229768   2.418   0.435   9.033  0.2090  0.0517 -0.5217
 1858TIP3    H129769   2.464   0.464   8.955  0.5646  0.6609 -0.0946
 1858TIP3    H229770   2.484   0.386   9.083  0.5567  1.3183  0.3116
 1859TIP3   OH229771   0.976   6.982   8.833 -0.1577 -0.0490 -0.4159
 1859TIP3    H129772   1.028   6.955   8.909 -0.0500 -3.6503 -1.5678
 1859TIP3    H229773   0.888   6.948   8.851  0.0725 -1.7432 -2.1756
 1860TIP3   OH229774   6.920   5.284   8.090  0.9433 -0.5193 -0.0765
 1860TIP3    H129775   6.897   5.273   8.183 -0.2211 -0.1148 -0.3052
 1860TIP3    H229776   7.004   5.238   8.081  2.7745  2.0955  1.8722
 1861TIP3   OH229777   4.049   6.314   8.697 -0.5851 -0.0685  0.4075
 1861TIP3    H129778   4.013   6.232   8.662 -0.5151  0.3429 -0.6679
 1861TIP3    H229779   3.976   6.376   8.691 -1.1888 -0.4303  2.8211
 1862TIP3   OH229780   1.635   1.391   7.758 -0.1164 -0.4676  0.0931
 1862TIP3    H129781   1.609   1.483   7.753  1.6570  0.0925  0.5286
 1862TIP3    H229782   1.681   1.375   7.675 -0.2754 -0.9141  0.0889
 1863TIP3   OH229783   3.035   5.756   8.425 -0.4001 -0.3165  0.4362
 1863TIP3    H129784   3.117   5.788   8.463 -1.2918  0.6886  1.6215
 1863TIP3    H229785   3.002   5.694   8.490 -0.8050 -0.3496  0.2019
 1864TIP3   OH229786   4.569   4.068   7.918  0.3485 -0.1751 -0.4066
 1864TIP3    H129787   4.512   4.080   7.994  1.0149 -0.2106  0.1110
 1864TIP3    H229788   4.539   3.987   7.878  1.6966 -1.6635  1.3938
 1865TIP3   OH229789   2.633   1.239   6.916 -0.3601 -0.0896 -0.2698
 1865TIP3    H129790   2.711   1.184   6.902 -1.1980 -1.3631 -0.0665
 1865TIP3    H229791   2.644   1.312   6.856  0.3578 -0.9312 -1.1929
 1866TIP3   OH229792   0.157   1.435   7.195  0.2429  0.2885 -0.6179
 1866TIP3    H129793   0.218   1.423   7.123 -1.5926 -2.0289 -1.9497
 1866TIP3    H229794   0.100   1.506   7.167 -1.2056 -1.3810 -2.1146
 1867TIP3   OH229795   3.974   7.069   8.725 -0.3765 -0.1485 -0.1201
 1867TIP3    H129796   3.970   6.984   8.770  2.3524 -0.2863  0.0181
 1867TIP3    H229797   3.925   7.129   8.782  1.7887 -0.6092  2.3947
 1868TIP3   OH229798   3.779   3.308   7.197  0.1539 -0.3505  0.0106
 1868TIP3    H129799   3.744   3.356   7.122 -0.0351  0.5309  0.6468
 1868TIP3    H229800   3.743   3.220   7.188 -0.5677 -0.0187 -0.4715
 1869TIP3   OH229801   7.632   2.906   7.953 -0.0410  0.2047 -0.4984
 1869TIP3    H129802   7.574   2.895   7.878  0.1323  2.2226 -0.9864
 1869TIP3    H229803   7.719   2.917   7.915  0.1865  0.3429  0.0517
 1870TIP3   OH229804   1.595   4.571   7.484  0.1718  0.5606 -0.6029
 1870TIP3    H129805   1.622   4.617   7.405  0.4651  1.3331 -0.0692
 1870TIP3    H229806   1.652   4.606   7.553  1.1398 -1.3655 -0.3592
 1871TIP3   OH229807   7.572   3.953   8.325 -0.0954 -0.1574 -0.1074
 1871TIP3    H129808   7.539   4.034   8.364  0.1815  0.1524 -0.5044
 1871TIP3    H229809   7.535   3.951   8.237 -2.2635 -1.8018  0.7450
 1872TIP3   OH229810   7.475   1.561   7.577  0.2566 -0.6571 -0.0779
 1872TIP3    H129811   7.436   1.648   7.583  1.3572 -0.2073  1.1366
 1872TIP3    H229812   7.563   1.577   7.542  0.0833 -1.4148 -0.8957
 1873TIP3   OH229813   4.102   0.551   9.371 -0.2323 -0.1519  0.6459
 1873TIP3    H129814   4.147   0.478   9.328  0.1061  0.2216  0.3604
 1873TIP3    H229815   4.171   0.596   9.420 -0.0751  1.0076 -0.5824
 1874TIP3   OH229816   4.474   0.098   7.960 -0.3125  0.1155  0.4893
 1874TIP3    H129817   4.403   0.036   7.979 -1.5959  2.0328  2.3005
 1874TIP3    H229818   4.439   0.154   7.891  1.0672 -1.4073 -1.5737
 1875TIP3   OH229819   5.027   0.807   6.862 -0.2678 -0.3734  0.1350
 1875TIP3    H129820   5.005   0.882   6.808  0.8528  0.7177  1.1313
 1875TIP3    H229821   5.093   0.840   6.924 -0.9025 -1.7686  1.6282
 1876TIP3   OH229822   6.446   6.082   8.658  0.5993  0.9256 -0.2071
 1876TIP3    H129823   6.540   6.095   8.644  0.7567 -0.3689 -0.4031
 1876TIP3    H229824   6.417   6.165   8.697  1.3293  2.3398 -2.4097
 1877TIP3   OH229825   2.459   1.026   8.505 -0.2095  0.0250  0.3885
 1877TIP3    H129826   2.412   1.025   8.589 -0.9617  0.6850 -0.0248
 1877TIP3    H229827   2.549   1.001   8.529 -0.9488 -2.3019  1.0474
 1878TIP3   OH229828   4.869   4.882   8.118  0.4738 -0.5031  0.1899
 1878TIP3    H129829   4.861   4.851   8.208  2.7999 -2.1801 -0.0817
 1878TIP3    H229830   4.889   4.803   8.068  0.8190  0.6326 -1.5392
 1879TIP3   OH229831   0.425   1.343   7.254 -0.3046  0.3678  0.2472
 1879TIP3    H129832   0.470   1.418   7.292 -2.6768  1.7295  0.6215
 1879TIP3    H229833   0.339   1.342   7.298 -1.3270 -0.9623 -1.6153
 1880TIP3   OH229834   1.914   6.634   9.190  0.3763  0.0099 -0.5572
 1880TIP3    H129835   1.880   6.569   9.251  1.4798  0.6009  0.7302
 1880TIP3    H229836   1.909   6.717   9.236  0.2730  0.6437 -1.6658
 1881TIP3   OH229837   7.527   0.017   9.077 -0.6982 -0.0809 -0.3122
 1881TIP3    H129838   7.453  -0.007   9.133  0.4862  1.0103  1.8336
 1881TIP3    H229839   7.586  -0.058   9.081  0.0356  0.5441  1.1169
 1882TIP3   OH229840   5.512   6.472   7.585 -0.3838 -0.7194 -0.4924
 1882TIP3    H129841   5.422   6.463   7.553 -0.5964 -1.1117  0.2018
 1882TIP3    H229842   5.505   6.463   7.680  0.3506 -0.4385 -0.4060
 1883TIP3   OH229843   3.877   3.668   7.662 -0.5177  0.4292  0.2930
 1883TIP3    H129844   3.860   3.616   7.584  1.4244  1.7930 -1.1397
 1883TIP3    H229845   3.816   3.741   7.657 -0.7624  0.2285  0.3476
 1884TIP3   OH229846   3.205   2.386   9.289  0.5283  0.1544  0.3625
 1884TIP3    H129847   3.251   2.363   9.370 -0.2888 -1.1495  0.4847
 1884TIP3    H229848   3.267   2.440   9.241  1.4680 -0.0122  1.3472
 1885TIP3   OH229849   4.028   5.960   8.329  0.2715 -0.1084  0.3290
 1885TIP3    H129850   4.113   6.000   8.343  1.1941 -2.1799  1.0902
 1885TIP3    H229851   4.013   5.967   8.234  2.5734 -1.9753 -0.2689
 1886TIP3   OH229852   2.234   2.153   9.086 -0.1045 -0.4232  0.4545
 1886TIP3    H129853   2.252   2.084   9.150  0.6850 -0.2158  0.4577
 1886TIP3    H229854   2.202   2.227   9.138 -0.1441 -0.4935  0.5294
 1887TIP3   OH229855   1.809   1.037   7.642 -0.1695  0.4807  0.5198
 1887TIP3    H129856   1.837   1.035   7.551 -0.4273  2.0305  0.3867
 1887TIP3    H229857   1.721   1.076   7.639 -0.5155 -0.2034  1.3602
 1888TIP3   OH229858   1.922   0.065   8.170 -0.3180 -0.2927 -0.1496
 1888TIP3    H129859   1.939  -0.010   8.228  0.4952 -0.5561 -0.7024
 1888TIP3    H229860   1.989   0.057   8.101 -0.7607  0.4661 -0.6783
 1889TIP3   OH229861   2.316   1.502   7.809 -0.2172  0.2039 -0.0165
 1889TIP3    H129862   2.291   1.411   7.828  1.0652 -0.2337 -0.3042
 1889TIP3    H229863   2.412   1.500   7.808 -0.1864  1.3957 -0.8480
 1890TIP3   OH229864   1.192   3.304   7.547 -0.1193  0.4854 -0.3609
 1890TIP3    H129865   1.270   3.328   7.596 -0.0812  0.3003 -0.3267
 1890TIP3    H229866   1.148   3.239   7.603  1.3055 -1.7879 -1.7071
 1891TIP3   OH229867   5.649   1.828   8.790  1.0031  0.6725 -0.3909
 1891TIP3    H129868   5.683   1.861   8.707  1.3449  0.6785 -0.2532
 1891TIP3    H229869   5.699   1.876   8.856  3.5901 -2.0655 -0.1456
 1892TIP3   OH229870   4.167   0.637   6.106  0.3652 -0.6956 -0.4975
 1892TIP3    H129871   4.123   0.553   6.125 -2.6926  1.1341  1.5034
 1892TIP3    H229872   4.108   0.681   6.045  0.9146  0.7236 -0.0292
 1893TIP3   OH229873   6.027   0.352   8.012  0.6565  0.5159 -0.1627
 1893TIP3    H129874   5.956   0.290   7.994  0.8167  0.4378 -0.5524
 1893TIP3    H229875   5.999   0.433   7.969  0.9425  0.3940 -0.5893
 1894TIP3   OH229876   6.918   1.455   9.369  0.0396  0.5061 -0.0745
 1894TIP3    H129877   6.905   1.545   9.340  0.5984  0.6674  0.1619
 1894TIP3    H229878   6.929   1.405   9.288 -0.7262  0.5670 -0.2272
 1895TIP3   OH229879   1.191   5.064   8.983 -0.1699 -0.0478  0.5147
 1895TIP3    H129880   1.185   5.158   8.962  1.4692  0.0037  0.1767
 1895TIP3    H229881   1.124   5.024   8.927  0.3362  0.7397 -0.7186
 1896TIP3   OH229882   2.065   0.859   8.803  0.2458  0.7583 -0.1225
 1896TIP3    H129883   2.124   0.800   8.850  0.4031  0.8800 -0.1670
 1896TIP3    H229884   2.085   0.844   8.711 -1.3648 -0.8658 -0.2649
 1897TIP3   OH229885   3.102   3.527   8.338  0.0496 -0.0176  0.2741
 1897TIP3    H129886   3.040   3.466   8.379 -0.1974  0.4198  0.5638
 1897TIP3    H229887   3.124   3.487   8.255  0.1780 -0.6883  0.6250
 1898TIP3   OH229888   2.857   1.889   8.745 -0.0667 -0.3000  0.4219
 1898TIP3    H129889   2.938   1.928   8.779  0.1231 -0.5041  0.2105
 1898TIP3    H229890   2.791   1.957   8.754  0.2549  0.0588  0.0761
 1899TIP3   OH229891   4.829   2.315   7.887 -0.3091 -0.0029 -0.5862
 1899TIP3    H129892   4.891   2.255   7.845  0.1527  0.2779 -0.3148
 1899TIP3    H229893   4.755   2.260   7.911 -1.1252  0.0193 -2.8384
 1900TIP3   OH229894   3.844   0.916   7.842  0.1840 -0.0219 -0.0453
 1900TIP3    H129895   3.882   0.882   7.761  0.7733  0.9854 -0.2086
 1900TIP3    H229896   3.919   0.944   7.894 -0.2185 -0.2137  0.6460
 1901TIP3   OH229897   4.498   0.689   7.014  0.4781 -0.1004  0.1979
 1901TIP3    H129898   4.418   0.710   6.967  1.1036  0.3997 -0.6739
 1901TIP3    H229899   4.539   0.620   6.962 -0.5945 -2.2197  1.9962
 1902TIP3   OH229900   2.566   1.693   8.180  0.3109  0.3505 -0.5618
 1902TIP3    H129901   2.582   1.787   8.174 -0.7327  0.6820  1.0520
 1902TIP3    H229902   2.635   1.661   8.237  0.3133  0.2402 -0.6264
 1903TIP3   OH229903   0.024   2.966   9.427 -0.2522  0.2420 -0.1965
 1903TIP3    H129904   0.105   2.945   9.380  0.1183  0.2813  0.4144
 1903TIP3    H229905   0.030   3.060   9.446 -0.1746  0.1361  0.3368
 1904TIP3   OH229906   2.579   3.521   7.770 -0.0081 -0.1914 -0.4545
 1904TIP3    H129907   2.571   3.531   7.865 -0.3161 -0.5615 -0.4371
 1904TIP3    H229908   2.565   3.609   7.736  0.7259  0.0607 -0.1244
 1905TIP3   OH229909   7.576   2.073   7.196  0.6301  0.6614 -0.1612
 1905TIP3    H129910   7.526   2.119   7.129 -1.6533 -2.3172 -0.6953
 1905TIP3    H229911   7.635   2.015   7.146 -1.2320 -1.7306  0.2325
 1906TIP3   OH229912   2.263   3.030   8.853  0.1232  0.1421 -0.2518
 1906TIP3    H129913   2.234   3.035   8.944  1.1662 -1.0600  0.1752
 1906TIP3    H229914   2.182   3.024   8.803 -0.4748  1.0253  0.5670
 1907TIP3   OH229915   6.139   2.870   7.386 -0.0528 -0.0971 -0.1082
 1907TIP3    H129916   6.136   2.878   7.290 -1.6381 -1.3899 -0.2074
 1907TIP3    H229917   6.101   2.784   7.403  1.9548 -0.7117  1.5940
 1908TIP3   OH229918   0.971   2.943   8.270 -0.9562  0.2941  0.0698
 1908TIP3    H129919   0.883   2.951   8.235 -0.0555  0.0899 -2.4175
 1908TIP3    H229920   1.012   3.028   8.255 -0.6656  0.3717  1.1451
 1909TIP3   OH229921   2.030   2.186   7.551  0.0710  0.4168  0.1859
 1909TIP3    H129922   2.121   2.205   7.572  0.1900 -1.2496  1.4387
 1909TIP3    H229923   1.980   2.221   7.626  0.0309 -1.3717  1.0612
 1910TIP3   OH229924   1.498   3.587   7.166  0.3155  0.0975  0.1944
 1910TIP3    H129925   1.562   3.625   7.106  2.1515 -0.8242  1.4309
 1910TIP3    H229926   1.413   3.600   7.124  1.3186  1.3149 -1.5704
 1911TIP3   OH229927   6.107   0.872   8.178  0.1691 -0.5043 -0.1666
 1911TIP3    H129928   6.178   0.811   8.195  0.5503 -1.3887 -3.9878
 1911TIP3    H229929   6.151   0.954   8.155 -0.0528 -0.5901 -0.9410
 1912TIP3   OH229930   5.805   2.045   8.695 -0.3320 -0.1858  0.3750
 1912TIP3    H129931   5.817   2.136   8.724 -0.8935 -0.3728  1.2484
 1912TIP3    H229932   5.778   2.052   8.604  2.6286  0.3932 -0.5824
 1913TIP3   OH229933   3.368   5.774   9.066 -0.2179  0.1405  0.2787
 1913TIP3    H129934   3.429   5.743   9.133 -1.3925  0.0857  1.3731
 1913TIP3    H229935   3.422   5.821   9.003  0.6907  2.3145  2.5402
 1914TIP3   OH229936   6.749   0.164   8.395 -0.4419 -0.4452 -0.3507
 1914TIP3    H129937   6.689   0.217   8.342  0.2772  0.5143 -0.2405
 1914TIP3    H229938   6.759   0.215   8.476 -0.2975 -1.1179  0.0582
 1915TIP3   OH229939   6.687   4.664   7.731  0.3589  0.1744  0.4046
 1915TIP3    H129940   6.616   4.620   7.777  1.2331 -1.4860  0.2487
 1915TIP3    H229941   6.691   4.751   7.770 -1.5674  0.2262  0.5913
 1916TIP3   OH229942   6.247   2.155   8.682 -0.8068 -0.4256  0.0094
 1916TIP3    H129943   6.218   2.216   8.614 -2.3067 -0.9794  0.1084
 1916TIP3    H229944   6.318   2.106   8.642 -1.0639 -0.1100 -0.8480
 1917TIP3   OH229945   0.913   3.357   8.633 -0.3105 -0.1264 -0.7220
 1917TIP3    H129946   0.911   3.262   8.618  0.9362  0.0086 -1.9839
 1917TIP3    H229947   0.826   3.378   8.666 -1.1925 -1.4539 -2.0784
 1918TIP3   OH229948   4.034   1.247   7.262  0.4308 -0.0865 -0.6595
 1918TIP3    H129949   3.980   1.262   7.339 -1.9839 -0.9423 -2.0757
 1918TIP3    H229950   4.086   1.327   7.253  1.0715 -0.0962  1.9831
 1919TIP3   OH229951   3.527   4.283   7.619 -0.7728  0.0064  0.3180
 1919TIP3    H129952   3.598   4.228   7.651 -1.3298 -1.3152 -0.6174
 1919TIP3    H229953   3.566   4.369   7.609  0.5074 -0.5236  0.5223
 1920TIP3   OH229954   3.519   4.071   8.620  0.5932 -0.1660  0.0219
 1920TIP3    H129955   3.455   4.029   8.678  2.2175 -1.8852  0.6812
 1920TIP3    H229956   3.494   4.043   8.532 -0.2160  0.1264  0.1482
 1921TIP3   OH229957   0.012   5.729   8.892 -0.1592  0.1552  0.2355
 1921TIP3    H129958   0.068   5.706   8.967  0.5948 -0.7829 -0.5875
 1921TIP3    H229959  -0.077   5.708   8.921  0.1299 -0.2965  0.8291
 1922TIP3   OH229960   3.264   1.472   6.733  0.2321 -0.4360 -0.5851
 1922TIP3    H129961   3.293   1.460   6.642 -1.5680  0.6872 -1.3718
 1922TIP3    H229962   3.171   1.495   6.725  0.0781 -0.1575  1.5485
 1923TIP3   OH229963   0.095   0.110   7.736  0.0438 -0.0210 -0.6159
 1923TIP3    H129964   0.028   0.069   7.681 -0.6671 -1.1980  1.0511
 1923TIP3    H229965   0.111   0.046   7.806 -1.0118  2.4541  2.0575
 1924TIP3   OH229966   6.741   6.693   8.805  0.1632  0.5786 -0.3681
 1924TIP3    H129967   6.741   6.605   8.769  0.7564 -0.7116  2.5160
 1924TIP3    H229968   6.770   6.749   8.732  2.6836 -1.9707 -1.5039
 1925TIP3   OH229969   0.054   5.604   8.607 -0.4712 -0.5465  0.5723
 1925TIP3    H129970   0.109   5.620   8.684 -1.8158 -0.8516  1.6547
 1925TIP3    H229971   0.041   5.509   8.606  0.5438 -0.7043 -0.8046
 1926TIP3   OH229972   3.986   4.988   7.523  0.0165 -0.2637  0.0221
 1926TIP3    H129973   4.030   4.964   7.441  1.3262 -0.3532  0.7268
 1926TIP3    H229974   3.943   4.907   7.552 -0.8102 -0.1276 -0.7706
 1927TIP3   OH229975   7.618   3.869   8.601  0.2805 -0.4502  0.0437
 1927TIP3    H129976   7.615   3.847   8.508  0.3925 -2.3419  0.4383
 1927TIP3    H229977   7.527   3.863   8.630  0.2462  0.1329  0.0496
 1928TIP3   OH229978   0.617   3.125   6.562 -0.8278  0.2728  0.7534
 1928TIP3    H129979   0.607   3.031   6.572  0.2149  0.2394  1.5424
 1928TIP3    H229980   0.655   3.155   6.644 -0.3664  1.2616  0.2011
 1929TIP3   OH229981   3.636   6.905   8.986 -0.6443 -0.0248 -0.6395
 1929TIP3    H129982   3.578   6.935   9.056  0.8525 -1.7983  1.4653
 1929TIP3    H229983   3.645   6.811   9.000  1.0050 -0.1627 -2.2252
 1930TIP3   OH229984   7.444   6.862   9.212  0.5010 -0.3797  0.0414
 1930TIP3    H129985   7.522   6.809   9.226  1.1257  0.7335  0.8948
 1930TIP3    H229986   7.435   6.866   9.116  1.1351 -1.0037 -0.0536
 1931TIP3   OH229987   2.020   5.986   8.159 -0.9089 -0.3823 -0.4071
 1931TIP3    H129988   2.085   5.977   8.089  0.6277  2.1147  0.5709
 1931TIP3    H229989   1.937   5.962   8.117  0.0048  0.5578 -2.9828
 1932TIP3   OH229990   3.417   1.724   9.587  0.1316 -0.2866  0.4243
 1932TIP3    H129991   3.414   1.633   9.616  0.8936 -0.8011 -1.0153
 1932TIP3    H229992   3.427   1.719   9.492 -0.6720  1.3137  0.2069
 1933TIP3   OH229993   4.900   4.212   7.868  0.7951  0.1862 -0.2013
 1933TIP3    H129994   4.841   4.280   7.901 -0.5549  0.9009 -3.6396
 1933TIP3    H229995   4.906   4.149   7.939  0.0466  2.6077  2.1934
 1934TIP3   OH229996   2.850   4.219   7.705 -0.4620  0.5116 -0.0579
 1934TIP3    H129997   2.805   4.254   7.782  0.1492 -0.1222  0.6023
 1934TIP3    H229998   2.908   4.290   7.677 -0.3782  0.5936  0.3191
 1935TIP3   OH229999   4.317   0.599   8.847  0.3953 -0.2329 -0.7801
 1935TIP3    H130000   4.400   0.582   8.802  0.9170  1.3892 -0.4768
 1935TIP3    H230001   4.319   0.692   8.867  0.6431 -0.9455  3.4801
 1936TIP3   OH230002   4.181   4.526   7.955  0.6378 -0.8331  0.4502
 1936TIP3    H130003   4.235   4.499   8.029  2.9621 -1.3999 -1.3132
 1936TIP3    H230004   4.225   4.489   7.879  0.0842  2.1713 -1.4955
 1937TIP3   OH230005   6.038   3.749   8.301  0.4871 -0.1807  0.6412
 1937TIP3    H130006   6.041   3.800   8.382 -0.9054  2.3998 -0.8109
 1937TIP3    H230007   6.095   3.796   8.240 -0.4621 -0.6254 -0.6391
 1938TIP3   OH230008   4.635   7.262   9.500  0.2536 -0.1188  0.2164
 1938TIP3    H130009   4.546   7.231   9.483  1.0687 -1.5115 -1.9923
 1938TIP3    H230010   4.630   7.357   9.489 -0.4618 -0.4127 -2.9546
 1939TIP3   OH230011   1.407   3.253   8.585  0.3613 -0.4582 -0.5933
 1939TIP3    H130012   1.331   3.289   8.631  0.7819  1.0141 -0.9946
 1939TIP3    H230013   1.389   3.159   8.579 -1.1976 -0.2117 -0.2532
 1940TIP3   OH230014   3.314   4.574   8.822  0.0243  0.0810  0.0923
 1940TIP3    H130015   3.262   4.579   8.902 -0.3016 -0.9378 -0.0327
 1940TIP3    H230016   3.405   4.585   8.852 -0.1812  0.8226  0.4469
 1941TIP3   OH230017   7.273   4.867   6.712  0.2820 -0.4535  0.2309
 1941TIP3    H130018   7.354   4.875   6.761  0.9873  1.1952 -1.0841
 1941TIP3    H230019   7.230   4.952   6.721 -2.0659 -1.7062  2.0499
 1942TIP3   OH230020   1.777   3.374   7.444 -0.4224 -0.1702  0.1077
 1942TIP3    H130021   1.847   3.431   7.478 -1.6474  0.5715  1.4615
 1942TIP3    H230022   1.778   3.390   7.349 -0.2593  1.5701  0.3734
 1943TIP3   OH230023   3.021   4.520   6.781 -0.0406  0.3907  0.2289
 1943TIP3    H130024   2.976   4.579   6.719 -2.1455 -0.0109  1.2884
 1943TIP3    H230025   2.954   4.498   6.846  1.0336 -2.2012  0.5695
 1944TIP3   OH230026   1.058   5.299   6.862  0.4159 -0.4544 -0.0923
 1944TIP3    H130027   1.007   5.219   6.849 -0.6743  0.1466  0.3961
 1944TIP3    H230028   0.994   5.369   6.860  1.3139  0.3867 -0.1252
 1945TIP3   OH230029   5.718   1.577   9.505  0.4550 -0.2125  0.3316
 1945TIP3    H130030   5.697   1.556   9.596  0.5220 -1.0700  0.1562
 1945TIP3    H230031   5.790   1.639   9.511  0.2061  0.0291  0.8684
 1946TIP3   OH230032   6.137   0.637   8.338 -0.2551 -0.1539  0.0532
 1946TIP3    H130033   6.207   0.626   8.402 -1.4582 -0.5866  1.3436
 1946TIP3    H230034   6.081   0.561   8.350 -1.7156  0.8739  0.0828
 1947TIP3   OH230035   3.220   3.795   8.359 -0.9013  0.0285  0.4324
 1947TIP3    H130036   3.173   3.712   8.365  0.3974 -0.7821 -0.2636
 1947TIP3    H230037   3.213   3.832   8.447 -1.4660 -0.8337  0.7686
 1948TIP3   OH230038   6.185   1.483   7.787  0.5587  0.5967  0.2591
 1948TIP3    H130039   6.265   1.464   7.738  0.9514  0.2985  1.0115
 1948TIP3    H230040   6.115   1.449   7.731  1.1646 -2.6327  1.2595
 1949TIP3   OH230041   0.964   3.384   8.347  0.0585 -0.1299  0.0911
 1949TIP3    H130042   0.936   3.419   8.431 -1.5973 -2.4509  0.6104
 1949TIP3    H230043   0.898   3.414   8.285  0.4546  0.3400 -0.1114
 1950TIP3   OH230044   2.322   4.700   9.061  0.5151  0.5367  0.6338
 1950TIP3    H130045   2.342   4.786   9.098  2.1080  0.0633  0.9709
 1950TIP3    H230046   2.332   4.713   8.966 -0.6605  1.0454  0.5656
 1951TIP3   OH230047   4.060   5.728   9.031 -0.2976 -0.5006 -0.2702
 1951TIP3    H130048   3.985   5.713   8.973  0.3065 -0.9960 -0.9465
 1951TIP3    H230049   4.106   5.644   9.031  0.4819 -0.0778 -0.1929
 1952TIP3   OH230050   5.385   2.178   9.554  0.3590 -0.3164 -0.2918
 1952TIP3    H130051   5.292   2.202   9.544 -0.0178 -2.1460 -1.7856
 1952TIP3    H230052   5.400   2.113   9.486  2.7299 -0.1981  0.0389
 1953TIP3   OH230053   2.830   6.198   8.011  0.3399 -0.2307  0.0428
 1953TIP3    H130054   2.895   6.226   8.075  0.3140 -0.8767  0.3550
 1953TIP3    H230055   2.782   6.127   8.054 -1.1211  0.7578  0.1556
 1954TIP3   OH230056   0.080   3.641   8.470  0.2948  0.0802 -0.2165
 1954TIP3    H130057   0.164   3.600   8.449  0.5270 -0.3689  1.4138
 1954TIP3    H230058   0.015   3.575   8.445  0.3960  0.4708 -1.5809
 1955TIP3   OH230059   0.574   7.599   8.867 -0.0754 -0.3026 -0.1117
 1955TIP3    H130060   0.653   7.597   8.814 -1.2714 -1.6318 -2.0172
 1955TIP3    H230061   0.538   7.687   8.854  1.1457  0.3720  0.9229
 1956TIP3   OH230062   3.608   2.774   7.098  0.2144  0.1932 -0.2759
 1956TIP3    H130063   3.619   2.704   7.034 -0.8686 -0.3819  0.1427
 1956TIP3    H230064   3.593   2.730   7.181 -1.7617  0.8560 -0.2181
 1957TIP3   OH230065   1.803   4.757   8.984  0.0933  0.2888  0.4033
 1957TIP3    H130066   1.799   4.683   9.044  1.1524  0.6355  0.9389
 1957TIP3    H230067   1.713   4.771   8.955  0.0970 -2.3482 -1.1429
 1958TIP3   OH230068   4.822   5.228   8.840  0.2978 -0.3826  0.0210
 1958TIP3    H130069   4.843   5.310   8.795  1.7463 -1.1134 -0.6882
 1958TIP3    H230070   4.793   5.256   8.927 -0.5979  0.9423 -0.6638
 1959TIP3   OH230071   4.086   3.163   8.439 -0.4217  0.5077 -0.0807
 1959TIP3    H130072   4.000   3.156   8.481 -0.1269  2.7674  1.0586
 1959TIP3    H230073   4.116   3.251   8.459  1.8037  0.1012 -1.2116
 1960TIP3   OH230074   5.177   6.532   9.138  0.2335  0.5898  0.2242
 1960TIP3    H130075   5.221   6.562   9.217  1.7478 -2.0992  0.5051
 1960TIP3    H230076   5.221   6.578   9.067  1.6082  0.0696  0.7119
 1961TIP3   OH230077   2.291   7.115   8.346 -0.3823  0.2007  0.3372
 1961TIP3    H130078   2.203   7.079   8.340  0.0618 -1.1402  1.2975
 1961TIP3    H230079   2.296   7.153   8.433  0.8043 -2.1851  1.3909
 1962TIP3   OH230080   5.839   5.167   7.997 -0.1000  0.1351  0.2743
 1962TIP3    H130081   5.840   5.243   7.940  1.0917 -1.9604 -2.7814
 1962TIP3    H230082   5.799   5.098   7.944  0.7697 -1.8927  2.1021
 1963TIP3   OH230083   7.541   6.342   9.281 -0.4921 -0.2552  0.6283
 1963TIP3    H130084   7.533   6.421   9.228 -0.6809  0.7227  2.0506
 1963TIP3    H230085   7.623   6.302   9.253  1.1283  1.9982  1.8203
 1964TIP3   OH230086   2.039   5.333   8.673 -0.0637 -0.4846  0.2109
 1964TIP3    H130087   2.114   5.392   8.684 -0.3595  0.3077 -1.5613
 1964TIP3    H230088   2.065   5.252   8.718  1.5569  0.0166  0.2494
 1965TIP3   OH230089   5.911   4.610   7.144  0.0474  0.0107 -0.3654
 1965TIP3    H130090   5.831   4.621   7.196  0.6618  2.2103  0.2321
 1965TIP3    H230091   5.975   4.573   7.206 -0.0237 -0.1172 -0.3683
 1966TIP3   OH230092   1.145   4.010   7.710 -0.2376  0.6576  0.4665
 1966TIP3    H130093   1.149   4.057   7.792 -0.9368  0.8341  0.4044
 1966TIP3    H230094   1.225   3.957   7.708 -0.0939  0.8508  1.1305
 1967TIP3   OH230095   5.288   0.277   6.905 -0.3095  0.2517  0.2511
 1967TIP3    H130096   5.349   0.204   6.906  1.7301  1.8242 -0.7219
 1967TIP3    H230097   5.294   0.312   6.816 -0.6195  2.0388  0.8875
 1968TIP3   OH230098   4.482   3.704   8.725 -0.1156  0.2059 -0.3547
 1968TIP3    H130099   4.514   3.615   8.745 -1.2350 -0.0858  0.2219
 1968TIP3    H230100   4.505   3.717   8.633  2.0113  0.1851  0.1236
 1969TIP3   OH230101   6.892   7.195   8.922  0.0010  0.7778  0.8932
 1969TIP3    H130102   6.922   7.105   8.908  1.5941  1.3071  0.6554
 1969TIP3    H230103   6.839   7.190   9.002  0.2103 -0.3481  0.9817
 1970TIP3   OH230104   2.322   1.108   8.115 -0.1386 -0.1801 -0.5046
 1970TIP3    H130105   2.269   1.154   8.180  0.6996 -0.4913  0.4148
 1970TIP3    H230106   2.391   1.171   8.092 -0.7728  0.1580 -1.5630
 1971TIP3   OH230107   1.195   5.246   8.390  0.6534 -0.0792 -0.3191
 1971TIP3    H130108   1.217   5.152   8.390  0.0221 -0.2352 -0.7330
 1971TIP3    H230109   1.231   5.278   8.307 -1.5291 -0.5656 -1.5302
 1972TIP3   OH230110   7.598   6.966   7.772 -0.0257  0.3588 -0.2294
 1972TIP3    H130111   7.654   7.036   7.803  1.3817 -0.6782 -0.3213
 1972TIP3    H230112   7.624   6.954   7.680 -0.4981 -0.0385 -0.3139
 1973TIP3   OH230113   3.821   4.297   7.313  0.8135 -0.1579 -0.3297
 1973TIP3    H130114   3.912   4.323   7.326  0.1045  1.3642  2.3766
 1973TIP3    H230115   3.772   4.378   7.326 -0.9991 -1.1378 -0.8023
 1974TIP3   OH230116   3.330   5.859   8.467 -0.2877  0.2457 -0.4741
 1974TIP3    H130117   3.348   5.931   8.407  0.2929  1.1779  0.7656
 1974TIP3    H230118   3.367   5.781   8.425  1.6236  1.1709 -0.5575
 1975TIP3   OH230119   3.503   4.915   7.503 -0.1881  0.2140 -0.1915
 1975TIP3    H130120   3.476   4.853   7.570 -1.0914 -1.4066 -1.9542
 1975TIP3    H230121   3.567   4.971   7.546 -0.7609 -0.7267  1.9971
 1976TIP3   OH230122   1.485   4.963   9.179  0.3159 -0.2635  0.3718
 1976TIP3    H130123   1.545   4.946   9.106 -0.1017 -0.4445  0.0705
 1976TIP3    H230124   1.415   4.898   9.168 -1.3854  1.6597 -0.8724
 1977TIP3   OH230125   3.129   3.054   9.302 -0.3576  0.0136  0.6652
 1977TIP3    H130126   3.122   3.094   9.215  0.7636  0.1928  0.6416
 1977TIP3    H230127   3.054   2.994   9.307 -0.1586 -0.3724 -0.6223
 1978TIP3   OH230128   2.298   3.771   8.691  0.9165  0.3076  0.0243
 1978TIP3    H130129   2.227   3.726   8.735  0.7023 -0.1003 -0.7230
 1978TIP3    H230130   2.305   3.856   8.736 -0.0045  0.3315  0.1284
 1979TIP3   OH230131   3.043   0.902   7.582  0.0755 -0.3083 -0.4587
 1979TIP3    H130132   2.964   0.895   7.529 -1.0159  0.3688  1.0198
 1979TIP3    H230133   3.096   0.970   7.539 -2.0170  2.2425  0.7635
 1980TIP3   OH230134   5.404   5.846   9.329 -0.1715  0.3166  0.5604
 1980TIP3    H130135   5.314   5.877   9.329  0.0001  0.8962 -0.5849
 1980TIP3    H230136   5.457   5.925   9.319  0.3316 -0.1981 -1.2809
 1981TIP3   OH230137   6.050   4.612   7.579  0.0180 -0.2009 -0.1400
 1981TIP3    H130138   5.970   4.625   7.529 -0.7409 -2.2100  0.4321
 1981TIP3    H230139   6.115   4.584   7.515  0.0171  0.5464 -0.4736
 1982TIP3   OH230140   5.928   2.254   9.539 -0.0760 -0.3191  0.2172
 1982TIP3    H130141   5.911   2.186   9.604  1.1042 -2.9898 -2.0580
 1982TIP3    H230142   5.848   2.257   9.486 -0.4569  0.7693  0.8095
 1983TIP3   OH230143   3.444   3.607   8.315 -0.4804 -0.1787 -0.3867
 1983TIP3    H130144   3.516   3.637   8.370  0.0923  0.9764 -1.7018
 1983TIP3    H230145   3.374   3.670   8.330 -0.0928  0.5261 -1.4241
 1984TIP3   OH230146   4.833   1.644   7.379  0.2300 -0.7840  0.6422
 1984TIP3    H130147   4.801   1.696   7.306  0.2828 -0.7862  0.6174
 1984TIP3    H230148   4.864   1.709   7.443 -1.1127 -0.7234  1.2760
 1985TIP3   OH230149   4.351   6.875   9.435 -0.2163 -0.0706 -0.0500
 1985TIP3    H130150   4.284   6.929   9.476 -0.4017  1.3267 -2.0933
 1985TIP3    H230151   4.305   6.826   9.368  0.6430  0.3120 -0.9403
 1986TIP3   OH230152   4.020   5.986   8.043 -0.2630  0.0322  0.0256
 1986TIP3    H130153   3.983   5.929   7.976  0.9872 -1.3729  0.4670
 1986TIP3    H230154   4.101   5.942   8.070 -1.0512  0.1676  2.9411
 1987TIP3   OH230155   5.206   3.043   7.584 -0.3134 -0.2185 -0.2431
 1987TIP3    H130156   5.204   2.989   7.505 -1.4451 -1.5130  0.6300
 1987TIP3    H230157   5.171   3.128   7.556  0.9833 -0.0647 -1.5181
 1988TIP3   OH230158   6.640   5.195   9.133  0.1005 -0.1291  0.0206
 1988TIP3    H130159   6.661   5.251   9.059 -0.2997  0.3554  0.2709
 1988TIP3    H230160   6.674   5.109   9.108 -0.7297 -0.1610 -1.0728
 1989TIP3   OH230161   6.839   6.858   8.600  0.1114 -0.2037  0.1096
 1989TIP3    H130162   6.935   6.867   8.594  0.1736 -0.5610  0.5051
 1989TIP3    H230163   6.807   6.895   8.518  0.6498 -0.9673 -0.4672
 1990TIP3   OH230164   3.521   3.966   7.675  0.3794 -0.7617 -0.1628
 1990TIP3    H130165   3.432   3.960   7.710  0.3371 -0.0261 -0.1360
 1990TIP3    H230166   3.573   3.998   7.749  0.5430 -0.5553 -0.3679
 1991TIP3   OH230167   1.787   4.057   7.845  0.1676  0.1409 -0.3742
 1991TIP3    H130168   1.791   4.082   7.938 -1.3883  0.0397 -0.2518
 1991TIP3    H230169   1.876   4.073   7.812  0.5862  0.7773  0.9770
 1992TIP3   OH230170   3.811   5.445   7.076  0.3756  0.2964 -0.4431
 1992TIP3    H130171   3.828   5.513   7.011  0.6425  0.4146 -0.2522
 1992TIP3    H230172   3.845   5.364   7.037  0.7399  0.4068 -0.3577
 1993TIP3   OH230173   7.427   2.544   8.117 -0.7218  0.2685 -0.4531
 1993TIP3    H130174   7.356   2.516   8.059 -0.9702 -0.9992  0.4347
 1993TIP3    H230175   7.410   2.499   8.200  0.9516  0.1527 -0.1377
 1994TIP3   OH230176   1.181   3.360   8.733  0.1643  0.5201  0.7543
 1994TIP3    H130177   1.188   3.348   8.828 -0.8535 -1.4925  0.6244
 1994TIP3    H230178   1.089   3.345   8.714  0.4050  0.6631 -0.5979
 1995TIP3   OH230179   7.118   7.406   7.213  0.2007  0.4146 -0.0047
 1995TIP3    H130180   7.062   7.481   7.197 -1.5929 -0.9951 -0.7130
 1995TIP3    H230181   7.115   7.393   7.308 -0.4727  0.5304 -0.0058
 1996TIP3   OH230182   3.574   7.385   8.291  0.4258  0.7143 -0.4973
 1996TIP3    H130183   3.631   7.363   8.364 -0.5054  0.6635  0.2297
 1996TIP3    H230184   3.498   7.329   8.302  0.4020  0.4935 -1.6826
 1997TIP3   OH230185   4.372   0.859   7.669  0.4336  0.5054 -0.0166
 1997TIP3    H130186   4.329   0.939   7.640  1.6325  0.9435 -0.6687
 1997TIP3    H230187   4.354   0.795   7.600 -0.2517  0.3058  0.3452
 1998TIP3   OH230188   2.226   0.411   8.169 -0.2716  0.0402  0.5563
 1998TIP3    H130189   2.252   0.425   8.078  0.5708  1.2087  0.9543
 1998TIP3    H230190   2.288   0.462   8.221 -0.3432 -1.0904  1.8433
 1999TIP3   OH230191   2.862   1.088   7.725  0.3410 -0.2941 -0.4644
 1999TIP3    H130192   2.908   1.005   7.719 -1.2712 -1.2383 -0.2555
 1999TIP3    H230193   2.777   1.072   7.685 -0.9794  0.5052  1.8144
 2000TIP3   OH230194   2.749   0.098   9.176  0.1545  0.7015  0.4048
 2000TIP3    H130195   2.687   0.155   9.130  1.8066  1.3661 -1.1445
 2000TIP3    H230196   2.764   0.142   9.260 -1.1776  0.7070  0.6581
 2001TIP3   OH230197   6.387   1.920   7.984 -0.2076  0.0972  0.1150
 2001TIP3    H130198   6.405   1.826   7.972 -2.8883 -0.5199  0.1989
 2001TIP3    H230199   6.341   1.945   7.904  0.3185  1.3187  0.1819
 2002TIP3   OH230200   2.290   4.803   7.085  0.2932 -0.2428  0.0572
 2002TIP3    H130201   2.219   4.835   7.141 -1.6028 -0.9695 -1.7923
 2002TIP3    H230202   2.300   4.870   7.017 -0.7561 -1.4825 -1.3917
 2003TIP3   OH230203   0.119   4.603   8.412 -0.0423  0.3298  0.5533
 2003TIP3    H130204   0.075   4.520   8.395 -1.1137  0.8968  0.4518
 2003TIP3    H230205   0.049   4.661   8.442  0.5885  1.3520  0.0887
 2004TIP3   OH230206   2.078   3.565   8.781  0.2975  0.0281 -0.1289
 2004TIP3    H130207   2.003   3.511   8.753 -1.3198  0.9820  2.0198
 2004TIP3    H230208   2.148   3.501   8.796 -0.8758 -1.2471  0.2132
 2005TIP3   OH230209   5.461   7.565   8.859 -0.0291  0.1962  0.0295
 2005TIP3    H130210   5.370   7.535   8.868  0.1527 -0.2123  0.5901
 2005TIP3    H230211   5.511   7.486   8.842  0.4365  0.1719  1.3578
 2006TIP3   OH230212   7.066   5.235   7.529  0.5786  0.8170  0.0263
 2006TIP3    H130213   7.101   5.272   7.448 -1.7691 -0.2635 -1.6030
 2006TIP3    H230214   6.971   5.239   7.518  0.1942  0.0912  2.4994
 2007TIP3   OH230215   7.436   2.801   7.074 -0.0603  0.4082 -0.6314
 2007TIP3    H130216   7.370   2.741   7.110 -0.7954  1.1152 -0.7634
 2007TIP3    H230217   7.434   2.783   6.980 -1.4540  1.7294 -0.8926
 2008TIP3   OH230218   0.334   3.795   8.078 -0.3035  0.3525  0.3398
 2008TIP3    H130219   0.239   3.795   8.084 -0.6649 -1.0822 -2.8444
 2008TIP3    H230220   0.357   3.886   8.059 -1.4594  0.2783 -1.8229
 2009TIP3   OH230221   6.276   1.139   7.831 -0.0135 -0.0807 -0.1807
 2009TIP3    H130222   6.251   1.167   7.743  0.9823  4.2081  0.6671
 2009TIP3    H230223   6.208   1.174   7.888 -0.8445 -3.1061  0.8607
 2010TIP3   OH230224   7.648   4.422   7.481 -0.0950 -0.1211 -0.0055
 2010TIP3    H130225   7.651   4.394   7.390  1.8078  0.2539 -0.1144
 2010TIP3    H230226   7.703   4.359   7.528 -3.0857 -1.8826  1.4302
 2011TIP3   OH230227   1.287   0.666   9.149  0.1482 -0.2457  0.1132
 2011TIP3    H130228   1.255   0.635   9.064 -0.7296  2.7825 -0.7888
 2011TIP3    H230229   1.222   0.635   9.212 -0.3206 -0.7694 -0.6160
 2012TIP3   OH230230   6.612   3.650   7.833 -0.1277 -0.3491  0.3164
 2012TIP3    H130231   6.516   3.645   7.836 -0.5420  3.4593 -0.8780
 2012TIP3    H230232   6.639   3.649   7.924 -1.3019 -1.0277  0.6828
 2013TIP3   OH230233   4.435   4.918   7.531  0.3762 -0.1751  0.0153
 2013TIP3    H130234   4.478   4.880   7.455 -0.8606  0.7481 -1.1922
 2013TIP3    H230235   4.352   4.871   7.537  0.4323 -0.1953  0.7793
 2014TIP3   OH230236   0.431   6.137   8.184 -0.4908 -0.0280 -0.1784
 2014TIP3    H130237   0.346   6.178   8.166  1.0071  3.3149 -0.4116
 2014TIP3    H230238   0.431   6.121   8.279 -0.9098  1.2648  0.0615
 2015TIP3   OH230239   5.417   0.607   8.011  0.0198  0.1705  0.2090
 2015TIP3    H130240   5.412   0.645   7.923  1.9862  1.1610  0.4561
 2015TIP3    H230241   5.358   0.532   8.008  0.3491 -0.0873 -2.1043
 2016TIP3   OH230242   2.468   2.368   9.386  0.0473  0.3269  0.0471
 2016TIP3    H130243   2.535   2.342   9.449  0.2417  0.6325 -0.0303
 2016TIP3    H230244   2.496   2.455   9.357 -0.1452  0.2653 -0.3182
 2017TIP3   OH230245   2.207   0.442   9.213  0.1475  0.1720 -0.5837
 2017TIP3    H130246   2.137   0.503   9.192 -0.5848 -0.8761 -1.2973
 2017TIP3    H230247   2.259   0.437   9.132  0.9379  0.7734 -0.1327
 2018TIP3   OH230248   4.910   1.057   7.048  0.1602 -0.7324 -0.5721
 2018TIP3    H130249   4.913   1.029   6.956  1.1808  1.4393 -1.2543
 2018TIP3    H230250   4.842   1.002   7.086 -0.6102 -1.4114 -2.7291
 2019TIP3   OH230251   5.956   6.715   9.001  0.2806  0.5061 -0.5273
 2019TIP3    H130252   5.979   6.693   9.092  0.7232 -0.7769 -0.9351
 2019TIP3    H230253   6.040   6.727   8.957  0.1473 -1.0296 -1.2667
 2020TIP3   OH230254   6.123   4.136   7.444  0.3238  0.2095 -1.1411
 2020TIP3    H130255   6.107   4.046   7.414  1.6884 -0.4984  0.1216
 2020TIP3    H230256   6.035   4.171   7.462 -0.1457 -1.8681  1.0818
 2021TIP3   OH230257   2.299   7.440   8.091 -0.1213  0.6057  0.0257
 2021TIP3    H130258   2.320   7.346   8.091  0.6080  0.7502  1.3447
 2021TIP3    H230259   2.257   7.454   8.006 -0.9886 -1.0680  0.1224
 2022TIP3   OH230260   3.552   6.578   9.278 -0.1800  0.2431 -0.1895
 2022TIP3    H130261   3.629   6.529   9.252 -1.2657 -1.0267 -1.1274
 2022TIP3    H230262   3.547   6.566   9.373  1.4368  1.4015  0.0955
 2023TIP3   OH230263   5.792   3.655   7.657 -0.1469  0.1699 -0.1074
 2023TIP3    H130264   5.751   3.612   7.732 -1.2787 -1.1875 -1.4392
 2023TIP3    H230265   5.766   3.747   7.666 -0.2539  0.0408  1.1592
 2024TIP3   OH230266   5.075   6.586   8.518 -0.0953 -0.3483 -0.0531
 2024TIP3    H130267   5.001   6.526   8.528  0.0424 -0.2644  2.0806
 2024TIP3    H230268   5.139   6.554   8.582 -0.0837  2.1478  1.2882
 2025TIP3   OH230269   2.317   1.107   9.247  0.6850  0.3736 -0.0720
 2025TIP3    H130270   2.329   1.087   9.154 -0.5841 -0.9862  0.0130
 2025TIP3    H230271   2.403   1.091   9.287  0.8304 -0.6356 -0.7594
 2026TIP3   OH230272   4.409   1.025   9.211  0.4539  0.6083  0.3262
 2026TIP3    H130273   4.408   0.930   9.224 -0.1903  0.3043 -1.5602
 2026TIP3    H230274   4.317   1.050   9.214  0.6705  1.3077  1.5228
 2027TIP3   OH230275   4.841   2.080   8.384 -0.8456 -0.1559  0.0378
 2027TIP3    H130276   4.786   2.011   8.347  0.5432 -0.6391 -1.2361
 2027TIP3    H230277   4.926   2.068   8.343  0.5286 -0.0117  2.5922
 2028TIP3   OH230278   2.795   4.032   7.254  0.4728 -0.9260 -0.0476
 2028TIP3    H130279   2.757   3.971   7.191 -0.1791  0.8138 -1.4379
 2028TIP3    H230280   2.864   4.077   7.205  1.8596 -1.4617  1.3511
 2029TIP3   OH230281   6.330   4.119   7.017  0.3029  0.2725  0.4574
 2029TIP3    H130282   6.253   4.065   7.033 -1.0678  2.2668  0.9877
 2029TIP3    H230283   6.343   4.116   6.922  0.2687 -0.9453  0.4802
 2030TIP3   OH230284   1.376   3.213   8.307  0.3568 -0.1567 -0.1733
 2030TIP3    H130285   1.425   3.213   8.389  0.0373 -2.7709  0.1234
 2030TIP3    H230286   1.425   3.152   8.251 -1.3867 -1.2264 -0.5880
 2031TIP3   OH230287   6.104   5.224   8.489  0.3825  0.2356  0.1714
 2031TIP3    H130288   6.133   5.178   8.568  0.9931  2.4235  1.3060
 2031TIP3    H230289   6.024   5.178   8.463  0.8338 -1.3176  1.3155
 2032TIP3   OH230290   3.875   4.331   7.915 -0.5372 -0.5856  0.1013
 2032TIP3    H130291   3.896   4.416   7.956 -0.4605 -0.2695 -0.5795
 2032TIP3    H230292   3.947   4.274   7.940  0.2420  0.0015 -0.7598
 2033TIP3   OH230293   5.582   1.226   8.251 -0.8065  0.1677  0.0800
 2033TIP3    H130294   5.502   1.268   8.219  0.0786  3.6715  1.9803
 2033TIP3    H230295   5.567   1.216   8.345  1.0350  1.0613  0.4921
 2034TIP3   OH230296   3.071   5.961   8.234  0.1983 -0.1020  0.1618
 2034TIP3    H130297   3.063   5.884   8.290 -0.5013 -0.4160 -0.3597
 2034TIP3    H230298   3.008   6.024   8.270  0.1442 -0.1010  0.0675
 2035TIP3   OH230299   5.342   3.733   9.057 -0.3005 -0.8777 -0.0376
 2035TIP3    H130300   5.288   3.792   9.109 -1.4110 -1.7420 -0.1897
 2035TIP3    H230301   5.324   3.646   9.093 -0.2921 -1.3675 -1.1869
 2036TIP3   OH230302   1.029   1.278   8.998 -0.2177  0.0534 -0.4682
 2036TIP3    H130303   1.103   1.299   8.941 -0.7207  0.6791 -0.9013
 2036TIP3    H230304   0.974   1.356   8.996  0.7604  0.9884  2.5439
 2037TIP3   OH230305   0.014   3.169   8.800  0.0046 -0.4821  0.1746
 2037TIP3    H130306   0.048   3.083   8.775  1.8667  0.4213 -0.6710
 2037TIP3    H230307  -0.070   3.177   8.755 -0.1917 -1.8469  0.2833
 2038TIP3   OH230308   3.137   4.060   6.522 -0.0400 -0.0786 -0.0214
 2038TIP3    H130309   3.140   4.119   6.597 -0.2863  0.2601 -0.2798
 2038TIP3    H230310   3.207   3.997   6.540  0.4449  0.4784  0.0943
 2039TIP3   OH230311   4.541   0.227   8.209 -0.5024 -0.6838  0.0238
 2039TIP3    H130312   4.456   0.231   8.253 -0.5678 -1.2411 -0.0352
 2039TIP3    H230313   4.525   0.172   8.132 -0.3528  0.1589 -0.6187
 2040TIP3   OH230314   3.044   3.083   8.995  0.6412  0.0583 -0.4326
 2040TIP3    H130315   3.048   3.022   8.920  0.4134  1.1563 -1.3726
 2040TIP3    H230316   2.966   3.136   8.977 -0.0952 -0.4039  1.2066
 2041TIP3   OH230317   1.619   0.019   9.561 -0.0999 -0.0540 -0.6581
 2041TIP3    H130318   1.709  -0.010   9.543 -0.6187 -1.1880 -1.5793
 2041TIP3    H230319   1.594  -0.032   9.639  0.4439  1.1639  0.3473
 2042TIP3   OH230320   0.401   3.885   7.210  0.2887 -0.0403 -0.1811
 2042TIP3    H130321   0.419   3.794   7.185  1.0214  0.8402 -3.3773
 2042TIP3    H230322   0.318   3.906   7.168  0.6995  1.0720 -0.4881
 2043TIP3   OH230323   1.997   3.784   8.927  0.1181 -0.3293 -0.2558
 2043TIP3    H130324   1.904   3.763   8.934 -0.3080  1.2724 -0.8337
 2043TIP3    H230325   2.035   3.710   8.880 -1.2480 -0.0308 -1.9057
 2044TIP3   OH230326   7.543   3.529   8.659  0.1752 -0.2277 -0.1206
 2044TIP3    H130327   7.507   3.582   8.730  0.3729 -0.8068  0.4213
 2044TIP3    H230328   7.621   3.577   8.630 -0.0334  0.1261 -0.1057
 2045TIP3   OH230329   3.105   4.650   8.997 -0.8386 -0.2325  0.0064
 2045TIP3    H130330   3.109   4.733   8.949 -1.0615 -1.0228 -1.4106
 2045TIP3    H230331   3.184   4.651   9.051 -1.4281  1.4206  0.9253
 2046TIP3   OH230332   5.744   0.723   8.390 -0.3981 -0.2077 -0.4385
 2046TIP3    H130333   5.695   0.803   8.370 -1.2966 -1.1002 -1.9216
 2046TIP3    H230334   5.808   0.716   8.318  0.6253 -0.1055  0.4327
 2047TIP3   OH230335   6.046   7.002   6.794  0.0203  0.7349 -0.3287
 2047TIP3    H130336   6.090   7.086   6.808  1.0069 -0.2033  3.2097
 2047TIP3    H230337   6.111   6.949   6.747 -0.5814  1.8085 -2.5168
 2048TIP3   OH230338   4.158   3.039   7.887  0.8545 -0.3937  0.6831
 2048TIP3    H130339   4.199   3.086   7.960  1.5192 -1.1164  0.7894
 2048TIP3    H230340   4.220   3.049   7.815  1.4536 -1.8305  0.9556
 2049TIP3   OH230341   0.495   5.023   8.938  0.3807  0.6453  0.1332
 2049TIP3    H130342   0.492   5.074   8.857  1.6154  0.9341  0.2580
 2049TIP3    H230343   0.494   5.088   9.008  0.9576  0.4623  0.3129
 2050TIP3   OH230344   2.143   3.879   7.205 -0.1403  0.2722 -0.4736
 2050TIP3    H130345   2.053   3.904   7.188 -0.9197 -1.7453  0.3195
 2050TIP3    H230346   2.163   3.813   7.139  0.7834  0.7252 -0.6689
 2051TIP3   OH230347   0.318   7.457   6.993  0.1580  0.1808 -0.0312
 2051TIP3    H130348   0.292   7.406   6.917  0.1301  0.7525 -0.4062
 2051TIP3    H230349   0.411   7.475   6.980  0.2078  0.0915  0.1833
 2052TIP3   OH230350   4.005   0.917   6.722 -0.0436  0.1633  0.1016
 2052TIP3    H130351   4.020   0.822   6.728 -0.8677 -0.2735 -3.1406
 2052TIP3    H230352   4.055   0.944   6.645 -1.8457  1.8785 -0.5143
 2053TIP3   OH230353   7.668   2.598   8.375  0.0716 -0.2987  0.4958
 2053TIP3    H130354   7.634   2.649   8.302  0.2840 -1.1495 -0.2124
 2053TIP3    H230355   7.629   2.639   8.453 -0.4339  0.3978 -0.1081
 2054TIP3   OH230356   4.275   1.161   8.776 -0.1749 -0.3230  0.0240
 2054TIP3    H130357   4.307   1.167   8.686  0.1897  0.1596  0.1827
 2054TIP3    H230358   4.345   1.198   8.830 -0.4492 -0.4732  0.4951
 2055TIP3   OH230359   0.205   2.007   8.250  0.1708 -0.3465  0.5922
 2055TIP3    H130360   0.118   1.969   8.254  0.0511 -0.0837  0.5108
 2055TIP3    H230361   0.230   2.003   8.158 -0.3710  0.9357  0.3691
 2056TIP3   OH230362   4.188   3.658   7.641 -0.4876 -0.3812 -0.1109
 2056TIP3    H130363   4.230   3.597   7.581  0.1511 -0.0372 -0.0318
 2056TIP3    H230364   4.142   3.720   7.585  0.5188  0.2332 -0.2800
 2057TIP3   OH230365   3.783   7.567   8.792  0.0712 -0.5352  0.5539
 2057TIP3    H130366   3.865   7.537   8.753 -0.1479 -0.1654 -0.1974
 2057TIP3    H230367   3.747   7.629   8.729  0.5427  1.3787  2.0689
 2058TIP3   OH230368   2.021   1.325   8.424  0.2635  0.6474  0.0420
 2058TIP3    H130369   1.997   1.305   8.514  0.1270  2.1358  0.3572
 2058TIP3    H230370   1.940   1.357   8.384  0.3386  0.0685 -0.5959
 2059TIP3   OH230371   4.723   6.406   9.348 -0.3214  0.1881  0.4074
 2059TIP3    H130372   4.813   6.436   9.365  0.4709 -0.7542 -1.8058
 2059TIP3    H230373   4.668   6.478   9.377  1.3789  2.7736 -2.2720
 2060TIP3   OH230374   0.731   1.288   8.367  0.4241 -0.6206  0.0328
 2060TIP3    H130375   0.809   1.303   8.313  0.2348  0.9624  0.1356
 2060TIP3    H230376   0.762   1.234   8.439  1.3688 -0.2468 -0.0793
 2061TIP3   OH230377   4.072   4.058   9.268  0.1563 -0.6162  0.5375
 2061TIP3    H130378   4.074   4.041   9.174  0.8496  1.2863  0.1512
 2061TIP3    H230379   3.979   4.060   9.291 -0.1142  0.7843 -0.5309
 2062TIP3   OH230380   3.226   0.038   8.865  0.2376  0.3304  0.7559
 2062TIP3    H130381   3.267   0.120   8.838 -0.0909  0.8140  1.6897
 2062TIP3    H230382   3.132   0.058   8.867 -0.1090 -0.7923 -1.4741
 2063TIP3   OH230383   1.696   1.580   8.254  0.2371  0.9577 -0.1066
 2063TIP3    H130384   1.689   1.655   8.195 -1.3121  0.5705 -0.4474
 2063TIP3    H230385   1.739   1.512   8.202 -1.8301  0.3484 -1.1124
 2064TIP3   OH230386   7.048   3.084   7.385  0.1466 -0.2694  0.1276
 2064TIP3    H130387   6.976   3.025   7.407  0.1546 -1.3284 -2.2577
 2064TIP3    H230388   7.008   3.152   7.331  0.7279 -0.2504 -0.2953
 2065TIP3   OH230389   4.028   7.348   8.475  0.1595  0.0576 -0.2828
 2065TIP3    H130390   4.115   7.334   8.439 -0.4486 -0.0209 -1.8207
 2065TIP3    H230391   4.041   7.404   8.552  1.6414 -0.7806  0.1093
 2066TIP3   OH230392   4.519   0.788   7.880 -0.0937 -0.3809  0.2837
 2066TIP3    H130393   4.463   0.809   7.806 -0.8750  0.3915  1.0647
 2066TIP3    H230394   4.488   0.702   7.909  0.7658 -1.0686 -0.7648
 2067TIP3   OH230395   2.977   7.259   9.517  0.1224 -0.2059 -0.4834
 2067TIP3    H130396   3.011   7.334   9.566  0.6556 -0.8830  0.2095
 2067TIP3    H230397   2.992   7.282   9.425 -1.6664  1.4573 -0.4223
 2068TIP3   OH230398   6.660   3.696   9.208  0.8154 -0.2959  0.5732
 2068TIP3    H130399   6.602   3.705   9.284 -0.4224 -1.6718 -0.1711
 2068TIP3    H230400   6.609   3.646   9.144  1.5020  1.5262 -1.5275
 2069TIP3   OH230401   5.269   1.729   7.746  0.0699  0.3667 -0.8095
 2069TIP3    H130402   5.318   1.692   7.672 -0.1438 -1.6478 -0.0030
 2069TIP3    H230403   5.305   1.685   7.822 -2.0124 -0.0979 -0.0428
 2070TIP3   OH230404   4.785   4.035   8.095 -0.3667  0.2160 -0.4109
 2070TIP3    H130405   4.706   4.052   8.043 -0.8022 -1.5897 -0.4287
 2070TIP3    H230406   4.752   3.992   8.174  0.6739 -2.6340 -1.3918
 2071TIP3   OH230407   0.690   0.136   7.994 -0.1840  0.2288  0.2504
 2071TIP3    H130408   0.763   0.076   8.010 -1.2819 -0.7139  2.0732
 2071TIP3    H230409   0.618   0.079   7.970 -1.5548  0.5924  3.0823
 2072TIP3   OH230410   4.789   2.635   9.199  0.6677  0.0274  0.1949
 2072TIP3    H130411   4.708   2.585   9.208  0.9536 -0.4038  0.4641
 2072TIP3    H230412   4.857   2.574   9.230  0.8847  1.0271  1.8193
 2073TIP3   OH230413   1.391   3.890   7.788 -0.0846 -0.2264  0.1484
 2073TIP3    H130414   1.482   3.871   7.767 -0.5819  0.0703 -2.8129
 2073TIP3    H230415   1.395   3.952   7.861  1.9584 -1.6453  1.3282
 2074TIP3   OH230416   6.136   3.491   7.930  0.6013 -0.2685 -0.7401
 2074TIP3    H130417   6.126   3.413   7.875  0.9915 -0.1386 -0.9959
 2074TIP3    H230418   6.046   3.517   7.951  0.4720 -1.0116 -0.3354
 2075TIP3   OH230419   0.722   2.993   8.774 -0.3971 -0.1062 -0.2606
 2075TIP3    H130420   0.705   2.973   8.866 -1.5055  0.9645 -0.1966
 2075TIP3    H230421   0.682   3.079   8.761  2.7514  1.3935 -0.8908
 2076TIP3   OH230422   7.407   6.799   8.217 -0.1527 -0.4090 -0.2436
 2076TIP3    H130423   7.476   6.845   8.170  2.2369 -2.8157  0.6003
 2076TIP3    H230424   7.380   6.860   8.286  0.4076  0.9716 -1.2116
 2077TIP3   OH230425   6.092   1.301   7.968 -0.3304  0.2162  0.5052
 2077TIP3    H130426   5.999   1.307   7.945 -0.5491  1.2179  1.5766
 2077TIP3    H230427   6.130   1.383   7.938  0.4806 -0.6360 -0.9384
 2078TIP3   OH230428   1.673   1.464   8.786  0.3047 -0.0299 -0.0660
 2078TIP3    H130429   1.641   1.378   8.812 -0.2951  0.0638 -0.4533
 2078TIP3    H230430   1.646   1.473   8.694  0.2109  0.6324  0.0177
 2079TIP3   OH230431   4.534   5.794   8.755 -0.2529  0.9961  0.0902
 2079TIP3    H130432   4.539   5.705   8.790  0.1652  1.0314  0.1328
 2079TIP3    H230433   4.471   5.789   8.683 -0.7111  0.8058  0.5026
 2080TIP3   OH230434   1.972   4.592   8.258 -0.1447  0.2235 -0.3994
 2080TIP3    H130435   1.994   4.504   8.229  2.1136  0.1421  1.2725
 2080TIP3    H230436   1.902   4.579   8.322 -2.0822  0.0260 -2.4364
 2081TIP3   OH230437   7.247   0.495   7.936  0.1855  0.0687  0.2347
 2081TIP3    H130438   7.342   0.500   7.925 -0.0049  1.0512 -1.2926
 2081TIP3    H230439   7.219   0.587   7.940 -0.7845 -0.1972 -0.2423
 2082TIP3   OH230440   4.598   3.822   7.144  0.4486 -0.3725  0.5294
 2082TIP3    H130441   4.599   3.733   7.106  0.9222  0.1977 -0.8744
 2082TIP3    H230442   4.688   3.836   7.173  0.4087 -0.3028  0.6169
 2083TIP3   OH230443   6.642   7.529   8.908 -0.1636 -0.1983 -0.6143
 2083TIP3    H130444   6.677   7.469   8.844  0.2197 -0.2796 -0.3310
 2083TIP3    H230445   6.651   7.616   8.868  2.6745  0.0920  0.3953
 2084TIP3   OH230446   1.576   4.154   6.979  0.1508 -0.2882  0.0585
 2084TIP3    H130447   1.543   4.199   6.901 -1.3292 -2.8979 -0.9368
 2084TIP3    H230448   1.646   4.098   6.948  0.3812 -0.4513  0.8381
 2085TIP3   OH230449   2.785   0.881   9.256  0.1034  0.7171 -0.3981
 2085TIP3    H130450   2.791   0.889   9.161  1.5858  0.4152 -0.3559
 2085TIP3    H230451   2.863   0.832   9.281 -0.9647 -0.4558  0.8457
 2086TIP3   OH230452   4.365   6.051   9.136  0.2428  0.0118 -0.2524
 2086TIP3    H130453   4.311   6.039   9.214  0.4031 -0.3274 -0.1895
 2086TIP3    H230454   4.379   5.962   9.103  1.4193  0.0345  0.1724
 2087TIP3   OH230455   6.542   0.129   7.231 -0.0139  0.0722  0.0816
 2087TIP3    H130456   6.454   0.101   7.258 -0.0110 -0.1084 -0.0901
 2087TIP3    H230457   6.528   0.214   7.189  0.0758  0.7161  1.2992
 2088TIP3   OH230458   5.545   4.878   7.495 -0.1592  0.1694 -0.5371
 2088TIP3    H130459   5.618   4.937   7.476 -1.7182  1.6491 -2.3187
 2088TIP3    H230460   5.524   4.838   7.410 -1.6991  0.1424 -0.1661
 2089TIP3   OH230461   1.006   2.219   9.201 -0.0594  0.1911 -0.0664
 2089TIP3    H130462   1.012   2.314   9.190  0.8010 -0.0737 -2.3252
 2089TIP3    H230463   1.095   2.192   9.224 -0.4644 -0.0212  1.3493
 2090TIP3   OH230464   3.871   6.979   7.944 -0.0061 -0.6878  0.8840
 2090TIP3    H130465   3.961   6.951   7.956 -0.7903 -3.5316  0.7156
 2090TIP3    H230466   3.876   7.075   7.941  3.0344 -0.7720  0.3350
 2091TIP3   OH230467   6.740   0.795   9.671  0.5829 -0.3381  0.0385
 2091TIP3    H130468   6.652   0.824   9.693 -0.1017 -1.9823 -0.3885
 2091TIP3    H230469   6.797   0.868   9.698 -0.9507  1.0762 -0.4053
 2092TIP3   OH230470   3.524   3.233   6.859  0.2068  0.6028 -0.2164
 2092TIP3    H130471   3.577   3.158   6.884 -0.1040  0.1257 -0.9826
 2092TIP3    H230472   3.460   3.199   6.797 -0.8633  1.2134  0.5128
 2093TIP3   OH230473   3.542   1.288   9.542 -0.4076 -0.0075  0.5481
 2093TIP3    H130474   3.592   1.247   9.471 -0.6957 -0.2410  0.4807
 2093TIP3    H230475   3.487   1.353   9.498 -4.1467 -3.2703 -0.1706
 2094TIP3   OH230476   7.538   6.391   7.334  0.2803 -0.6834  0.1113
 2094TIP3    H130477   7.629   6.367   7.348  0.2346 -0.5698  0.6263
 2094TIP3    H230478   7.531   6.481   7.367  0.0690 -0.5472 -0.2817
 2095TIP3   OH230479   0.572   1.946   7.155  0.0448 -0.3195  0.1345
 2095TIP3    H130480   0.636   2.006   7.193 -0.3703  0.9131 -1.0524
 2095TIP3    H230481   0.622   1.866   7.138  0.9799  0.1949  0.3637
 2096TIP3   OH230482   5.784   0.971   9.289 -0.2890  0.6033  0.0050
 2096TIP3    H130483   5.809   1.062   9.303  0.0078  0.9180 -2.1339
 2096TIP3    H230484   5.864   0.930   9.255 -0.3780 -0.5061  1.0835
 2097TIP3   OH230485   6.168   0.006   7.600  0.2314 -0.6051  0.0472
 2097TIP3    H130486   6.131  -0.043   7.526  0.0810 -3.3800  1.7843
 2097TIP3    H230487   6.098   0.006   7.666  0.1551  2.2940  0.0818
 2098TIP3   OH230488   4.676   3.021   8.469  0.2677 -0.5238  0.9229
 2098TIP3    H130489   4.629   2.975   8.399 -0.5187  1.0703  0.3518
 2098TIP3    H230490   4.762   2.979   8.472  0.5922 -0.1862 -1.5139
 2099TIP3   OH230491   0.548   5.671   6.990  0.2194  0.0682  0.3916
 2099TIP3    H130492   0.601   5.628   7.057 -0.9152 -2.0834 -0.0272
 2099TIP3    H230493   0.571   5.627   6.909  0.4564  1.6208 -0.4242
 2100TIP3   OH230494   4.596   0.408   7.073 -0.0622 -0.3788  0.0545
 2100TIP3    H130495   4.658   0.335   7.067  1.3078  0.8513 -2.6927
 2100TIP3    H230496   4.645   0.477   7.118 -0.8715 -0.6780  1.4244
 2101TIP3   OH230497   4.842   0.123   8.641  0.0368 -0.8228  0.6473
 2101TIP3    H130498   4.811   0.141   8.552 -0.2089  0.2006  0.9307
 2101TIP3    H230499   4.907   0.192   8.658 -0.2990 -0.6937  1.4460
 2102TIP3   OH230500   6.134   4.398   9.327 -0.2159  0.4356 -0.1361
 2102TIP3    H130501   6.203   4.447   9.373 -0.2680 -0.3261  0.7994
 2102TIP3    H230502   6.171   4.310   9.317 -1.6168 -0.4567  1.8225
 2103TIP3   OH230503   0.782   4.202   7.498 -0.1784 -0.0577  0.2392
 2103TIP3    H130504   0.691   4.203   7.528 -0.4028 -1.8163 -0.2672
 2103TIP3    H230505   0.777   4.231   7.406 -0.0665  0.8984  0.5215
 2104TIP3   OH230506   1.865   1.959   7.549  0.0784 -0.0632 -0.1173
 2104TIP3    H130507   1.944   2.013   7.553  0.6107 -0.7144 -1.3259
 2104TIP3    H230508   1.793   2.023   7.544  0.1548  0.6515  4.1451
 2105TIP3   OH230509   7.115   0.996   9.010 -0.0089  0.1899 -0.4953
 2105TIP3    H130510   7.132   0.954   8.926 -2.1835 -1.5847 -0.1125
 2105TIP3    H230511   7.041   1.055   8.994  0.5875  1.0663 -0.1526
 2106TIP3   OH230512   5.755   6.658   8.830 -0.6580 -0.6372 -0.1551
 2106TIP3    H130513   5.819   6.672   8.900 -0.2511 -1.6277 -0.2972
 2106TIP3    H230514   5.720   6.745   8.810  2.2831  0.3526 -1.6130
 2107TIP3   OH230515   2.802   5.931   8.766  0.0983 -0.0234  0.3734
 2107TIP3    H130516   2.721   5.904   8.809 -0.6727  1.5929  0.0062
 2107TIP3    H230517   2.799   6.027   8.766  0.4953  0.0771 -2.4136
 2108TIP3   OH230518   6.479   1.098   8.245 -0.2269  0.1146  0.0879
 2108TIP3    H130519   6.433   1.014   8.253  1.0503 -0.5381  0.7986
 2108TIP3    H230520   6.565   1.075   8.210 -0.7840  1.4537 -2.3954
 2109TIP3   OH230521   6.242   7.241   8.028  0.2414 -0.1746  0.3934
 2109TIP3    H130522   6.218   7.333   8.020  0.6844  0.2368  2.9829
 2109TIP3    H230523   6.337   7.240   8.016  0.2832 -0.2429  0.7254
 2110TIP3   OH230524   7.233   3.605   9.486  0.5550  0.1929  0.3069
 2110TIP3    H130525   7.299   3.665   9.520  0.9300 -1.1732  2.1184
 2110TIP3    H230526   7.282   3.527   9.461 -0.2607 -0.4749  0.7534
 2111TIP3   OH230527   6.122   4.462   7.295  0.0591  0.4363  0.2709
 2111TIP3    H130528   6.084   4.388   7.341 -1.7387  1.7689  1.0267
 2111TIP3    H230529   6.210   4.432   7.272 -1.1272 -2.5139 -0.9308
 2112TIP3   OH230530   5.184   0.798   7.912  0.2316 -0.0390  0.2453
 2112TIP3    H130531   5.117   0.826   7.849 -0.7946 -1.2795  0.7362
 2112TIP3    H230532   5.267   0.814   7.868 -0.4578 -2.4527 -2.2200
 2113TIP3   OH230533   6.468   6.753   8.772 -0.6492  0.2544  0.4302
 2113TIP3    H130534   6.445   6.841   8.801  1.0360  1.6260 -2.0427
 2113TIP3    H230535   6.552   6.734   8.813 -2.1199 -1.3846  2.9797
 2114TIP3   OH230536   1.018   3.772   9.562 -0.0936  0.1077 -0.1915
 2114TIP3    H130537   1.084   3.703   9.568 -0.5370 -0.1775  2.1528
 2114TIP3    H230538   1.065   3.852   9.586 -0.6179 -0.1464  1.8105
 2115TIP3   OH230539   1.270   2.267   8.011  0.1917 -0.3706 -0.6924
 2115TIP3    H130540   1.274   2.313   7.927 -0.5405 -0.4871 -0.7998
 2115TIP3    H230541   1.239   2.333   8.073 -1.4197 -0.8319 -0.9580
 2116TIP3   OH230542   2.247   5.257   7.746 -0.6524  0.5819 -0.4137
 2116TIP3    H130543   2.176   5.216   7.795 -1.2375  1.6598 -0.3135
 2116TIP3    H230544   2.217   5.258   7.655 -1.1365  1.7483 -0.2571
 2117TIP3   OH230545   3.915   1.757   9.841 -1.2617  0.1379 -0.1192
 2117TIP3    H130546   3.843   1.816   9.821  0.8775  2.9601 -0.1531
 2117TIP3    H230547   3.988   1.815   9.863  1.1258 -2.5189 -0.4273
 2118TIP3   OH230548   4.415   2.667   8.353 -0.1666 -0.2445  0.3090
 2118TIP3    H130549   4.495   2.655   8.404 -0.0152 -1.0007 -0.0791
 2118TIP3    H230550   4.393   2.578   8.324 -0.1736  0.1814 -1.0403
 2119TIP3   OH230551   6.396   3.481   8.850  0.0716 -0.0635  0.3048
 2119TIP3    H130552   6.383   3.561   8.799  2.0605  0.6393  0.7989
 2119TIP3    H230553   6.330   3.420   8.817 -1.0132  1.5338 -0.5926
 2120TIP3   OH230554   3.946   5.905   9.192  0.0936 -0.6982 -1.0130
 2120TIP3    H130555   3.987   5.838   9.138 -0.1317 -0.3375 -1.6437
 2120TIP3    H230556   3.946   5.984   9.137 -1.0392 -0.5783 -0.8620
 2121TIP3   OH230557   5.668   1.015   7.453  0.4651 -0.3324  0.6831
 2121TIP3    H130558   5.759   1.026   7.427  0.4464 -0.5477  0.5201
 2121TIP3    H230559   5.618   1.043   7.377  0.3796  0.4833  1.0327
 2122TIP3   OH230560   5.665   5.241   8.354  0.0321 -0.1559  0.0962
 2122TIP3    H130561   5.608   5.214   8.425 -0.5696 -0.2166 -0.4024
 2122TIP3    H230562   5.657   5.336   8.352  0.0297 -0.1562  0.0959
 2123TIP3   OH230563   3.636   0.987   7.178  0.3500  0.3070  0.0119
 2123TIP3    H130564   3.607   0.991   7.270 -1.1182  2.3258 -0.4602
 2123TIP3    H230565   3.585   0.916   7.140 -1.2957  1.3971  0.0943
 2124TIP3   OH230566   3.512   5.903   7.585  0.0819 -1.0185  0.3669
 2124TIP3    H130567   3.555   5.988   7.570 -1.1895  0.1180  2.7293
 2124TIP3    H230568   3.585   5.842   7.598  1.0290 -0.4234 -1.6554
 2125TIP3   OH230569   5.715   7.154   8.202 -0.7267  0.2723  0.1886
 2125TIP3    H130570   5.737   7.063   8.222 -1.2489  0.1366  0.1623
 2125TIP3    H230571   5.790   7.205   8.234  0.3350 -0.2956 -1.2923
 2126TIP3   OH230572   7.246   7.591   7.756 -0.1380  0.1125 -0.2080
 2126TIP3    H130573   7.285   7.616   7.672  3.5707  1.0797  1.6118
 2126TIP3    H230574   7.266   7.498   7.765  1.0478  0.3945  0.2968
 2127TIP3   OH230575   4.591   0.485   8.277  0.2199  0.1421  0.4889
 2127TIP3    H130576   4.526   0.534   8.328 -1.2672  0.2725 -1.4424
 2127TIP3    H230577   4.546   0.404   8.252  1.1639 -0.2436  0.0046
 2128TIP3   OH230578   1.431   5.524   9.183  0.0790 -0.0521  0.4314
 2128TIP3    H130579   1.460   5.558   9.268  0.5551 -0.2553  0.3545
 2128TIP3    H230580   1.449   5.430   9.188 -3.2013 -0.7819  1.4809
 2129TIP3   OH230581   7.487   2.639   8.572 -0.1406  0.0523 -0.1193
 2129TIP3    H130582   7.421   2.693   8.615  0.0108 -0.4318  0.7464
 2129TIP3    H230583   7.472   2.551   8.606  0.2191 -0.2720 -0.7901
 2130TIP3   OH230584   4.966   6.826   8.405 -0.3761 -0.4417 -0.0709
 2130TIP3    H130585   4.970   6.735   8.431 -3.0082 -0.5875  0.1443
 2130TIP3    H230586   4.923   6.871   8.478 -1.8950  0.3396 -1.3482
 2131TIP3   OH230587   2.528   1.248   9.084  0.0095  0.6904  0.8104
 2131TIP3    H130588   2.585   1.222   9.157  0.9124  1.8812  0.5678
 2131TIP3    H230589   2.495   1.334   9.109 -0.4948  0.6642  0.2640
 2132TIP3   OH230590   5.748   0.331   7.384 -0.4267 -0.6578  0.1195
 2132TIP3    H130591   5.802   0.254   7.397 -0.0537 -0.5085 -0.4677
 2132TIP3    H230592   5.699   0.312   7.303 -0.8539 -0.5709  0.3553
 2133TIP3   OH230593   2.917   2.701   8.990 -0.1737 -0.3379  0.0626
 2133TIP3    H130594   2.981   2.632   9.009 -0.4756 -1.1589 -1.7243
 2133TIP3    H230595   2.965   2.764   8.936  0.1945  1.1015  1.9415
 2134TIP3   OH230596   4.603   5.942   6.896  0.0771  0.7449  0.4778
 2134TIP3    H130597   4.689   5.962   6.933  1.1141 -0.8673 -0.9071
 2134TIP3    H230598   4.587   5.851   6.923 -1.5271  1.2251  1.2632
 2135TIP3   OH230599   0.468   1.322   9.757 -0.1100 -0.3145 -0.2929
 2135TIP3    H130600   0.554   1.285   9.736 -0.3672 -0.9535 -0.2354
 2135TIP3    H230601   0.406   1.253   9.733 -0.6224  0.2088 -0.5014
 2136TIP3   OH230602   2.798   5.025   8.505  0.0056 -0.3737 -0.4191
 2136TIP3    H130603   2.822   5.062   8.421  2.8147 -0.9570  0.0169
 2136TIP3    H230604   2.862   4.954   8.519 -1.2973 -1.2544  1.5424
 2137TIP3   OH230605   5.140   7.409   8.069  0.5832  0.4485  0.0149
 2137TIP3    H130606   5.159   7.502   8.072  1.7549  0.2909 -1.2738
 2137TIP3    H230607   5.173   7.380   7.983 -1.7490 -0.7374 -0.5579
 2138TIP3   OH230608   7.653   2.407   9.630  0.0277  0.2163 -0.3676
 2138TIP3    H130609   7.731   2.372   9.674 -0.8446  0.2249  1.2485
 2138TIP3    H230610   7.662   2.502   9.638  0.1865  0.2383 -0.7925
 2139TIP3   OH230611   6.936   6.621   8.467 -0.6757 -0.1771 -0.3414
 2139TIP3    H130612   6.892   6.701   8.498 -1.4822 -0.6224 -0.2993
 2139TIP3    H230613   6.900   6.551   8.523 -0.4783 -0.6705 -0.8227
 2140TIP3   OH230614   7.486   0.288   8.927  0.2641  0.6161  0.1505
 2140TIP3    H130615   7.499   0.235   9.005 -0.7914 -0.7520 -0.5752
 2140TIP3    H230616   7.558   0.352   8.929  0.5166  0.3059  1.9673
 2141TIP3   OH230617   3.453   3.459   9.368 -0.2097  0.3935 -0.0382
 2141TIP3    H130618   3.463   3.521   9.440  0.7687 -0.1197  0.2737
 2141TIP3    H230619   3.358   3.452   9.356 -0.3909  0.3860  1.2820
 2142TIP3   OH230620   6.706   6.166   6.632 -0.1933  0.0498  0.9542
 2142TIP3    H130621   6.748   6.101   6.688  1.4566  0.5780  0.4012
 2142TIP3    H230622   6.651   6.115   6.573  0.5594 -0.8032  0.9649
 2143TIP3   OH230623   0.958   5.416   8.436  0.0272  0.0681  0.6197
 2143TIP3    H130624   0.923   5.464   8.360  0.6530  1.7482  1.3461
 2143TIP3    H230625   1.026   5.360   8.399 -1.5567 -1.2923 -0.4280
 2144TIP3   OH230626   0.632   6.677   7.367 -0.4239 -0.7522  0.1338
 2144TIP3    H130627   0.547   6.660   7.325 -0.2243 -2.1505  0.2282
 2144TIP3    H230628   0.654   6.594   7.410  1.3884 -0.6924 -0.5945
 2145TIP3   OH230629   2.348   2.763   8.887 -0.3646  0.5727  0.1217
 2145TIP3    H130630   2.300   2.715   8.955  0.6184 -0.5775  0.0443
 2145TIP3    H230631   2.313   2.852   8.891 -0.7098  0.3943  1.7706
 2146TIP3   OH230632   6.581   6.066   9.182  0.1172  0.0670  0.1237
 2146TIP3    H130633   6.644   6.038   9.248 -0.1370  0.6381  0.6236
 2146TIP3    H230634   6.502   6.086   9.232 -0.5533 -0.8875 -0.5180
 2147TIP3   OH230635   2.073   1.216   9.187  0.3809  0.3320 -0.0272
 2147TIP3    H130636   2.051   1.192   9.097  0.6934  0.9031 -0.2656
 2147TIP3    H230637   2.121   1.141   9.221  1.1620  0.5196 -0.6810
 2148TIP3   OH230638   7.637   2.085   8.383 -0.0755  0.5885 -0.3159
 2148TIP3    H130639   7.729   2.061   8.395 -0.1532 -0.9360 -2.2119
 2148TIP3    H230640   7.640   2.176   8.355  0.8276  0.6814  0.0501
 2149TIP3   OH230641   3.984   0.801   7.625  0.2265  0.1759 -0.6026
 2149TIP3    H130642   3.905   0.795   7.571  0.2992 -0.6871 -0.6374
 2149TIP3    H230643   4.044   0.737   7.585 -0.3555 -1.8401  1.5340
 2150TIP3   OH230644   3.692   0.644   9.463 -0.0873  0.1712 -0.0652
 2150TIP3    H130645   3.648   0.598   9.535 -0.2761 -2.6510 -1.8459
 2150TIP3    H230646   3.651   0.730   9.462  0.8804  0.9128  4.0014
 2151TIP3   OH230647   2.429   0.805   7.902  0.0492 -0.5329 -0.1171
 2151TIP3    H130648   2.360   0.869   7.916  0.1100 -0.4363 -0.2537
 2151TIP3    H230649   2.420   0.743   7.974  0.5082  0.0802  0.4668
 2152TIP3   OH230650   5.511   6.611   8.556  0.5365 -0.4627  0.0240
 2152TIP3    H130651   5.471   6.647   8.476  1.0611 -1.3485 -0.6564
 2152TIP3    H230652   5.437   6.573   8.604  0.1772  0.3061  0.1061
 2153TIP3   OH230653   4.409   1.733   6.954 -0.0338  0.3887 -0.1280
 2153TIP3    H130654   4.468   1.795   6.911 -0.0069 -0.1064 -0.8362
 2153TIP3    H230655   4.384   1.672   6.884 -0.6161  0.0221  0.3898
 2154TIP3   OH230656   0.585   5.968   7.878 -0.0763 -0.5380 -0.1364
 2154TIP3    H130657   0.528   5.891   7.877 -1.1145 -0.1302  4.2371
 2154TIP3    H230658   0.525   6.042   7.887  0.9897  0.2333  1.0410
 2155TIP3   OH230659   3.003   2.797   6.400 -0.3573 -0.2017 -0.4020
 2155TIP3    H130660   2.978   2.818   6.310 -0.2091  0.2639 -0.3337
 2155TIP3    H230661   2.959   2.862   6.454  0.3763  0.1485 -0.2190
 2156TIP3   OH230662   3.630   6.253   9.336 -0.4455 -0.3693 -0.3305
 2156TIP3    H130663   3.714   6.262   9.382 -0.9183 -1.7858  0.8802
 2156TIP3    H230664   3.564   6.250   9.405 -1.5277  0.7509 -1.2719
 2157TIP3   OH230665   4.639   1.008   9.421  0.1446  0.0424  0.4292
 2157TIP3    H130666   4.545   1.012   9.439  0.3157  0.6695  1.2611
 2157TIP3    H230667   4.656   1.084   9.366 -0.4424 -2.0666 -2.9144
 2158TIP3   OH230668   6.634   5.573   7.057 -0.1699 -0.0913  0.6964
 2158TIP3    H130669   6.621   5.646   6.997  2.1461  0.7563  1.1418
 2158TIP3    H230670   6.629   5.495   7.002  0.9890  0.6096 -0.4440
 2159TIP3   OH230671   3.465   6.903   9.223 -0.0501 -0.3028 -0.3017
 2159TIP3    H130672   3.442   6.810   9.230  1.1102 -0.5389  0.6958
 2159TIP3    H230673   3.415   6.946   9.292 -0.5392 -0.1893 -0.7233
 2160TIP3   OH230674   2.396   0.467   7.563 -0.2350  0.4916 -0.1433
 2160TIP3    H130675   2.472   0.434   7.515 -0.3019 -0.7135  0.5257
 2160TIP3    H230676   2.429   0.487   7.650 -0.3256  1.7110 -0.3668
 2161TIP3   OH230677   4.392   7.235   7.295  0.3480  0.8893 -1.0397
 2161TIP3    H130678   4.338   7.278   7.229 -0.4844  2.2890  0.4789
 2161TIP3    H230679   4.338   7.162   7.327  0.8561  0.0480 -2.0350
 2162TIP3   OH230680   7.093   0.743   7.957 -0.2598 -0.3154 -0.1190
 2162TIP3    H130681   7.151   0.819   7.947  0.1262 -0.7886 -1.6719
 2162TIP3    H230682   7.097   0.723   8.051  2.5542 -0.6603 -0.2172
 2163TIP3   OH230683   2.025   1.706   8.607 -0.6758 -0.6175  0.0605
 2163TIP3    H130684   2.021   1.714   8.703 -0.6587  0.5025 -0.0145
 2163TIP3    H230685   2.010   1.795   8.576  2.3620 -0.3272 -0.8916
 2164TIP3   OH230686   3.320   5.459   8.611  0.4462  0.1758 -0.3960
 2164TIP3    H130687   3.366   5.403   8.549  0.4437 -3.1542  2.3201
 2164TIP3    H230688   3.380   5.468   8.685 -1.0592  0.5454  0.8441
 2165TIP3   OH230689   2.307   3.450   8.832 -0.3105 -0.0540  0.7003
 2165TIP3    H130690   2.322   3.394   8.756  1.5872 -0.2830  1.2054
 2165TIP3    H230691   2.365   3.416   8.900 -1.0708  0.8927  1.8918
 2166TIP3   OH230692   5.749   7.224   7.935  0.1378 -0.2231 -0.1096
 2166TIP3    H130693   5.712   7.190   8.017  2.0377 -1.2497  0.3803
 2166TIP3    H230694   5.675   7.223   7.874 -0.9096 -1.1390  1.1041
 2167TIP3   OH230695   2.851   4.884   7.078 -0.3660 -0.3494  0.3070
 2167TIP3    H130696   2.765   4.924   7.065 -1.3939 -2.1897  1.0364
 2167TIP3    H230697   2.907   4.956   7.107 -1.3986  1.0753 -1.0943
 2168TIP3   OH230698   7.321   3.038   9.151 -0.1074 -0.2003  0.4622
 2168TIP3    H130699   7.365   3.024   9.067  3.1154  2.3397  1.4867
 2168TIP3    H230700   7.381   2.999   9.216 -0.0327  2.0680  1.8598
 2169TIP3   OH230701   7.665   0.879   7.905  0.5927 -0.1868 -0.5991
 2169TIP3    H130702   7.642   0.944   7.838  0.9234  0.2919 -0.2505
 2169TIP3    H230703   7.675   0.797   7.856 -3.4118 -0.8637 -0.6291
 2170TIP3   OH230704   1.569   3.982   8.393 -0.5705  0.0660  0.0516
 2170TIP3    H130705   1.603   3.943   8.312 -1.5788 -0.4057 -0.1588
 2170TIP3    H230706   1.488   4.025   8.366  0.4525  2.2864  0.2781
 2171TIP3   OH230707   4.683   4.746   9.346 -0.6778  0.3356 -0.7917
 2171TIP3    H130708   4.606   4.691   9.328 -0.1587 -1.7233  2.4063
 2171TIP3    H230709   4.648   4.821   9.394 -0.8704  0.2638 -0.8185
 2172TIP3   OH230710   2.561   4.823   7.636  0.0180 -0.0498 -0.1791
 2172TIP3    H130711   2.621   4.755   7.608 -0.0340 -0.5025  0.7654
 2172TIP3    H230712   2.517   4.852   7.556  1.2532  0.0678 -0.8340
 2173TIP3   OH230713   7.208   5.632   8.952  0.1120  0.0667  0.4789
 2173TIP3    H130714   7.280   5.605   8.895  0.3316 -1.5766  1.4918
 2173TIP3    H230715   7.132   5.635   8.894  0.2528 -1.9657  0.1122
 2174TIP3   OH230716   4.885   5.241   7.925  0.2598 -0.0152  0.2246
 2174TIP3    H130717   4.795   5.209   7.919  0.2245 -0.3848  2.1128
 2174TIP3    H230718   4.877   5.336   7.921 -0.0337 -0.0781 -1.2234
 2175TIP3   OH230719   1.495   6.316   8.459 -0.1492  0.4781  0.1802
 2175TIP3    H130720   1.467   6.399   8.498 -1.6741  0.2392 -0.3395
 2175TIP3    H230721   1.414   6.275   8.430  0.4877 -1.5392  1.0745
 2176TIP3   OH230722   4.199   2.221   8.128 -0.0490  0.3410  0.5388
 2176TIP3    H130723   4.199   2.172   8.210  1.5366 -0.3394  0.1547
 2176TIP3    H230724   4.111   2.208   8.093 -0.2074 -0.7728  1.3023
 2177TIP3   OH230725   7.227   3.280   9.229  0.3609 -0.1737  0.4676
 2177TIP3    H130726   7.153   3.252   9.283  0.0949 -0.3779  0.0057
 2177TIP3    H230727   7.254   3.200   9.183 -0.1972  0.2536 -0.6209
 2178TIP3   OH230728   0.692   3.300   9.096 -0.3529 -0.2971 -0.2450
 2178TIP3    H130729   0.738   3.228   9.140 -1.8637 -0.5779  0.9667
 2178TIP3    H230730   0.702   3.374   9.155 -1.6268 -0.4386  0.1970
 2179TIP3   OH230731   4.698   3.001   8.794  0.7231 -0.2146  0.3226
 2179TIP3    H130732   4.731   2.916   8.762 -1.2506 -0.4359 -1.3537
 2179TIP3    H230733   4.704   3.059   8.718 -1.0257  0.1967  0.4512
 2180TIP3   OH230734   4.259   7.239   8.173 -0.0475 -0.3510  0.0991
 2180TIP3    H130735   4.192   7.173   8.187 -0.9674  0.1058 -1.8430
 2180TIP3    H230736   4.337   7.189   8.148 -0.7733 -0.7463 -1.5052
 2181TIP3   OH230737   0.539   6.212   7.646  0.3692  0.0648  0.0639
 2181TIP3    H130738   0.615   6.154   7.654  0.7895  0.5459 -0.3298
 2181TIP3    H230739   0.464   6.153   7.636  0.6216 -0.4257  0.9656
 2182TIP3   OH230740   1.839   0.905   8.061  0.1672 -0.3379  0.0443
 2182TIP3    H130741   1.836   0.939   8.151  0.0355  0.3056 -0.1973
 2182TIP3    H230742   1.752   0.923   8.026  0.0911 -0.9482 -0.0914
 2183TIP3   OH230743   0.179   2.588   7.293  0.2127 -0.1384  0.2819
 2183TIP3    H130744   0.090   2.564   7.319 -0.4085  2.4442  0.8525
 2183TIP3    H230745   0.184   2.568   7.200  0.0035 -2.8066  0.7747
 2184TIP3   OH230746   1.112   4.755   8.292  0.4168 -0.1158  0.0039
 2184TIP3    H130747   1.086   4.695   8.361 -0.7373 -0.0185 -0.3192
 2184TIP3    H230748   1.206   4.741   8.281  0.2180 -1.6952  0.0902
 2185TIP3   OH230749   3.949   6.282   7.216  0.1303  0.2246 -0.0301
 2185TIP3    H130750   4.036   6.306   7.184 -0.2168  0.8638 -0.5251
 2185TIP3    H230751   3.924   6.206   7.162 -0.2271  0.9653 -0.9346
 2186TIP3   OH230752   6.592   4.225   9.348  0.1619 -0.2637 -0.0020
 2186TIP3    H130753   6.563   4.315   9.365 -1.0605 -0.9909  2.2674
 2186TIP3    H230754   6.687   4.230   9.350  0.1237  0.8380  1.3334
 2187TIP3   OH230755   4.648   2.520   8.735 -0.0951 -0.3517  0.3808
 2187TIP3    H130756   4.573   2.504   8.793 -1.6117 -0.3911 -1.5153
 2187TIP3    H230757   4.723   2.521   8.794 -1.5721 -0.2422  2.3767
 2188TIP3   OH230758   0.175   7.596   7.948 -0.0589  0.0035  0.0520
 2188TIP3    H130759   0.224   7.547   7.882  1.2454  0.1000  0.9019
 2188TIP3    H230760   0.179   7.542   8.026  0.8982  1.1542  0.8386
 2189TIP3   OH230761   6.771   7.668   9.463  0.1803  0.3449 -0.3313
 2189TIP3    H130762   6.817   7.617   9.396  1.0038 -2.5324  2.1550
 2189TIP3    H230763   6.836   7.730   9.495  1.0893 -0.9386  0.3949
 2190TIP3   OH230764   1.228   1.094   9.475 -0.4356  0.3141  0.4162
 2190TIP3    H130765   1.209   1.172   9.527  0.2494  0.5337  0.3518
 2190TIP3    H230766   1.261   1.128   9.392  0.5484 -0.0390  0.6519
 2191TIP3   OH230767   1.290   5.103   6.996  0.0094  0.2434  0.4593
 2191TIP3    H130768   1.305   5.010   6.981  0.8584  0.3009  0.8702
 2191TIP3    H230769   1.313   5.144   6.913  1.8214  0.2773  0.9235
 2192TIP3   OH230770   5.201   6.644   7.512 -0.0999 -0.2850 -0.0337
 2192TIP3    H130771   5.265   6.605   7.452  2.3165  1.7772  1.0349
 2192TIP3    H230772   5.226   6.611   7.598 -1.2029 -0.3184  0.2845
 2193TIP3   OH230773   1.245   2.722   7.937  0.1094 -0.0741 -0.4899
 2193TIP3    H130774   1.170   2.709   7.996 -0.6510 -1.3906 -1.6928
 2193TIP3    H230775   1.301   2.785   7.984 -0.4624 -1.0373  1.6157
 2194TIP3   OH230776   7.320   3.578   8.202 -0.5513 -0.1520  0.2617
 2194TIP3    H130777   7.251   3.577   8.135 -0.9938 -0.0097  0.7065
 2194TIP3    H230778   7.278   3.618   8.278  0.7005  2.1595 -0.1758
 2195TIP3   OH230779   3.542   2.508   8.566  0.0910 -0.0996  0.0735
 2195TIP3    H130780   3.588   2.575   8.615 -0.5992  0.6212 -0.2329
 2195TIP3    H230781   3.507   2.554   8.489 -1.4115 -0.5288  0.4629
 2196TIP3   OH230782   5.621   2.838   6.921  0.5482  0.0921  0.3438
 2196TIP3    H130783   5.712   2.810   6.913  0.3610 -0.5756  0.5229
 2196TIP3    H230784   5.582   2.775   6.982 -0.3374 -0.3510 -0.6555
 2197TIP3   OH230785   6.439   7.330   8.282 -0.2305 -0.3565  0.0659
 2197TIP3    H130786   6.403   7.411   8.319  2.3937 -0.2713  2.8218
 2197TIP3    H230787   6.368   7.266   8.290 -1.2777  0.8585  0.8826
 2198TIP3   OH230788   1.105   7.572   8.467 -0.3701 -0.4751  0.1032
 2198TIP3    H130789   1.196   7.600   8.458 -0.4826 -0.3800 -0.8377
 2198TIP3    H230790   1.109   7.497   8.526  0.3654 -0.7085 -0.2265
 2199TIP3   OH230791   1.882   5.033   8.426 -0.4231  0.3672 -0.3164
 2199TIP3    H130792   1.882   4.994   8.513 -1.1286  0.1342 -0.4124
 2199TIP3    H230793   1.875   5.127   8.442  0.8030  0.4308 -0.0949
 2200TIP3   OH230794   5.613   1.259   8.539 -0.3646  0.0475  0.4356
 2200TIP3    H130795   5.646   1.170   8.550  0.6958  0.4600  0.7509
 2200TIP3    H230796   5.613   1.296   8.627 -0.4987  0.4564  0.2667
 2201TIP3   OH230797   3.099   1.911   9.273  0.3944  0.5091 -0.4496
 2201TIP3    H130798   3.052   1.992   9.254  1.8434  1.7965  1.1756
 2201TIP3    H230799   3.165   1.936   9.337  1.5870 -1.7574 -0.6991
 2202TIP3   OH230800   6.350   3.253   9.429 -0.3345 -0.0374  0.2483
 2202TIP3    H130801   6.255   3.269   9.433 -0.2854  0.2324  0.3324
 2202TIP3    H230802   6.362   3.174   9.482 -0.3441  0.7040  1.4063
 2203TIP3   OH230803   2.434   3.957   9.097 -0.3798 -0.1286  0.0470
 2203TIP3    H130804   2.437   4.040   9.144 -0.3143  0.5558 -1.1365
 2203TIP3    H230805   2.522   3.922   9.106 -0.1370  0.3940 -0.2652
 2204TIP3   OH230806   5.183   0.833   8.225  0.4840 -0.4534  0.4971
 2204TIP3    H130807   5.272   0.833   8.260  0.2032 -1.6059  1.3054
 2204TIP3    H230808   5.184   0.767   8.155 -0.1074 -1.7869  1.6769
 2205TIP3   OH230809   3.819   5.804   7.358  0.3881  0.0392 -0.2518
 2205TIP3    H130810   3.755   5.749   7.402 -1.4718  2.0561 -0.3031
 2205TIP3    H230811   3.889   5.816   7.422 -0.6319  0.1079  0.8786
 2206TIP3   OH230812   6.519   3.861   9.412 -0.1937 -0.0454  0.0599
 2206TIP3    H130813   6.472   3.927   9.462 -0.8980 -0.1147 -0.5087
 2206TIP3    H230814   6.611   3.876   9.435 -0.3856  0.7894  0.3332
 2207TIP3   OH230815   0.433   0.196   8.695  0.6185  0.1612 -0.7502
 2207TIP3    H130816   0.361   0.136   8.712  1.6380 -1.1877 -1.0017
 2207TIP3    H230817   0.396   0.263   8.638 -0.7505  0.2410  0.1726
 2208TIP3   OH230818   0.221   6.089   8.611  0.1202  0.1979  0.3045
 2208TIP3    H130819   0.221   6.009   8.665  1.4823 -0.5874 -0.7786
 2208TIP3    H230820   0.129   6.114   8.605 -0.2586 -0.8748  1.2898
 2209TIP3   OH230821   1.461   5.535   8.333  0.2746  0.0823 -0.7367
 2209TIP3    H130822   1.466   5.487   8.416  1.2629  0.8124 -0.3585
 2209TIP3    H230823   1.552   5.559   8.314 -0.1762  1.7543 -0.9331
 2210TIP3   OH230824   0.121   7.410   7.610  0.4379 -0.5074  0.0543
 2210TIP3    H130825   0.080   7.496   7.610  2.8265  0.7048  0.4578
 2210TIP3    H230826   0.133   7.389   7.518 -1.3608 -1.0700 -0.0847
 2211TIP3   OH230827   5.616   4.525   7.935 -0.7577 -0.2940  0.1566
 2211TIP3    H130828   5.700   4.527   7.889 -0.9450 -1.7943 -0.3018
 2211TIP3    H230829   5.569   4.602   7.903  0.9462  1.4035  1.4859
 2212TIP3   OH230830   1.513   2.687   9.630  0.1054  0.2028  0.3950
 2212TIP3    H130831   1.594   2.638   9.622  0.8050  1.5279 -1.4380
 2212TIP3    H230832   1.448   2.622   9.656  1.4760 -1.1469  0.5779
 2213TIP3   OH230833   4.483   3.659   9.254 -0.0098 -0.4193 -1.0178
 2213TIP3    H130834   4.411   3.721   9.255 -0.9003 -1.3484  1.8404
 2213TIP3    H230835   4.465   3.601   9.179  0.0508  1.7671 -2.8107
 2214TIP3   OH230836   3.591   4.862   9.180  0.2601  0.1432 -0.2793
 2214TIP3    H130837   3.541   4.853   9.098 -0.2611 -1.5658  0.1810
 2214TIP3    H230838   3.675   4.819   9.161 -0.2265 -1.1214  0.3536
 2215TIP3   OH230839   5.451   1.654   8.912 -0.2995 -0.2913 -0.4379
 2215TIP3    H130840   5.512   1.710   8.865 -0.6384 -0.0335 -0.5708
 2215TIP3    H230841   5.366   1.699   8.906 -0.0286  0.6780  1.9688
 2216TIP3   OH230842   1.055   5.857   8.898  0.6983  0.6923  0.1878
 2216TIP3    H130843   1.110   5.799   8.951  2.5271  0.0188 -2.2917
 2216TIP3    H230844   1.095   5.944   8.908  0.8715  0.6204  0.1160
 2217TIP3   OH230845   0.732   1.199   8.979 -0.1903 -0.1074  0.4243
 2217TIP3    H130846   0.806   1.172   8.925 -0.8184 -0.0319 -0.4963
 2217TIP3    H230847   0.708   1.285   8.946  1.0186  1.1160  2.5389
 2218TIP3   OH230848   5.060   0.075   8.790 -1.1672  0.5054  0.3676
 2218TIP3    H130849   4.966   0.077   8.773 -0.9313  2.6836 -1.0965
 2218TIP3    H230850   5.099   0.051   8.706 -0.3865 -3.5049  1.6293
 2219TIP3   OH230851   5.018   0.708   7.558 -0.2062 -0.0857 -0.2944
 2219TIP3    H130852   5.021   0.727   7.465  0.0616 -0.8703 -0.4595
 2219TIP3    H230853   5.110   0.696   7.583 -0.3000 -0.2132 -0.0050
 2220TIP3   OH230854   2.437   0.850   7.121  0.1001  0.4227 -0.3068
 2220TIP3    H130855   2.384   0.831   7.044  2.3029 -1.1874 -1.5129
 2220TIP3    H230856   2.470   0.765   7.150 -0.2704  1.0455  2.1663
 2221TIP3   OH230857   6.068   7.194   7.526  0.2480 -0.1893  0.9259
 2221TIP3    H130858   6.010   7.148   7.466  0.9865 -0.9288  0.7416
 2221TIP3    H230859   6.032   7.176   7.613 -0.1955 -0.0421  0.7744
 2222TIP3   OH230860   4.039   1.618   7.715  0.0538 -0.7692  0.2090
 2222TIP3    H130861   4.086   1.673   7.652  0.6259  0.8460  1.9432
 2222TIP3    H230862   3.953   1.604   7.675  0.7142 -0.6452 -1.3505
 2223TIP3   OH230863   2.711   0.545   6.773 -0.2795  0.2103 -0.6711
 2223TIP3    H130864   2.726   0.639   6.786 -0.0641  0.1239 -0.2711
 2223TIP3    H230865   2.616   0.536   6.768 -0.4899  0.1198  2.0920
 2224TIP3   OH230866   1.611   4.154   8.887  0.2778  0.2158 -0.0643
 2224TIP3    H130867   1.574   4.242   8.877  1.4565  0.7318 -0.0823
 2224TIP3    H230868   1.701   4.170   8.917  1.5120 -0.8618 -2.8734
 2225TIP3   OH230869   7.204   6.628   8.022 -0.3257 -0.1229  0.0351
 2225TIP3    H130870   7.232   6.705   8.070 -1.7086  0.0879  0.5427
 2225TIP3    H230871   7.203   6.557   8.086 -1.0998 -0.0821  0.0865
 2226TIP3   OH230872   4.633   6.300   8.704  0.3911 -0.5047 -0.3290
 2226TIP3    H130873   4.584   6.219   8.719  1.0245 -0.6238  1.2766
 2226TIP3    H230874   4.701   6.275   8.642  0.7447 -1.2909  0.3523
 2227TIP3   OH230875   1.565   2.418   7.815  0.0508  0.2039  0.1150
 2227TIP3    H130876   1.621   2.419   7.893  0.0167  0.9557  0.1324
 2227TIP3    H230877   1.624   2.435   7.742 -0.1948  1.3479  0.1677
 2228TIP3   OH230878   0.594   7.006   7.439 -0.2184  0.0397  0.0715
 2228TIP3    H130879   0.654   6.961   7.499 -0.7367 -1.2582 -0.3483
 2228TIP3    H230880   0.507   6.973   7.463 -0.4588 -0.2895 -1.1823
 2229TIP3   OH230881   1.335   1.825   9.355 -0.5127  0.1451  0.1195
 2229TIP3    H130882   1.274   1.752   9.367 -0.1248 -0.2048 -0.0146
 2229TIP3    H230883   1.416   1.784   9.325 -0.8499  0.7913 -1.8094
 2230TIP3   OH230884   0.213   1.078   7.788 -0.1711 -0.1300 -0.1334
 2230TIP3    H130885   0.300   1.046   7.815 -0.5333  0.1189  1.4415
 2230TIP3    H230886   0.204   1.163   7.832 -1.6649 -0.6648  0.6463
 2231TIP3   OH230887   4.880   1.219   8.226 -0.4877  0.0967 -0.1987
 2231TIP3    H130888   4.959   1.225   8.280 -0.3567  2.1207 -0.5365
 2231TIP3    H230889   4.909   1.243   8.138 -1.4408  0.7163 -0.3533
 2232TIP3   OH230890   1.488   0.808   7.261  0.7396  0.2489  0.1982
 2232TIP3    H130891   1.463   0.728   7.307  1.1816  0.5523  0.9841
 2232TIP3    H230892   1.583   0.812   7.269  0.8896  0.0004 -1.2688
 2233TIP3   OH230893   3.954   1.862   8.414  0.3236  0.1577 -0.2322
 2233TIP3    H130894   4.036   1.858   8.463  0.1207 -1.3893  0.0218
 2233TIP3    H230895   3.949   1.778   8.369 -2.4140 -0.9067  1.8472
 2234TIP3   OH230896   1.261   3.629   7.743  0.2440  0.4785  0.4741
 2234TIP3    H130897   1.298   3.709   7.781  1.1320 -0.0144  0.6793
 2234TIP3    H230898   1.324   3.603   7.676 -0.3553  0.2916 -0.0193
 2235TIP3   OH230899   4.560   1.928   8.695 -0.2315  0.4128  0.1032
 2235TIP3    H130900   4.619   1.920   8.770 -0.2729  1.2900  0.2310
 2235TIP3    H230901   4.520   1.841   8.687 -0.0180  0.2324  0.9162
 2236TIP3   OH230902   0.346   1.300   8.890 -0.3608 -0.4173  0.2591
 2236TIP3    H130903   0.408   1.287   8.818  1.7776 -2.6007  2.2835
 2236TIP3    H230904   0.311   1.212   8.907 -0.3970 -0.0674  2.1826
 2237TIP3   OH230905   5.138   5.627   8.276  0.3770 -0.7527  0.0246
 2237TIP3    H130906   5.075   5.556   8.289  1.2804 -1.4300  0.8446
 2237TIP3    H230907   5.213   5.603   8.331  1.6510 -0.3288 -1.4554
 2238TIP3   OH230908   0.882   4.088   7.766  0.4820  0.1957 -0.2219
 2238TIP3    H130909   0.968   4.068   7.726  0.3370 -2.0308  0.4523
 2238TIP3    H230910   0.827   4.113   7.692  0.9635 -1.1888 -1.0853
 2239TIP3   OH230911   1.923   0.352   7.848  0.8652 -0.5305 -0.1042
 2239TIP3    H130912   1.838   0.343   7.892  0.2750  0.6606 -0.9181
 2239TIP3    H230913   1.936   0.447   7.840  1.2277 -0.6934 -1.8949
 2240TIP3   OH230914   1.099   7.095   8.610 -0.7347  0.3273  0.7472
 2240TIP3    H130915   1.090   7.031   8.538  1.0908  1.7637 -0.8789
 2240TIP3    H230916   1.082   7.044   8.689 -1.8733 -1.5701 -0.6155
 2241TIP3   OH230917   0.091   1.508   8.810  0.2187  0.2389 -0.1286
 2241TIP3    H130918   0.057   1.420   8.796 -1.3495  0.9129 -0.7244
 2241TIP3    H230919   0.168   1.513   8.753  0.6986 -0.9377  0.3948
 2242TIP3   OH230920   0.211   1.791   8.636  0.0472 -0.1649  0.2918
 2242TIP3    H130921   0.288   1.789   8.692  0.1736  2.1720  0.2874
 2242TIP3    H230922   0.233   1.736   8.561  1.8025  0.6070  0.2031
 2243TIP3   OH230923   2.090   6.146   7.669 -0.3803 -0.2595  0.5541
 2243TIP3    H130924   2.052   6.116   7.586  0.8424 -2.5476  0.7264
 2243TIP3    H230925   2.037   6.221   7.694 -0.5143  0.8084 -2.5200
 2244TIP3   OH230926   6.737   2.895   8.639 -0.0145 -0.0431 -0.0989
 2244TIP3    H130927   6.733   2.985   8.671  1.1607 -0.4772  1.4287
 2244TIP3    H230928   6.655   2.855   8.671 -0.5960  0.4974 -0.8880
 2245TIP3   OH230929   6.764   4.357   8.026  0.2132 -0.1165  0.3477
 2245TIP3    H130930   6.761   4.325   8.116  0.6073 -2.0639 -0.2995
 2245TIP3    H230931   6.725   4.288   7.973  1.2107  0.3988 -1.1390
 2246TIP3   OH230932   7.296   3.428   7.873  0.3287  0.3573 -0.3695
 2246TIP3    H130933   7.306   3.353   7.814 -1.6558  0.5229 -0.9981
 2246TIP3    H230934   7.271   3.501   7.816  0.9308  1.1863  0.3899
 2247TIP3   OH230935   4.357   1.352   9.361 -0.0798  0.3545 -0.4051
 2247TIP3    H130936   4.274   1.380   9.321 -0.3632 -0.6037 -0.5048
 2247TIP3    H230937   4.391   1.431   9.402 -1.7706  0.4505  0.9351
 2248TIP3   OH230938   7.227   3.288   7.607 -0.5353  0.2185  0.3201
 2248TIP3    H130939   7.196   3.230   7.676  1.1435 -3.0057 -1.4024
 2248TIP3    H230940   7.149   3.315   7.560 -1.4424  0.2378  1.7768
 2249TIP3   OH230941   3.599   5.243   7.929  1.3107  0.0611  0.1233
 2249TIP3    H130942   3.688   5.274   7.946  2.0142 -1.4189 -0.7003
 2249TIP3    H230943   3.601   5.150   7.951 -0.3208  0.1985  1.0365
 2250TIP3   OH230944   2.860   2.795   8.624 -0.2908  0.2886  0.5406
 2250TIP3    H130945   2.815   2.838   8.696 -1.9273 -0.6382  0.1227
 2250TIP3    H230946   2.791   2.779   8.559  1.0576  0.7470 -1.0667
 2251TIP3   OH230947   1.158   0.313   9.471 -0.6130  1.0747  0.0165
 2251TIP3    H130948   1.204   0.300   9.553 -0.8561 -0.4683 -0.0689
 2251TIP3    H230949   1.227   0.327   9.406 -0.1520 -1.7628 -0.2104
 2252TIP3   OH230950   5.018   0.766   7.248 -0.0883  0.2749 -0.2922
 2252TIP3    H130951   5.079   0.797   7.181  0.8640  1.6978  1.1617
 2252TIP3    H230952   4.934   0.801   7.221 -0.0932 -0.7198 -1.6951
 2253TIP3   OH230953   2.323   1.817   8.822 -0.1433 -0.3218  0.1932
 2253TIP3    H130954   2.349   1.833   8.731  1.4231 -1.2551  0.4438
 2253TIP3    H230955   2.229   1.800   8.817 -0.1988  0.2415 -1.1708
 2254TIP3   OH230956   4.047   4.128   7.940 -0.7664  0.2023  0.1603
 2254TIP3    H130957   4.072   4.096   8.026  0.4815 -0.0297 -0.2732
 2254TIP3    H230958   4.011   4.050   7.896 -0.1843  0.0101  0.0200
 2255TIP3   OH230959   7.193   3.853   8.081 -0.0006  0.2481  0.2068
 2255TIP3    H130960   7.215   3.792   8.011 -0.7347 -0.0397  0.2096
 2255TIP3    H230961   7.180   3.798   8.158 -0.2881  0.4463  0.3023
 2256TIP3   OH230962   5.279   7.199   8.467 -0.0166 -0.3672 -0.1106
 2256TIP3    H130963   5.365   7.234   8.446  0.2699 -0.6310  0.5705
 2256TIP3    H230964   5.221   7.275   8.468  0.4732  0.0066  0.7424
 2257TIP3   OH230965   6.441   5.746   6.578 -0.1297 -0.3694  0.1254
 2257TIP3    H130966   6.483   5.661   6.591 -0.8107 -0.4526  2.0631
 2257TIP3    H230967   6.351   5.733   6.608 -0.4416  0.8554 -0.2426
 2258TIP3   OH230968   4.597   5.841   7.270 -0.2987 -0.3884  0.1186
 2258TIP3    H130969   4.605   5.788   7.349 -0.2728 -2.0684 -0.9504
 2258TIP3    H230970   4.506   5.829   7.242 -0.1968 -0.1530 -0.3300
 2259TIP3   OH230971   3.981   5.612   8.664 -0.2424 -0.3309  0.2377
 2259TIP3    H130972   3.987   5.705   8.685 -1.9908 -0.2912  0.6542
 2259TIP3    H230973   3.901   5.604   8.613 -0.0739 -1.6119  0.1501
 2260TIP3   OH230974   2.151   1.291   7.907 -0.2302  0.7058 -0.0368
 2260TIP3    H130975   2.068   1.252   7.879  1.2914 -1.5930 -1.7218
 2260TIP3    H230976   2.150   1.282   8.003 -0.7183 -2.1214 -0.2066
 2261TIP3   OH230977   4.993   5.416   9.396  0.0088  0.7054  0.1133
 2261TIP3    H130978   5.086   5.421   9.418 -0.7047  1.4894  3.5359
 2261TIP3    H230979   4.980   5.486   9.331  1.8026  0.4277 -0.5900
 2262TIP3   OH230980   7.000   3.483   9.239 -0.4056 -0.0696 -0.4508
 2262TIP3    H130981   7.071   3.442   9.289 -0.7629  0.8156  0.8488
 2262TIP3    H230982   6.971   3.556   9.295 -1.2718  0.5612 -1.6777
 2263TIP3   OH230983   6.187   6.715   8.849 -0.3388 -0.0005  0.0099
 2263TIP3    H130984   6.255   6.774   8.880 -0.3433  0.1571 -0.2765
 2263TIP3    H230985   6.191   6.722   8.753 -2.0129  1.4308  0.0057
 2264TIP3   OH230986   0.507   7.553   7.268  0.4083  0.4146 -0.3753
 2264TIP3    H130987   0.537   7.591   7.185  1.2200  0.6841  0.0249
 2264TIP3    H230988   0.570   7.586   7.333  0.4955 -0.7669  0.1583
 2265TIP3   OH230989   2.541   0.083   7.817 -0.0609  0.2088  0.4046
 2265TIP3    H130990   2.479   0.010   7.817 -0.4652  0.5425 -0.4474
 2265TIP3    H230991   2.536   0.119   7.906  0.5341 -1.1208  1.0026
 2266TIP3   OH230992   4.991   1.656   7.823  0.5843  0.1710 -0.4031
 2266TIP3    H130993   5.085   1.648   7.806  0.7396  0.7813  0.1488
 2266TIP3    H230994   4.984   1.722   7.892 -0.3157  0.8744 -1.1369
 2267TIP3   OH230995   0.388   4.192   7.314 -0.0863 -0.0543  0.0400
 2267TIP3    H130996   0.427   4.264   7.265  0.8039 -0.8998 -0.5158
 2267TIP3    H230997   0.348   4.136   7.247 -1.6955  0.4388  0.5437
 2268TIP3   OH230998   7.672   2.394   8.895  0.1526 -0.2707 -0.3467
 2268TIP3    H130999   7.719   2.312   8.882 -0.9563 -0.7447 -1.6478
 2268TIP3    H231000   7.587   2.380   8.853 -0.6690  0.9962  0.8220
 2269TIP3   OH231001   7.194   7.534   8.507  0.0514 -0.1840  0.6895
 2269TIP3    H131002   7.162   7.456   8.461  5.8352 -0.9772 -2.9015
 2269TIP3    H231003   7.167   7.607   8.452 -0.0473 -0.2735  0.6181
 2270TIP3   OH231004   7.033   4.636   8.197 -0.4200  0.2124  0.0301
 2270TIP3    H131005   6.954   4.596   8.234  0.2170 -1.3325 -0.2193
 2270TIP3    H231006   7.004   4.673   8.114 -1.1526  0.8290  0.5397
 2271TIP3   OH231007   6.265   4.867   9.249 -0.2241  1.0196  1.1599
 2271TIP3    H131008   6.348   4.846   9.290  0.3546  2.5813  0.8580
 2271TIP3    H231009   6.263   4.963   9.245 -0.1523  1.0126 -2.5417
 2272TIP3   OH231010   3.845   5.398   7.994  0.0999  0.3882  0.3563
 2272TIP3    H131011   3.885   5.432   8.074  3.2596  0.0795 -0.9262
 2272TIP3    H231012   3.911   5.339   7.957 -1.9140 -0.7756 -1.6399
 2273TIP3   OH231013   3.624   0.254   8.287  0.1656 -0.0427  0.8421
 2273TIP3    H131014   3.545   0.302   8.265 -0.1112 -0.9760 -0.2914
 2273TIP3    H231015   3.600   0.162   8.277  2.4880 -0.4195 -3.9907
 2274TIP3   OH231016   1.411   7.630   7.427  0.1316 -0.2152 -0.1561
 2274TIP3    H131017   1.452   7.546   7.449  2.1285  0.1539 -2.1435
 2274TIP3    H231018   1.435   7.688   7.499 -0.0638 -0.9406  0.5195
 2275TIP3   OH231019   6.673   4.920   8.706 -0.1580 -0.4668 -0.0116
 2275TIP3    H131020   6.706   4.855   8.769  0.5085  0.2775  0.4350
 2275TIP3    H231021   6.735   4.916   8.633 -0.1438 -0.3742 -0.0047
 2276TIP3   OH231022   2.859   0.527   8.792 -0.3014  0.8411 -0.3010
 2276TIP3    H131023   2.774   0.569   8.807 -0.1635  0.7970  0.6649
 2276TIP3    H231024   2.839   0.452   8.736 -1.0458  0.3482  0.5862
 2277TIP3   OH231025   6.974   5.901   8.415 -0.0826  0.9992  0.2237
 2277TIP3    H131026   6.969   5.810   8.444  0.1825  1.0706  0.4889
 2277TIP3    H231027   7.063   5.929   8.433  0.9408  0.2679 -3.0029
 2278TIP3   OH231028   2.986   1.912   8.332  0.3220  0.0088 -0.0654
 2278TIP3    H131029   2.984   1.967   8.410  1.2054 -0.7884  0.5367
 2278TIP3    H231030   2.923   1.843   8.350  1.0193 -0.5590  0.2508
 2279TIP3   OH231031   2.481   1.492   6.746 -0.3628 -0.6768  0.0407
 2279TIP3    H131032   2.440   1.533   6.670 -2.1807  0.8655  1.7108
 2279TIP3    H231033   2.568   1.530   6.750 -1.1297  1.1967  0.0917
 2280TIP3   OH231034   1.348   0.400   9.697 -0.0442  0.1905 -0.1341
 2280TIP3    H131035   1.309   0.443   9.773 -1.8578 -0.2073 -0.8067
 2280TIP3    H231036   1.401   0.468   9.656 -0.4548  0.9054  0.4949
 2281TIP3   OH231037   3.657   0.124   7.403 -0.0683 -0.3367 -0.0718
 2281TIP3    H131038   3.592   0.054   7.395  0.4760 -1.0409  1.4553
 2281TIP3    H231039   3.696   0.111   7.489  2.3759 -0.1642 -1.0778
 2282TIP3   OH231040   7.167   7.425   9.023  0.4416  0.7297 -0.4539
 2282TIP3    H131041   7.126   7.455   8.942  0.8213  0.4891 -0.7381
 2282TIP3    H231042   7.235   7.489   9.042  0.2048  0.9100 -0.1998
 2283TIP3   OH231043   2.017   3.421   8.163  0.1207 -0.1958 -0.7926
 2283TIP3    H131044   1.950   3.352   8.160 -0.3321  0.1984 -0.1550
 2283TIP3    H231045   2.092   3.384   8.118  0.1367 -1.3979  0.1734
 2284TIP3   OH231046   5.950   7.384   9.456 -0.3011 -0.2081 -0.6544
 2284TIP3    H131047   5.925   7.299   9.420  0.1829 -1.0554  0.9074
 2284TIP3    H231048   5.866   7.426   9.477 -0.5679  0.0673 -2.1800
 2285TIP3   OH231049   0.413   3.031   8.870 -0.6101  0.2515 -0.0140
 2285TIP3    H131050   0.369   3.073   8.945 -0.8938 -2.2111  1.3174
 2285TIP3    H231051   0.355   2.958   8.847  0.6767 -0.4773 -1.0493
 2286TIP3   OH231052   1.499   4.124   8.132 -0.2668  0.3089 -0.1696
 2286TIP3    H131053   1.411   4.109   8.168  0.9997 -2.5575  2.1041
 2286TIP3    H231054   1.500   4.073   8.052 -0.2968 -0.7262  0.4753
 2287TIP3   OH231055   7.470   0.309   7.745  0.0102  0.4443  0.2346
 2287TIP3    H131056   7.443   0.349   7.827 -3.8477  1.5806 -1.3997
 2287TIP3    H231057   7.468   0.380   7.681 -1.3928 -1.1698 -1.6458
 2288TIP3   OH231058   2.532   3.751   8.322  0.0329  0.4687 -0.0402
 2288TIP3    H131059   2.496   3.692   8.256 -1.6188  1.8744 -0.4777
 2288TIP3    H231060   2.506   3.712   8.406  0.8475 -0.5434 -0.2450
 2289TIP3   OH231061   6.622   0.235   9.385 -0.0191 -0.2085 -0.3241
 2289TIP3    H131062   6.658   0.151   9.414  2.4681  1.1204  0.7756
 2289TIP3    H231063   6.584   0.274   9.464  0.5298  0.4451 -0.3639
 2290TIP3   OH231064   0.405   0.316   7.713  0.2037 -0.4556  0.4073
 2290TIP3    H131065   0.378   0.235   7.757  1.1639  0.3541  2.6579
 2290TIP3    H231066   0.499   0.305   7.699  0.0415 -0.3856 -0.8607
 2291TIP3   OH231067   1.483   0.290   7.385  0.2528 -0.1685 -0.1256
 2291TIP3    H131068   1.519   0.309   7.299 -0.3514 -0.6058 -0.4818
 2291TIP3    H231069   1.388   0.295   7.374  0.1422 -0.9735  0.3251
 2292TIP3   OH231070   5.010   4.370   8.156 -0.3723  0.4622 -0.3582
 2292TIP3    H131071   5.073   4.353   8.087 -1.6155  0.2879 -1.4863
 2292TIP3    H231072   5.039   4.316   8.229  0.2296 -0.3530 -1.1863
 2293TIP3   OH231073   0.197   5.785   7.909 -0.2480 -0.2059  0.0766
 2293TIP3    H131074   0.136   5.858   7.921  0.0510 -0.0928  0.9442
 2293TIP3    H231075   0.140   5.709   7.898 -0.5834  0.2503 -1.6762
 2294TIP3   OH231076   6.597   4.160   6.709 -0.7688 -0.3290 -0.0947
 2294TIP3    H131077   6.631   4.133   6.794 -0.6318 -1.6258 -0.5476
 2294TIP3    H231078   6.604   4.082   6.654  0.8265  0.9446 -1.8373
 2295TIP3   OH231079   5.954   2.555   8.099  0.0903  0.4241 -0.4533
 2295TIP3    H131080   5.905   2.626   8.058 -1.3557 -0.1550  0.2029
 2295TIP3    H231081   5.933   2.478   8.046  0.6118  0.2343 -0.3928
 2296TIP3   OH231082   2.184   7.514   7.055 -0.3944  0.1911  0.0611
 2296TIP3    H131083   2.251   7.546   7.116  0.0320 -0.4195 -0.0667
 2296TIP3    H231084   2.224   7.525   6.969 -0.7086  0.3908 -0.0592
 2297TIP3   OH231085   1.931   6.404   7.919  0.1964 -0.2596  0.3063
 2297TIP3    H131086   2.025   6.418   7.907  0.3740 -0.7134  1.1231
 2297TIP3    H231087   1.890   6.454   7.848  1.1298 -1.5247 -1.1997
 2298TIP3   OH231088   3.045   5.059   8.081 -0.8400 -0.1328  0.2568
 2298TIP3    H131089   2.951   5.061   8.063 -0.8584  2.8569  0.2442
 2298TIP3    H231090   3.065   5.145   8.116  1.8564 -0.8190  0.6479
 2299TIP3   OH231091   6.962   0.640   7.318  0.0159  0.1611 -0.2517
 2299TIP3    H131092   6.940   0.635   7.411 -0.6950  1.2238 -0.3521
 2299TIP3    H231093   6.918   0.565   7.279 -0.1688  0.0472  0.1719
 2300TIP3   OH231094   5.816   1.100   9.563 -0.4357 -0.3287 -0.1250
 2300TIP3    H131095   5.873   1.023   9.568 -1.0798 -0.7829  0.3805
 2300TIP3    H231096   5.826   1.143   9.648  2.3083  1.9209 -1.4151
 2301TIP3   OH231097   3.447   6.077   8.314 -0.0313  0.0081 -1.0875
 2301TIP3    H131098   3.520   6.128   8.349 -0.7223  0.0064  0.4283
 2301TIP3    H231099   3.442   6.102   8.222 -0.2836  2.6467 -0.4416
 2302TIP3   OH231100   4.134   5.325   6.970  0.4835  0.7597 -0.2244
 2302TIP3    H131101   4.136   5.313   7.065  3.2050 -1.4954 -0.4228
 2302TIP3    H231102   4.044   5.303   6.945 -0.2192  1.1324  1.7697
 2303TIP3   OH231103   7.116   7.282   8.770 -0.4447  0.1532  0.0600
 2303TIP3    H131104   7.099   7.377   8.771  1.6072  0.5702  1.4220
 2303TIP3    H231105   7.031   7.243   8.790 -1.1987  1.7413  0.1491
 2304TIP3   OH231106   3.599   5.654   9.255  0.2359 -0.2351 -0.4036
 2304TIP3    H131107   3.669   5.601   9.218  0.8702  0.6283 -0.4637
 2304TIP3    H231108   3.574   5.609   9.336  1.2093 -0.2756 -0.1213
 2305TIP3   OH231109   0.858   4.070   8.949 -0.6077  0.2771  0.4527
 2305TIP3    H131110   0.790   4.005   8.931 -0.3950 -0.0975  0.9544
 2305TIP3    H231111   0.939   4.026   8.925 -0.5618  0.9042 -0.6397
 2306TIP3   OH231112   6.115   2.695   8.581  0.0238  0.5623  0.7653
 2306TIP3    H131113   6.119   2.780   8.536 -0.9509  0.3810  0.2962
 2306TIP3    H231114   6.021   2.677   8.588  0.2065 -1.3115 -0.7585
 2307TIP3   OH231115   4.150   2.203   7.827 -0.2471 -0.0347  0.1986
 2307TIP3    H131116   4.163   2.108   7.822  3.2942  0.0619  3.2018
 2307TIP3    H231117   4.129   2.219   7.918  0.3115  2.1439 -0.0085
 2308TIP3   OH231118   0.078   2.916   8.689  0.2162 -1.0035 -0.0976
 2308TIP3    H131119   0.059   2.823   8.689 -1.3637 -0.7231 -1.6685
 2308TIP3    H231120   0.104   2.936   8.599  1.8842 -0.1382  0.5216
 2309TIP3   OH231121   5.748   1.781   9.109 -0.1111 -0.1568  0.3491
 2309TIP3    H131122   5.780   1.865   9.077 -0.2639 -0.0570  0.4593
 2309TIP3    H231123   5.810   1.756   9.178  0.8067 -0.8500 -0.6857
 2310TIP3   OH231124   4.178   6.465   7.423 -0.4951 -0.0596 -0.0471
 2310TIP3    H131125   4.194   6.560   7.419 -1.9380  0.1878 -0.6665
 2310TIP3    H231126   4.204   6.433   7.336  1.6589 -0.5710  0.7089
 2311TIP3   OH231127   6.194   1.324   7.224 -0.0055  0.7313 -0.7444
 2311TIP3    H131128   6.201   1.360   7.136 -0.7557  0.9764 -0.7156
 2311TIP3    H231129   6.256   1.251   7.226  0.1317  0.8271 -1.4215
 2312TIP3   OH231130   3.708   1.196   9.368  0.1520  0.3072 -0.0082
 2312TIP3    H131131   3.701   1.272   9.311 -0.2462 -1.5849 -2.6668
 2312TIP3    H231132   3.786   1.149   9.338  0.8112 -0.0413  2.0364
 2313TIP3   OH231133   0.227   3.382   7.399  0.1960  0.2973 -0.5143
 2313TIP3    H131134   0.245   3.326   7.475 -1.1512  0.1723 -0.2710
 2313TIP3    H231135   0.293   3.355   7.335  0.1763 -0.9050 -0.0606
 2314TIP3   OH231136   6.264   6.774   8.323  0.0287  0.2015  0.5606
 2314TIP3    H131137   6.186   6.803   8.277  0.3109 -0.6849 -0.5192
 2314TIP3    H231138   6.242   6.781   8.416 -1.6561 -0.8967  0.2736
 2315TIP3   OH231139   5.619   3.115   8.447 -0.4385  0.2566 -0.8050
 2315TIP3    H131140   5.649   3.184   8.388 -0.2680 -0.0801 -1.1155
 2315TIP3    H231141   5.689   3.107   8.511 -0.5014  0.4355 -0.7114
 2316TIP3   OH231142   0.922   4.984   8.291  0.4801 -0.2999  0.3675
 2316TIP3    H131143   0.982   4.909   8.293  0.9511  0.0894  1.6657
 2316TIP3    H231144   0.836   4.945   8.272  0.9629 -0.9785 -0.5013
 2317TIP3   OH231145   6.930   5.943   8.102 -0.2148  0.4561 -0.3178
 2317TIP3    H131146   6.895   5.928   8.190  0.9250 -0.2662  0.0342
 2317TIP3    H231147   6.949   5.856   8.069  0.4966  0.7888 -0.8072
 2318TIP3   OH231148   1.981   4.840   8.191  0.4468 -0.1857 -0.6724
 2318TIP3    H131149   1.982   4.746   8.177  0.4324 -0.7190  2.2631
 2318TIP3    H231150   1.928   4.852   8.270  0.6672  2.2786 -0.8057
 2319TIP3   OH231151   1.971   2.503   9.338  0.2146 -0.3282 -0.1994
 2319TIP3    H131152   1.899   2.564   9.350 -0.8884 -1.8460  1.2474
 2319TIP3    H231153   1.954   2.463   9.253 -0.6150 -0.6162  0.0952
 2320TIP3   OH231154   0.845   2.069   7.791 -0.3683  0.0031  0.4461
 2320TIP3    H131155   0.786   2.047   7.863  1.6320  0.1964  2.2542
 2320TIP3    H231156   0.797   2.134   7.740 -2.2183 -0.8259  1.0490
 2321TIP3   OH231157   5.118   1.284   6.639  0.1189 -0.1822 -0.3677
 2321TIP3    H131158   5.202   1.319   6.609  0.5164 -0.1581  0.7313
 2321TIP3    H231159   5.060   1.360   6.640 -0.1590 -0.3417 -1.8882
 2322TIP3   OH231160   7.449   4.066   7.390  0.1302 -0.2183 -0.2997
 2322TIP3    H131161   7.506   3.992   7.365 -0.3189 -0.2831 -1.1518
 2322TIP3    H231162   7.433   4.112   7.308  0.2320  0.7126  0.2002
 2323TIP3   OH231163   1.588   6.629   7.830 -0.0399  0.0462 -0.3269
 2323TIP3    H131164   1.641   6.694   7.784  1.0886 -0.2036  0.5848
 2323TIP3    H231165   1.626   6.624   7.917 -0.6054 -1.2657 -0.1336
 2324TIP3   OH231166   2.734   0.798   8.089  0.4622  0.1625 -0.1653
 2324TIP3    H131167   2.771   0.796   8.178 -0.2470  0.5386  0.1516
 2324TIP3    H231168   2.719   0.890   8.072 -0.5111  0.0047 -0.1988
 2325TIP3   OH231169   6.751   5.892   9.352  0.1236  0.1759 -0.1449
 2325TIP3    H131170   6.798   5.818   9.391 -1.5961 -1.1155 -0.4206
 2325TIP3    H231171   6.669   5.855   9.321  0.2523  1.7027 -2.5942
 2326TIP3   OH231172   5.419   1.377   9.444  0.4899  0.0198 -0.5853
 2326TIP3    H131173   5.484   1.378   9.374  0.2816 -1.0526 -0.8242
 2326TIP3    H231174   5.388   1.467   9.450  1.6909  0.4568 -0.7510
 2327TIP3   OH231175   6.812   4.679   9.173 -0.1068 -0.2970  0.4736
 2327TIP3    H131176   6.754   4.603   9.168 -0.8134  0.1920  1.0894
 2327TIP3    H231177   6.887   4.649   9.225  0.2125 -0.9355 -0.3390
 2328TIP3   OH231178   0.575   6.100   7.036 -0.0763  0.1874 -0.4711
 2328TIP3    H131179   0.537   6.156   7.103 -1.2876 -2.5621  1.3494
 2328TIP3    H231180   0.505   6.039   7.012  0.9225 -0.1676 -2.8459
 2329TIP3   OH231181   4.453   2.021   9.238  0.2227 -0.3297  0.9177
 2329TIP3    H131182   4.536   2.054   9.202  0.0764 -0.5113  0.4032
 2329TIP3    H231183   4.390   2.091   9.219 -0.0052 -0.7266  0.1724
 2330TIP3   OH231184   2.840   2.087   9.496  0.0221 -0.1688  0.0815
 2330TIP3    H131185   2.920   2.057   9.539  1.1224  0.3322 -1.5491
 2330TIP3    H231186   2.860   2.175   9.466 -0.4857 -0.6967 -1.9252
 2331TIP3   OH231187   6.112   2.488   9.527  0.3702 -0.1971  0.6065
 2331TIP3    H131188   6.047   2.418   9.528 -0.3436  0.2411 -2.7959
 2331TIP3    H231189   6.116   2.515   9.435  1.5750  3.3374  1.5552
 2332TIP3   OH231190   5.491   3.477   8.717 -0.2217 -0.4366  0.4824
 2332TIP3    H131191   5.406   3.521   8.726  0.3992  0.7022  1.0014
 2332TIP3    H231192   5.508   3.478   8.623 -0.6730 -0.4640  0.3957
 2333TIP3   OH231193   5.302   0.428   9.538  0.2554 -0.1959 -0.5821
 2333TIP3    H131194   5.239   0.418   9.609 -0.8326 -1.1462 -1.6432
 2333TIP3    H231195   5.367   0.360   9.555  0.6850  0.3858  0.1731
 2334TIP3   OH231196   6.637   0.973   8.453 -0.0335  0.0010 -0.1594
 2334TIP3    H131197   6.687   0.938   8.526 -0.3014  0.1632  0.1028
 2334TIP3    H231198   6.574   1.033   8.493  0.2441  0.5815 -0.5812
 2335TIP3   OH231199   4.175   6.613   7.880  0.3121 -0.0132  0.0642
 2335TIP3    H131200   4.150   6.679   7.815  1.5665 -1.2599 -1.7778
 2335TIP3    H231201   4.243   6.656   7.932  3.1243 -0.5610 -2.8487
 2336TIP3   OH231202   5.239   0.149   9.312 -0.6922 -0.3168 -0.4856
 2336TIP3    H131203   5.218   0.150   9.219 -1.7287  0.2601 -0.2668
 2336TIP3    H231204   5.232   0.240   9.339 -0.1259 -0.4398  0.1037
 2337TIP3   OH231205   2.269   2.276   7.004 -0.0386  0.2831  0.3700
 2337TIP3    H131206   2.269   2.182   7.019 -1.8369  0.0588 -0.7707
 2337TIP3    H231207   2.340   2.290   6.941 -1.1916 -0.6753 -1.2121
 2338TIP3   OH231208   4.700   3.645   7.789 -0.5153 -0.2741 -0.0095
 2338TIP3    H131209   4.655   3.730   7.786 -1.0729 -0.4993  1.5030
 2338TIP3    H231210   4.681   3.610   7.876 -0.4225 -2.0353 -0.6585
 2339TIP3   OH231211   5.665   4.889   8.678 -0.0753 -0.7078  0.4357
 2339TIP3    H131212   5.589   4.832   8.681 -0.8319  0.0484 -2.1241
 2339TIP3    H231213   5.695   4.885   8.587  1.8131  0.4695  0.9487
 2340TIP3   OH231214   3.000   0.167   8.711  0.2783  0.3320 -0.1452
 2340TIP3    H131215   2.988   0.160   8.806  0.6543  0.2789 -0.1020
 2340TIP3    H231216   2.962   0.086   8.676 -2.3240  1.4987 -0.2828
 2341TIP3   OH231217   2.158   0.570   7.635 -0.3587  0.1681 -0.0870
 2341TIP3    H131218   2.235   0.548   7.582 -0.3556  1.2464 -0.5675
 2341TIP3    H231219   2.096   0.499   7.619  0.3440 -0.4598 -0.0804
 2342TIP3   OH231220   3.440   0.211   9.658 -0.1945 -0.3518 -0.2548
 2342TIP3    H131221   3.400   0.141   9.710 -0.7055 -0.7293 -1.1373
 2342TIP3    H231222   3.497   0.164   9.596  2.3083  0.1803  1.4666
 2343TIP3   OH231223   4.853   0.499   8.414  0.2025 -0.0234  0.5415
 2343TIP3    H131224   4.890   0.587   8.416 -0.5425  0.2899  1.4757
 2343TIP3    H231225   4.791   0.501   8.341 -1.1594  0.8378  1.6530
 2344TIP3   OH231226   1.529   2.245   8.579 -0.1875 -0.2473  0.5917
 2344TIP3    H131227   1.553   2.275   8.491 -1.8477 -0.9674 -0.1451
 2344TIP3    H231228   1.438   2.273   8.590  0.0284 -0.0679  2.1442
 2345TIP3   OH231229   0.110   3.716   7.769  0.2592 -0.2600 -0.2058
 2345TIP3    H131230   0.082   3.788   7.825 -0.0385 -0.4543 -0.1036
 2345TIP3    H231231   0.057   3.726   7.690 -1.3394 -1.6119  0.6482
 2346TIP3   OH231232   4.449   6.571   7.962  0.7261  0.3946  0.5131
 2346TIP3    H131233   4.471   6.567   8.055 -1.3200 -1.3079  1.0163
 2346TIP3    H231234   4.488   6.492   7.924  1.1004  0.8059  0.0331
 2347TIP3   OH231235   7.305   0.504   9.153 -0.6451 -0.2556 -0.5070
 2347TIP3    H131236   7.301   0.596   9.126  1.0063  0.4266  1.3021
 2347TIP3    H231237   7.397   0.491   9.177 -0.9444 -2.2812 -0.3442
 2348TIP3   OH231238   3.043   2.319   7.913 -0.1456  0.4279 -0.5639
 2348TIP3    H131239   3.137   2.321   7.895  0.2920  0.2727  1.5208
 2348TIP3    H231240   3.022   2.409   7.938 -0.2843  0.1776  0.2223
 2349TIP3   OH231241   1.675   5.936   6.970  0.3995  0.1819  0.4419
 2349TIP3    H131242   1.655   5.967   7.058 -1.1139 -1.2642  0.6563
 2349TIP3    H231243   1.595   5.892   6.941  0.6130  1.1826 -1.9377
 2350TIP3   OH231244   7.551   7.460   8.514  0.1827  0.0519 -0.1909
 2350TIP3    H131245   7.632   7.432   8.471  0.3023 -0.5491  0.4055
 2350TIP3    H231246   7.521   7.535   8.462  2.2824  1.7092  0.8131
 2351TIP3   OH231247   2.974   2.879   8.235 -0.4813 -0.1658 -0.1646
 2351TIP3    H131248   3.041   2.812   8.250  0.0411  0.3576 -0.1094
 2351TIP3    H231249   2.947   2.867   8.144 -0.8824 -0.8809  0.0395
 2352TIP3   OH231250   6.103   3.842   7.463 -0.3075 -0.1325 -0.7508
 2352TIP3    H131251   6.180   3.824   7.409  0.6029  0.2505  0.3805
 2352TIP3    H231252   6.135   3.836   7.553 -1.3445  1.1466 -0.2677
 2353TIP3   OH231253   6.975   2.941   8.763 -0.2239  0.5858  0.0813
 2353TIP3    H131254   6.996   2.944   8.856 -0.4076  2.4628  0.1011
 2353TIP3    H231255   6.891   2.895   8.759 -0.1503  0.3745  0.8209
 2354TIP3   OH231256   1.211   3.362   7.019  0.4905 -0.4901  0.0184
 2354TIP3    H131257   1.266   3.354   7.097  0.2089 -1.7979  0.1150
 2354TIP3    H231258   1.140   3.300   7.034 -0.7022  0.7416 -0.3723
 2355TIP3   OH231259   3.280   2.031   7.409 -0.2392 -0.1067 -0.2226
 2355TIP3    H131260   3.244   2.062   7.492  0.7069 -1.5568  0.7874
 2355TIP3    H231261   3.366   2.072   7.403 -0.3861  0.1577 -0.6178
 2356TIP3   OH231262   0.687   3.145   7.780  0.2216  0.0085  0.3962
 2356TIP3    H131263   0.677   3.235   7.748  0.5890  0.1798  0.7562
 2356TIP3    H231264   0.740   3.153   7.859 -1.8045 -0.2625  1.8507
 2357TIP3   OH231265   4.775   3.001   7.771  0.3052 -0.0254 -0.4042
 2357TIP3    H131266   4.815   3.088   7.768  0.4740 -0.0900 -0.0013
 2357TIP3    H231267   4.846   2.941   7.747  0.2571 -0.0771 -0.4181
 2358TIP3   OH231268   0.472   1.237   8.601 -0.5018  0.0628 -0.2760
 2358TIP3    H131269   0.520   1.168   8.556  1.2390  1.1026 -0.1205
 2358TIP3    H231270   0.383   1.232   8.565 -0.0982 -1.4335 -1.1544
 2359TIP3   OH231271   0.563   2.650   8.690 -0.2175 -0.2230 -0.2036
 2359TIP3    H131272   0.488   2.662   8.749 -0.3335 -1.9280  0.0303
 2359TIP3    H231273   0.594   2.562   8.708 -0.0391 -0.6674 -2.4597
 2360TIP3   OH231274   4.717   7.680   7.901 -0.7823 -0.0536  0.0226
 2360TIP3    H131275   4.625   7.703   7.888 -0.9176 -0.3052  0.5182
 2360TIP3    H231276   4.714   7.598   7.950 -0.2987 -0.8059 -1.1770
 2361TIP3   OH231277   2.358   4.483   9.426  0.0463 -0.6021  0.1703
 2361TIP3    H131278   2.397   4.496   9.339  2.9437  1.2907  1.5843
 2361TIP3    H231279   2.410   4.412   9.465 -0.1402 -0.3371  0.9150
 2362TIP3   OH231280   6.335   5.611   8.858 -0.0984 -0.0769  0.3481
 2362TIP3    H131281   6.300   5.700   8.852  1.3821  0.5731  0.8149
 2362TIP3    H231282   6.418   5.621   8.905  0.7743 -1.5211 -0.7999
 2363TIP3   OH231283   0.568   5.200   7.241  0.1371  0.1822 -0.5312
 2363TIP3    H131284   0.630   5.257   7.195  0.5737 -1.3467 -1.9164
 2363TIP3    H231285   0.573   5.117   7.195 -0.2546 -1.1023  1.6113
 2364TIP3   OH231286   0.489   3.339   8.215 -0.2654 -0.6416  0.3723
 2364TIP3    H131287   0.456   3.270   8.157  1.4308 -1.6108  0.5000
 2364TIP3    H231288   0.513   3.293   8.296  1.5261 -0.0674  0.2205
 2365TIP3   OH231289   1.722   6.304   9.118  0.2750  0.1136  0.3053
 2365TIP3    H131290   1.692   6.269   9.034 -1.6137 -0.3974  1.1515
 2365TIP3    H231291   1.790   6.242   9.146 -0.1866 -0.6036 -0.1193
 2366TIP3   OH231292   6.514   6.086   6.856  0.3393 -0.2873 -0.3129
 2366TIP3    H131293   6.572   6.011   6.870 -1.1348 -1.3729  0.2359
 2366TIP3    H231294   6.511   6.097   6.761  0.3996 -1.0671 -0.4098
 2367TIP3   OH231295   6.537   0.713   6.672  0.4858 -0.1447  0.0932
 2367TIP3    H131296   6.478   0.758   6.612  0.9193  0.0756 -0.1758
 2367TIP3    H231297   6.625   0.743   6.646  0.8133 -1.3815 -0.3133
 2368TIP3   OH231298   7.242   3.578   8.468  0.5353 -0.5857 -0.1978
 2368TIP3    H131299   7.186   3.547   8.540 -0.2571  0.6411 -0.2446
 2368TIP3    H231300   7.331   3.573   8.503  0.2227 -0.6633  0.6182
 2369TIP3   OH231301   5.304   0.616   9.054 -0.1861 -0.8875 -0.3370
 2369TIP3    H131302   5.230   0.579   9.006  1.0698 -2.0087 -1.4765
 2369TIP3    H231303   5.363   0.542   9.068  0.5072 -0.1164  0.9950
 2370TIP3   OH231304   1.803   2.491   7.962 -0.1569 -0.3736  0.0463
 2370TIP3    H131305   1.855   2.461   7.888 -0.9912 -0.5242 -0.4840
 2370TIP3    H231306   1.764   2.573   7.933  0.6746  0.3298  0.8502
 2371TIP3   OH231307   4.710   3.289   8.567 -0.3269  0.2617 -0.0656
 2371TIP3    H131308   4.682   3.354   8.503  1.4742 -1.8075 -3.2151
 2371TIP3    H231309   4.688   3.205   8.527 -0.8277 -1.2117  2.9707
 2372TIP3   OH231310   3.464   1.588   8.118  0.2929 -0.1955  0.3766
 2372TIP3    H131311   3.456   1.494   8.127 -0.3956 -0.4102 -1.8592
 2372TIP3    H231312   3.546   1.600   8.069  0.0542  0.3132  0.0910
 2373TIP3   OH231313   7.527   0.497   7.949  0.3587 -0.2020 -0.0844
 2373TIP3    H131314   7.585   0.435   7.994 -0.3379 -0.9138 -0.1469
 2373TIP3    H231315   7.582   0.537   7.882  1.3292  0.6268  1.1487
 2374TIP3   OH231316   6.267   1.704   9.612 -0.0089  0.0746 -0.0761
 2374TIP3    H131317   6.262   1.703   9.516  1.3288 -3.8978 -0.3053
 2374TIP3    H231318   6.185   1.661   9.639 -0.3190  1.0667  0.5838
 2375TIP3   OH231319   3.352   5.106   7.346 -0.3118  0.2339 -0.1485
 2375TIP3    H131320   3.352   5.169   7.417 -0.8985  1.5516 -1.2791
 2375TIP3    H231321   3.397   5.029   7.382 -1.7478  0.3405  2.0545
 2376TIP3   OH231322   3.165   3.465   9.328 -0.3974  0.0049  0.1650
 2376TIP3    H131323   3.072   3.458   9.351 -0.6937  0.0568 -0.9364
 2376TIP3    H231324   3.165   3.467   9.232  0.6417  1.3501  0.1727
 2377TIP3   OH231325   5.941   4.973   8.758 -0.3997 -0.0779  0.5622
 2377TIP3    H131326   6.030   4.940   8.742 -0.4369 -0.3254  0.8678
 2377TIP3    H231327   5.916   5.014   8.675  0.2835  0.6474  0.7012
 2378TIP3   OH231328   4.233   5.112   8.768  0.0563 -0.3819 -0.3543
 2378TIP3    H131329   4.259   5.022   8.746 -2.0629 -1.2118  0.2976
 2378TIP3    H231330   4.213   5.109   8.862 -0.0615  0.7667 -0.3289
 2379TIP3   OH231331   2.529   3.075   7.723 -0.1201 -0.0372 -0.1525
 2379TIP3    H131332   2.502   3.167   7.720  2.4077  0.8744  1.7132
 2379TIP3    H231333   2.456   3.030   7.767 -0.4291  1.5085  1.0108
 2380TIP3   OH231334   3.275   6.666   8.816  0.4725  0.5978  0.2491
 2380TIP3    H131335   3.247   6.603   8.882  0.9818 -2.7382 -2.4631
 2380TIP3    H231336   3.196   6.715   8.794 -0.2386  0.0767  1.5461
 2381TIP3   OH231337   1.361   4.612   8.862  0.2272  0.2302 -0.1936
 2381TIP3    H131338   1.294   4.645   8.802 -0.5394 -1.0306 -0.0697
 2381TIP3    H231339   1.324   4.624   8.949 -0.7363 -2.2367 -0.1980
 2382TIP3   OH231340   3.900   3.776   8.763 -0.0281  0.4335  0.1089
 2382TIP3    H131341   3.943   3.692   8.775 -0.1814  0.3465  0.0531
 2382TIP3    H231342   3.967   3.833   8.726  0.5902  0.8257  1.7389
 2383TIP3   OH231343   4.922   6.337   6.733 -0.4105 -0.6499  0.4448
 2383TIP3    H131344   4.990   6.275   6.707 -0.4062 -0.4827  0.0533
 2383TIP3    H231345   4.874   6.354   6.652 -2.9332 -3.1991  1.2347
 2384TIP3   OH231346   5.298   0.706   8.663 -0.0192  0.3294 -0.5948
 2384TIP3    H131347   5.289   0.756   8.582  1.0010  1.3452 -0.1114
 2384TIP3    H231348   5.392   0.689   8.670  0.1278  1.5483  1.0904
 2385TIP3   OH231349   1.188   1.234   7.237  0.0495 -0.6217 -0.2339
 2385TIP3    H131350   1.272   1.196   7.212  1.0654  0.3041  1.5990
 2385TIP3    H231351   1.155   1.274   7.157  1.2779 -1.1351 -1.0210
 2386TIP3   OH231352   6.484   3.968   7.608  0.7410 -0.0006 -0.6266
 2386TIP3    H131353   6.474   4.034   7.676  0.8544 -0.4522 -0.1603
 2386TIP3    H231354   6.467   4.015   7.526 -0.9438  0.2220 -0.2020
 2387TIP3   OH231355   5.337   2.312   8.091 -0.3961  0.9659  0.3304
 2387TIP3    H131356   5.283   2.392   8.092  0.4856  1.6203 -1.0384
 2387TIP3    H231357   5.336   2.284   8.000  1.3290  0.8258  0.3285
 2388TIP3   OH231358   3.379   1.393   6.990  0.4123 -0.5521  0.4242
 2388TIP3    H131359   3.338   1.453   7.053  2.1003  0.4306  0.6388
 2388TIP3    H231360   3.315   1.386   6.919 -0.4574  0.3236  1.0920
 2389TIP3   OH231361   5.475   0.536   8.304 -0.2337  0.2521  0.3736
 2389TIP3    H131362   5.531   0.459   8.318 -0.4384  0.3780  2.0879
 2389TIP3    H231363   5.463   0.539   8.210 -1.6037 -2.8279  0.3226
 2390TIP3   OH231364   3.245   0.851   6.345  0.5030 -0.0873  0.2246
 2390TIP3    H131365   3.186   0.909   6.295 -0.7366 -1.4283  0.0728
 2390TIP3    H231366   3.318   0.908   6.369  1.2054  0.6658 -3.1151
 2391TIP3   OH231367   3.296   5.479   8.985  0.4080 -0.1477 -0.4453
 2391TIP3    H131368   3.380   5.436   8.971  1.5792  2.7279 -3.7660
 2391TIP3    H231369   3.317   5.556   9.038 -0.4778 -0.3159  0.1760
 2392TIP3   OH231370   0.377   2.982   8.486 -0.0876 -0.5294 -0.5423
 2392TIP3    H131371   0.292   2.949   8.456  0.1418 -0.0451 -1.7342
 2392TIP3    H231372   0.356   3.064   8.531 -0.3439 -0.8931  0.0255
 2393TIP3   OH231373   1.094   7.525   9.232  0.2467 -0.0943 -0.0561
 2393TIP3    H131374   1.122   7.446   9.186  0.8663 -1.1401  1.9802
 2393TIP3    H231375   1.157   7.592   9.206 -1.4481  0.3930 -3.3868
 2394TIP3   OH231376   2.865   3.491   9.192  0.2863  0.0219  0.0850
 2394TIP3    H131377   2.877   3.436   9.114  1.5318  1.5339 -0.8329
 2394TIP3    H231378   2.777   3.469   9.223  0.2177 -1.4723 -1.0387
 2395TIP3   OH231379   6.176   6.377   8.638 -0.0660 -0.4494  0.7303
 2395TIP3    H131380   6.107   6.439   8.616  0.3252  0.3359  1.6649
 2395TIP3    H231381   6.255   6.431   8.646  0.7545 -1.3708 -0.6720
 2396TIP3   OH231382   4.787   4.331   7.498  0.1042 -0.7357 -0.2456
 2396TIP3    H131383   4.765   4.240   7.477  0.6181 -0.5493 -1.7149
 2396TIP3    H231384   4.835   4.362   7.422  2.1968  0.0026  1.2931
 2397TIP3   OH231385   6.896   7.361   6.642 -0.3177  0.7595 -0.9724
 2397TIP3    H131386   6.962   7.304   6.602  1.1312  0.4406  1.6744
 2397TIP3    H231387   6.946   7.423   6.695 -2.1023  0.1862  1.5693
 2398TIP3   OH231388   2.427   5.067   8.881 -0.1016 -0.3618  0.4103
 2398TIP3    H131389   2.342   5.109   8.890  0.5323  0.9213  0.7265
 2398TIP3    H231390   2.411   4.992   8.825 -1.3619  0.0942  0.1201
 2399TIP3   OH231391   2.926   0.449   7.904 -0.1118  0.0458  0.2399
 2399TIP3    H131392   2.858   0.392   7.940 -0.7399  0.6130 -0.0044
 2399TIP3    H231393   2.983   0.468   7.978 -0.9674  0.6048  0.7813
 2400TIP3   OH231394   4.426   5.082   9.509 -0.2182 -0.5618  0.2610
 2400TIP3    H131395   4.381   5.069   9.593  1.7924 -0.7500  1.3697
 2400TIP3    H231396   4.506   5.130   9.531  1.5978 -2.7351 -1.1514
 2401TIP3   OH231397   5.058   2.075   8.216  0.2670  0.0311  0.2956
 2401TIP3    H131398   5.042   2.167   8.197 -5.0455  0.0052  2.8327
 2401TIP3    H231399   5.009   2.026   8.150 -0.3927 -0.7829  1.3503
 2402TIP3   OH231400   3.342   7.528   8.482 -0.4490  0.5261 -0.1029
 2402TIP3    H131401   3.273   7.591   8.462 -0.0392  0.2855 -2.5592
 2402TIP3    H231402   3.299   7.443   8.482 -0.2789  0.4381 -0.9455
 2403TIP3   OH231403   3.527   5.457   9.429  0.3562  0.4511 -0.0833
 2403TIP3    H131404   3.588   5.512   9.478 -0.7354  1.8172 -0.1799
 2403TIP3    H231405   3.509   5.383   9.486  3.1297 -0.7354 -0.6027
 2404TIP3   OH231406   5.931   4.981   9.018  0.3321 -0.4548 -0.4144
 2404TIP3    H131407   5.973   5.011   8.937  1.9241 -1.1224  0.1153
 2404TIP3    H231408   5.975   4.898   9.038 -1.2971 -1.2083  0.1811
 2405TIP3   OH231409   3.863   2.814   9.310  0.0709 -0.0278  0.6785
 2405TIP3    H131410   3.778   2.836   9.348 -0.3040 -0.2038 -0.0481
 2405TIP3    H231411   3.846   2.739   9.253  0.4461  0.7863 -0.5448
 2406TIP3   OH231412   4.535   2.507   7.431 -0.7654 -0.3415 -0.2167
 2406TIP3    H131413   4.517   2.495   7.338 -0.1055 -2.3667 -0.1295
 2406TIP3    H231414   4.625   2.540   7.433 -0.2935 -1.5866 -0.2758
 2407TIP3   OH231415   1.909   2.931   8.200  0.3576 -0.6008 -0.3838
 2407TIP3    H131416   1.842   2.864   8.213  1.0248 -1.0199  1.0655
 2407TIP3    H231417   1.992   2.882   8.198  0.8429  0.1535  0.5827
 2408TIP3   OH231418   3.587   2.882   9.393  0.3995  0.1996  0.5301
 2408TIP3    H131419   3.498   2.896   9.425  0.7572  0.5752  1.3874
 2408TIP3    H231420   3.588   2.925   9.307 -0.5082 -0.6297  0.0939
 2409TIP3   OH231421   1.928   4.068   9.280  0.0912 -0.2400  0.2505
 2409TIP3    H131422   1.925   4.058   9.375 -0.2985  0.3653  0.3075
 2409TIP3    H231423   2.003   4.016   9.253 -0.3506 -1.1720  0.7825
 2410TIP3   OH231424   0.916   4.169   8.177 -0.7837 -0.1390 -0.0625
 2410TIP3    H131425   0.835   4.129   8.146 -1.7961  0.8240  1.2263
 2410TIP3    H231426   0.959   4.099   8.226 -1.5779 -0.2547  0.5028
 2411TIP3   OH231427   4.060   3.516   6.987  0.1574  0.5550 -0.2235
 2411TIP3    H131428   4.104   3.434   7.011 -2.1900 -0.2364  1.7245
 2411TIP3    H231429   4.131   3.574   6.958  1.9093 -2.1152 -1.6919
 2412TIP3   OH231430   4.316   6.700   7.428  0.0044 -0.3714 -0.3657
 2412TIP3    H131431   4.294   6.784   7.388  2.0052 -0.0711 -0.9504
 2412TIP3    H231432   4.407   6.686   7.404  0.2029 -1.9120  1.1497
 2413TIP3   OH231433   2.728   5.229   9.243  0.1573 -0.5998  0.0569
 2413TIP3    H131434   2.751   5.276   9.323  0.4567  0.3111 -0.5521
 2413TIP3    H231435   2.776   5.274   9.174 -0.5471 -1.0168 -0.7200
 2414TIP3   OH231436   2.921   4.465   8.956  0.3462 -0.3888  0.3794
 2414TIP3    H131437   2.977   4.539   8.979 -2.0677  1.3664  0.9978
 2414TIP3    H231438   2.961   4.390   9.000  2.3422  0.6999  0.5207
 2415TIP3   OH231439   6.856   2.349   7.397 -0.0278  0.2182  0.7629
 2415TIP3    H131440   6.926   2.285   7.379 -1.1380 -0.5501 -1.1422
 2415TIP3    H231441   6.822   2.324   7.482  0.1864 -1.1604  0.4670
 2416TIP3   OH231442   1.839   4.586   7.983  0.8883  0.5415 -0.2086
 2416TIP3    H131443   1.927   4.563   8.012  0.6502 -0.2907 -0.1226
 2416TIP3    H231444   1.794   4.502   7.971  0.1533  0.9469 -0.3994
 2417TIP3   OH231445   0.607   2.819   8.484 -0.1161 -0.4230 -0.5548
 2417TIP3    H131446   0.593   2.763   8.560 -0.2927 -0.7471 -0.8266
 2417TIP3    H231447   0.542   2.888   8.493 -0.7360 -0.9625 -0.8931
 2418TIP3   OH231448   5.610   5.932   7.472  0.2396 -0.3861 -0.1595
 2418TIP3    H131449   5.601   6.026   7.462  1.1120 -0.3255 -0.4010
 2418TIP3    H231450   5.699   5.912   7.444 -0.3856 -1.4838 -1.4753
 2419TIP3   OH231451   2.418   5.978   7.268 -0.3660 -0.3489 -0.0197
 2419TIP3    H131452   2.378   6.039   7.207  0.9990  1.0651  0.4489
 2419TIP3    H231453   2.344   5.929   7.305 -1.3567  0.0666 -1.4042
 2420TIP3   OH231454   6.835   1.142   7.732  0.6679  0.1871 -0.0065
 2420TIP3    H131455   6.745   1.117   7.753  1.5550 -2.1200  1.3773
 2420TIP3    H231456   6.827   1.227   7.689 -2.2669 -0.5654 -1.1538
 2421TIP3   OH231457   5.994   0.390   7.578  0.2395  0.0015 -0.5869
 2421TIP3    H131458   6.066   0.440   7.618 -0.2706 -0.4898  1.0283
 2421TIP3    H231459   6.028   0.361   7.494  1.8093  0.0814 -0.0059
 2422TIP3   OH231460   2.768   4.633   9.451 -0.4160  0.0306  0.3191
 2422TIP3    H131461   2.744   4.566   9.388 -0.6400 -1.1068  1.5756
 2422TIP3    H231462   2.858   4.657   9.429 -0.6759  0.0502 -0.7504
 2423TIP3   OH231463   5.474   4.138   7.979  0.0809  0.0479  0.5396
 2423TIP3    H131464   5.495   4.144   8.072 -0.1757 -1.0207  0.6895
 2423TIP3    H231465   5.508   4.052   7.952 -0.6943 -0.0712 -0.1122
 2424TIP3   OH231466   1.177   7.361   7.345  0.2858  0.1221 -0.0382
 2424TIP3    H131467   1.101   7.413   7.369  0.8471  1.2231 -0.5753
 2424TIP3    H231468   1.222   7.343   7.428  0.5700  1.2816  0.0788
 2425TIP3   OH231469   3.182   6.523   8.511  0.2484 -0.0857  0.9365
 2425TIP3    H131470   3.191   6.472   8.592  1.6356 -0.8409  0.3579
 2425TIP3    H231471   3.206   6.612   8.536  0.5731 -0.2921  1.3881
 2426TIP3   OH231472   2.817   6.610   8.308  0.1057  0.1368 -0.1492
 2426TIP3    H131473   2.795   6.677   8.373 -0.4076  1.3077 -1.4855
 2426TIP3    H231474   2.841   6.534   8.360 -1.5553  0.6103  1.4206
 2427TIP3   OH231475   4.165   7.302   7.083  0.1853  0.0625  0.2472
 2427TIP3    H131476   4.229   7.284   7.015 -0.3535  2.6901 -1.0698
 2427TIP3    H231477   4.083   7.319   7.036 -0.0870  2.4338  1.4093
 2428TIP3   OH231478   1.549   7.039   9.501  0.6488 -0.2311  1.0089
 2428TIP3    H131479   1.455   7.026   9.495  0.8676 -1.2292 -1.4686
 2428TIP3    H231480   1.562   7.132   9.485  0.2340 -0.7252 -3.2648
 2429TIP3   OH231481   3.308   1.150   9.609 -0.1029  0.8732 -0.1919
 2429TIP3    H131482   3.397   1.173   9.580  0.8490 -2.1779 -0.0818
 2429TIP3    H231483   3.310   1.165   9.704  0.2215  1.0670 -0.2265
 2430TIP3   OH231484   7.303   0.125   8.747 -0.2897 -0.7503  0.1010
 2430TIP3    H131485   7.356   0.046   8.755  1.1304  0.1433 -0.1493
 2430TIP3    H231486   7.358   0.195   8.782 -1.0344  0.3287 -0.7900
 2431TIP3   OH231487   5.924   0.315   8.953  0.1760 -0.0454  0.6272
 2431TIP3    H131488   5.888   0.392   8.909 -0.5441 -0.7363 -0.0184
 2431TIP3    H231489   5.908   0.331   9.046  1.2939  1.2177  0.6445
 2432TIP3   OH231490   3.680   4.962   7.087 -0.1472  0.3681  0.3245
 2432TIP3    H131491   3.606   4.912   7.051  0.3476 -0.7791  0.8473
 2432TIP3    H231492   3.706   5.020   7.016 -1.4482  0.6882  0.0762
 2433TIP3   OH231493   4.277   5.679   7.456 -0.0697  0.1130  0.8455
 2433TIP3    H131494   4.312   5.716   7.375 -0.3990  1.4665  1.2909
 2433TIP3    H231495   4.322   5.728   7.525 -2.3091  1.4532  1.4347
 2434TIP3   OH231496   2.267   6.328   6.830  0.0719  0.0043 -0.0575
 2434TIP3    H131497   2.192   6.311   6.887 -0.2976  1.9819  0.1394
 2434TIP3    H231498   2.229   6.371   6.753  1.0620  2.5455  0.7441
 2435TIP3   OH231499   3.580   5.611   8.701 -0.4481 -0.2524 -0.3186
 2435TIP3    H131500   3.547   5.699   8.682 -1.5760 -1.0036 -2.0932
 2435TIP3    H231501   3.614   5.580   8.617  2.3677 -0.5671  0.8483
 2436TIP3   OH231502   1.664   0.179   8.214  0.3699 -0.0048 -0.1623
 2436TIP3    H131503   1.750   0.139   8.205  0.8260  0.8531  0.2396
 2436TIP3    H231504   1.625   0.136   8.290  0.0359 -1.0836 -0.9243
 2437TIP3   OH231505   6.409   1.709   7.156 -0.3248 -0.4368 -0.1160
 2437TIP3    H131506   6.478   1.768   7.188 -0.1764 -0.5625 -0.2019
 2437TIP3    H231507   6.372   1.754   7.080 -0.0409 -0.5670 -0.3356
 2438TIP3   OH231508   5.445   3.001   9.502  0.4799 -0.7021 -0.7170
 2438TIP3    H131509   5.367   2.994   9.447  0.8790  0.0253 -1.3939
 2438TIP3    H231510   5.432   2.936   9.571 -1.4964  0.4896  0.1322
 2439TIP3   OH231511   1.555   1.243   8.908  0.2298  0.6205  0.2578
 2439TIP3    H131512   1.494   1.257   8.980 -0.8168  0.1719 -0.5190
 2439TIP3    H231513   1.503   1.199   8.841  1.8965 -1.6673  0.3506
 2440TIP3   OH231514   6.998   0.588   9.398 -0.4264  0.0799  0.2452
 2440TIP3    H131515   7.016   0.521   9.332 -0.3031 -0.9745  1.3150
 2440TIP3    H231516   6.903   0.585   9.410 -0.5932  1.0751 -0.6854
 2441TIP3   OH231517   0.467   3.505   8.770 -0.1263  0.0521 -0.3913
 2441TIP3    H131518   0.394   3.507   8.708 -0.4875  0.2105  0.0306
 2441TIP3    H231519   0.427   3.524   8.855  0.3474 -0.2492 -0.0939
 2442TIP3   OH231520   2.914   1.795   6.644 -0.5774 -0.1326  0.0658
 2442TIP3    H131521   2.872   1.842   6.572  0.4553 -0.9370 -1.0961
 2442TIP3    H231522   2.940   1.864   6.705 -0.5809  0.6546 -0.8010
 2443TIP3   OH231523   6.196   1.915   7.779 -0.1942  0.2864 -0.7876
 2443TIP3    H131524   6.190   1.897   7.686  0.6469 -0.0887 -0.7792
 2443TIP3    H231525   6.206   1.828   7.820  0.5470  0.5127 -0.4587
 2444TIP3   OH231526   7.676   6.771   8.958 -0.5587  0.1832  0.1840
 2444TIP3    H131527   7.598   6.820   8.984 -0.2625  0.5390  0.4119
 2444TIP3    H231528   7.748   6.834   8.965 -0.3884  0.1509 -1.0363
 2445TIP3   OH231529   5.256   1.565   6.737  0.0174  0.3957 -0.3990
 2445TIP3    H131530   5.197   1.537   6.807  1.9144 -0.2776  1.0247
 2445TIP3    H231531   5.303   1.640   6.775  0.7901  0.2761 -1.0944
 2446TIP3   OH231532   1.907   4.623   8.725  0.5807  0.5020  0.4100
 2446TIP3    H131533   1.884   4.701   8.776 -0.9104 -1.5578  3.1433
 2446TIP3    H231534   2.002   4.617   8.734  0.5282  1.0868  1.6789
 2447TIP3   OH231535   2.681   4.512   8.394 -0.2801 -0.1827  0.2824
 2447TIP3    H131536   2.711   4.483   8.481 -1.3604  0.4470  0.8880
 2447TIP3    H231537   2.627   4.589   8.412  0.5445  0.7590 -1.0741
 2448TIP3   OH231538   0.855   6.388   6.727 -0.0501 -0.0644  0.7103
 2448TIP3    H131539   0.859   6.474   6.686  1.4915 -0.8005 -0.8241
 2448TIP3    H231540   0.815   6.404   6.813 -0.6850  1.9987  0.0833
 2449TIP3   OH231541   5.233   4.760   9.427 -0.3048  0.5874  0.3415
 2449TIP3    H131542   5.207   4.723   9.512  1.1665 -0.8220  0.2067
 2449TIP3    H231543   5.179   4.839   9.419 -0.4556  0.7892  2.6034
 2450TIP3   OH231544   2.223   5.793   8.843 -0.3914 -0.4916  0.5223
 2450TIP3    H131545   2.140   5.841   8.845 -0.0910  0.1358 -1.0219
 2450TIP3    H231546   2.198   5.701   8.846 -1.1839 -0.3180 -0.5731
 2451TIP3   OH231547   0.295   7.057   7.591 -0.2093 -0.0935  0.1121
 2451TIP3    H131548   0.275   7.084   7.502  1.1263  0.4417 -0.0514
 2451TIP3    H231549   0.244   6.976   7.604 -0.0767 -0.4261 -1.2772
 2452TIP3   OH231550   1.975   0.532   9.509  0.0282  1.0545 -0.0366
 2452TIP3    H131551   1.970   0.457   9.450 -2.6639  1.3839 -0.3329
 2452TIP3    H231552   2.068   0.538   9.533  0.6919 -0.8666 -1.8971
 2453TIP3   OH231553   2.807   2.277   7.773  0.6013 -0.1621  0.4465
 2453TIP3    H131554   2.801   2.373   7.769 -0.7827 -0.1402  1.9358
 2453TIP3    H231555   2.900   2.259   7.781  0.8752  1.0588  0.2286
 2454TIP3   OH231556   4.239   3.192   8.206  0.1855  0.2386  0.0189
 2454TIP3    H131557   4.329   3.189   8.240  0.8053 -0.4427 -1.5801
 2454TIP3    H231558   4.190   3.136   8.266  0.2502  2.4565  2.3196
 2455TIP3   OH231559   6.515   7.528   9.543  0.2034 -0.7316  0.0595
 2455TIP3    H131560   6.453   7.601   9.535 -0.9496 -1.5698  0.9354
 2455TIP3    H231561   6.601   7.567   9.526 -0.0581  1.3989  2.8183
 2456TIP3   OH231562   4.821   1.949   7.751  0.2777 -0.0250 -0.2577
 2456TIP3    H131563   4.819   1.912   7.839  1.3146  0.3407 -0.0678
 2456TIP3    H231564   4.881   2.023   7.757 -0.9710  1.0860 -0.8749
 2457TIP3   OH231565   3.956   4.751   9.380  0.3610  0.0102  0.3886
 2457TIP3    H131566   3.908   4.817   9.430 -0.8518 -0.0422 -0.6592
 2457TIP3    H231567   4.004   4.801   9.314  0.4433 -0.0693  0.3878
 2458TIP3   OH231568   2.176   5.560   8.292 -0.6790 -0.2929 -0.2680
 2458TIP3    H131569   2.262   5.543   8.253 -0.8761 -1.2259 -0.3126
 2458TIP3    H231570   2.174   5.655   8.303  1.4708 -0.4139  2.2624
 2459TIP3   OH231571   5.032   6.269   8.855  0.1785 -0.1091 -0.4447
 2459TIP3    H131572   4.950   6.224   8.871  0.1292 -0.7018 -2.1706
 2459TIP3    H231573   5.008   6.361   8.845 -0.1507 -0.1650 -0.1809
 2460TIP3   OH231574   7.398   5.186   8.189  0.4718  0.0138  0.2396
 2460TIP3    H131575   7.402   5.095   8.160 -0.0514  0.6088 -1.8523
 2460TIP3    H231576   7.314   5.194   8.233  0.5668 -0.5335  0.5261
 2461TIP3   OH231577   5.215   4.085   6.743  0.2263 -0.0988  0.1391
 2461TIP3    H131578   5.226   3.990   6.739  0.5730 -0.0188 -1.1110
 2461TIP3    H231579   5.303   4.120   6.734  0.3498  0.3401  2.4313
 2462TIP3   OH231580   2.551   3.492   8.055 -0.4019 -0.1973 -0.0302
 2462TIP3    H131581   2.481   3.532   8.107  1.1586  1.4426  0.9116
 2462TIP3    H231582   2.568   3.408   8.097 -0.5308  0.2260  0.8841
 2463TIP3   OH231583   7.330   1.291   9.552  0.4545  0.6842 -0.2769
 2463TIP3    H131584   7.255   1.235   9.530 -0.0297  2.1190 -2.6817
 2463TIP3    H231585   7.304   1.335   9.633  0.8957 -2.4774  1.7805
 2464TIP3   OH231586   6.456   6.835   9.389  0.5861 -0.5208  0.0621
 2464TIP3    H131587   6.497   6.902   9.445 -0.6046 -1.6297  2.4101
 2464TIP3    H231588   6.370   6.872   9.367 -0.1026 -1.2110  1.4223
 2465TIP3   OH231589   0.395   3.250   9.065 -0.5469  0.1437  0.2126
 2465TIP3    H131590   0.360   3.338   9.056  0.7445  0.5646 -0.9503
 2465TIP3    H231591   0.490   3.261   9.062 -0.3500 -1.4693 -2.1396
 2466TIP3   OH231592   0.907   6.610   8.941  0.1146  0.2347  0.2170
 2466TIP3    H131593   0.861   6.529   8.963 -1.3488  0.4657 -1.7774
 2466TIP3    H231594   0.901   6.663   9.021 -1.8025 -0.3296  0.4937
 2467TIP3   OH231595   1.310   3.510   9.177  0.2566  0.5814  0.5837
 2467TIP3    H131596   1.275   3.447   9.114  3.4024  0.0568 -0.8464
 2467TIP3    H231597   1.277   3.480   9.262 -0.5585 -1.3713 -0.3622
 2468TIP3   OH231598   1.342   4.001   9.226  0.2789 -0.5653  0.4851
 2468TIP3    H131599   1.348   4.095   9.213  1.1343 -0.4442  1.6079
 2468TIP3    H231600   1.418   3.965   9.180 -0.5896 -0.8160 -0.7851
 2469TIP3   OH231601   6.353   3.976   9.071  0.3902  0.1252  0.1814
 2469TIP3    H131602   6.317   3.921   9.002  1.1841 -0.0734 -0.0801
 2469TIP3    H231603   6.439   3.939   9.089 -0.8591 -1.5766  3.2643
 2470TIP3   OH231604   5.453   2.263   7.052 -0.1198 -0.4138 -0.3586
 2470TIP3    H131605   5.537   2.303   7.032 -0.1120  1.2369  2.4393
 2470TIP3    H231606   5.389   2.322   7.012 -0.0330 -1.0989 -1.5750
 2471TIP3   OH231607   1.510   0.438   8.348 -0.0723  0.3727 -0.0264
 2471TIP3    H131608   1.424   0.474   8.326 -0.5116 -1.5107 -1.6977
 2471TIP3    H231609   1.491   0.354   8.389  0.9436 -0.5488 -1.3545
 2472TIP3   OH231610   3.211   4.859   8.843 -0.3030  0.1972  0.1118
 2472TIP3    H131611   3.234   4.828   8.755  0.6065  1.5850 -0.1800
 2472TIP3    H231612   3.152   4.933   8.827  0.6329  1.0719  0.6140
 2473TIP3   OH231613   0.991   7.471   7.522 -0.3228 -0.4556  0.1625
 2473TIP3    H131614   1.000   7.542   7.586  0.4335  1.4563 -1.9561
 2473TIP3    H231615   0.999   7.391   7.575 -0.0685  0.9995  2.4941
 2474TIP3   OH231616   5.041   4.746   7.528  0.2534 -0.1823 -0.4647
 2474TIP3    H131617   4.995   4.663   7.515 -0.8412  0.6467 -2.3711
 2474TIP3    H231618   5.085   4.763   7.444  1.8798  0.3671  0.4436
 2475TIP3   OH231619   1.389   4.389   9.366 -0.1720  0.3347  0.3722
 2475TIP3    H131620   1.301   4.418   9.388  0.1007  0.8466  0.8121
 2475TIP3    H231621   1.430   4.466   9.326  0.5604  0.5896  1.5477
 2476TIP3   OH231622   0.319   4.058   8.309  0.2169  0.1582  0.6004
 2476TIP3    H131623   0.317   4.063   8.214 -0.5233  0.4555  0.6261
 2476TIP3    H231624   0.409   4.082   8.333 -0.0200  1.6880  0.0648
 2477TIP3   OH231625   5.069   1.429   8.125  0.3557 -1.0556 -0.1419
 2477TIP3    H131626   5.097   1.520   8.125  1.2328 -1.2965 -1.4503
 2477TIP3    H231627   5.018   1.419   8.045 -0.3044 -1.5627  0.3267
 2478TIP3   OH231628   0.988   6.506   7.823 -0.0205 -0.5361 -0.3528
 2478TIP3    H131629   1.079   6.489   7.846  0.1964  0.0950 -0.7312
 2478TIP3    H231630   0.972   6.595   7.853 -0.6782 -0.8281  0.1886
 2479TIP3   OH231631   4.051   7.153   9.224  0.0311 -0.1756 -0.7226
 2479TIP3    H131632   4.077   7.245   9.237  1.3057 -0.8364  2.5784
 2479TIP3    H231633   4.022   7.149   9.133 -0.6983  3.6275 -0.8426
 2480TIP3   OH231634   1.761   5.956   8.036  0.3412 -0.3724 -0.4117
 2480TIP3    H131635   1.724   6.044   8.027  0.6352 -0.2616 -0.5584
 2480TIP3    H231636   1.729   5.908   7.959 -1.4629 -1.0028  0.6718
 2481TIP3   OH231637   3.272   2.683   8.641  0.1739 -0.1591  0.2616
 2481TIP3    H131638   3.334   2.615   8.668  0.3591 -0.3431 -0.5755
 2481TIP3    H231639   3.193   2.635   8.615  0.7386 -0.2027 -1.5435
 2482TIP3   OH231640   3.004   2.386   9.522  0.1600 -0.8436 -0.0749
 2482TIP3    H131641   3.067   2.345   9.463  0.3518 -0.6236 -0.0281
 2482TIP3    H231642   3.038   2.475   9.535 -0.8557 -0.2799 -1.0999
 2483TIP3   OH231643   7.230   5.614   7.687  0.6148  0.1040 -0.0385
 2483TIP3    H131644   7.260   5.701   7.661  3.4166 -1.0037 -0.8560
 2483TIP3    H231645   7.144   5.605   7.646  0.7461  2.0734 -0.8510
 2484TIP3   OH231646   2.516   7.044   7.915  0.5520  0.5097 -0.1402
 2484TIP3    H131647   2.550   7.063   7.827 -0.3793  0.0478 -0.6142
 2484TIP3    H231648   2.584   7.076   7.974  0.9029  1.4436 -1.0085
 2485TIP3   OH231649   1.587   0.465   7.592  0.4752  0.1801  0.1926
 2485TIP3    H131650   1.525   0.508   7.533 -0.6536 -1.3195  0.2300
 2485TIP3    H231651   1.574   0.372   7.577  1.8939 -0.1880  1.0774
 2486TIP3   OH231652   1.866   7.044   6.508 -0.1798 -0.7068  0.3400
 2486TIP3    H131653   1.858   6.958   6.549 -0.1473 -0.9734 -0.2014
 2486TIP3    H231654   1.800   7.098   6.552 -1.8538 -1.6486 -0.8983
 2487TIP3   OH231655   4.597   6.909   8.693 -0.5554 -0.1712 -0.3893
 2487TIP3    H131656   4.502   6.907   8.703 -0.4978  1.1753  0.6905
 2487TIP3    H231657   4.612   6.943   8.605 -1.0732  0.2174 -0.3250
 2488TIP3   OH231658   0.686   4.865   8.461  0.4035  0.3418  0.0501
 2488TIP3    H131659   0.598   4.888   8.492  0.5859  0.7414  0.2837
 2488TIP3    H231660   0.672   4.794   8.399 -0.0721  0.2954  0.2067
 2489TIP3   OH231661   3.443   3.021   9.052  0.1875 -0.4039 -0.3117
 2489TIP3    H131662   3.412   2.943   9.100 -2.1999  1.1487  0.8921
 2489TIP3    H231663   3.372   3.041   8.991  1.2383  0.2560 -1.3589
 2490TIP3   OH231664   1.194   6.167   7.253 -0.2874 -0.1643  0.0187
 2490TIP3    H131665   1.120   6.115   7.285 -0.7864  1.0453  0.8743
 2490TIP3    H231666   1.176   6.178   7.159 -0.0451 -1.7096 -0.2351
 2491TIP3   OH231667   5.167   4.490   8.545 -0.1957  0.1660  0.1055
 2491TIP3    H131668   5.077   4.473   8.516 -0.0556 -0.1645 -0.1397
 2491TIP3    H231669   5.164   4.475   8.640 -0.4906  0.5556  0.1603
 2492TIP3   OH231670   5.546   5.167   8.101  0.5116  0.1254 -0.1062
 2492TIP3    H131671   5.632   5.173   8.144  0.1689 -1.5576  0.9352
 2492TIP3    H231672   5.483   5.172   8.173 -0.1781 -0.3857 -0.6620
 2493TIP3   OH231673   7.581   3.338   8.992 -0.0864 -0.3506 -0.0530
 2493TIP3    H131674   7.642   3.286   8.941  0.4035  0.3048 -0.1424
 2493TIP3    H231675   7.523   3.378   8.927 -0.2569 -0.5197 -0.0065
 2494TIP3   OH231676   4.169   4.941   8.042 -0.2817 -0.0899 -0.1386
 2494TIP3    H131677   4.187   4.883   8.116  1.1568 -0.4904 -0.7661
 2494TIP3    H231678   4.214   5.022   8.064 -1.1832  0.3541  0.1261
 2495TIP3   OH231679   6.676   5.174   8.835 -0.0358 -0.0714 -0.2043
 2495TIP3    H131680   6.583   5.197   8.841 -0.3875 -1.4124 -0.1462
 2495TIP3    H231681   6.676   5.088   8.794  1.3387  1.1975 -3.1840
 2496TIP3   OH231682   5.725   1.783   8.500 -0.0283  0.2541  0.2257
 2496TIP3    H131683   5.783   1.743   8.435  1.8582  1.4300  1.0916
 2496TIP3    H231684   5.702   1.711   8.558  0.8116 -0.2045  0.0212
 2497TIP3   OH231685   4.348   4.839   7.124  0.3887  0.2737 -0.2232
 2497TIP3    H131686   4.300   4.757   7.112 -0.2343  0.6609 -0.3664
 2497TIP3    H231687   4.351   4.879   7.037 -0.5884  1.1081  0.1141
 2498TIP3   OH231688   3.172   6.719   7.941 -0.1279 -0.2205 -0.1600
 2498TIP3    H131689   3.087   6.762   7.947 -0.1177 -0.2617  0.3472
 2498TIP3    H231690   3.156   6.641   7.888 -1.0107 -1.6497  2.0526
 2499TIP3   OH231691   2.591   4.942   7.064  0.1892  0.4562  0.0643
 2499TIP3    H131692   2.560   4.920   6.977  0.5170 -0.4722  0.1632
 2499TIP3    H231693   2.523   4.998   7.101 -1.2573 -1.2753  0.1770
 2500TIP3   OH231694   5.282   4.961   7.574 -0.6543  0.3583  0.1875
 2500TIP3    H131695   5.341   4.902   7.527 -2.1941 -2.5051  1.5569
 2500TIP3    H231696   5.326   4.978   7.657 -0.5891  0.4623  0.1326
 2501TIP3   OH231697   2.327   4.618   7.600  0.0795 -0.3375 -0.7765
 2501TIP3    H131698   2.358   4.648   7.686 -2.1157  2.5840 -0.8541
 2501TIP3    H231699   2.406   4.587   7.556  1.6015 -0.0798  1.5929
 2502TIP3   OH231700   0.546   5.273   8.773  0.6263 -0.2754  0.1868
 2502TIP3    H131701   0.533   5.344   8.836 -0.0388 -0.3774  0.1654
 2502TIP3    H231702   0.631   5.292   8.734 -0.2576  1.4556 -1.0118
 2503TIP3   OH231703   5.719   5.894   7.782 -0.1311 -0.2566 -0.3204
 2503TIP3    H131704   5.795   5.941   7.747  2.1436 -2.3302  1.4085
 2503TIP3    H231705   5.707   5.820   7.723 -0.3013 -0.3743 -0.1397
 2504TIP3   OH231706   3.043   5.072   8.911 -0.0930 -0.5027  0.1469
 2504TIP3    H131707   3.086   5.154   8.935  0.6234 -0.6193 -0.6991
 2504TIP3    H231708   3.038   5.023   8.993 -0.4346  0.3336  0.6414
 2505TIP3   OH231709   4.466   4.567   7.400 -0.4085 -0.4707  0.3714
 2505TIP3    H131710   4.403   4.558   7.472 -0.0506 -0.1794  0.7301
 2505TIP3    H231711   4.497   4.478   7.384  0.6491 -0.3584  1.6320
 2506TIP3   OH231712   1.206   2.578   9.045  0.1817  0.5946 -0.3618
 2506TIP3    H131713   1.130   2.538   9.088  0.2262 -0.7376 -1.4673
 2506TIP3    H231714   1.252   2.504   9.004  0.5366  1.7201 -2.0626
 2507TIP3   OH231715   6.606   5.282   8.477  0.3790 -0.6439  0.2219
 2507TIP3    H131716   6.628   5.339   8.551  1.0260 -1.4197  0.6399
 2507TIP3    H231717   6.511   5.290   8.468  0.1412 -1.3301  1.8043
 2508TIP3   OH231718   6.032   4.342   7.851  0.0878  0.2999  0.1580
 2508TIP3    H131719   6.095   4.270   7.858  1.4063  1.4346  0.5047
 2508TIP3    H231720   5.949   4.300   7.832  0.9462 -1.2645 -0.2912
 2509TIP3   OH231721   6.552   0.684   7.668 -0.1795 -0.1203 -0.0054
 2509TIP3    H131722   6.500   0.764   7.676  0.7310  0.5186 -0.2850
 2509TIP3    H231723   6.589   0.670   7.755 -0.9424 -0.6789  0.2426
 2510TIP3   OH231724   5.283   1.384   7.433  0.3018  0.2431  0.1846
 2510TIP3    H131725   5.231   1.304   7.447 -1.0334  1.2239  1.1356
 2510TIP3    H231726   5.235   1.431   7.364  0.5589  0.6384  0.2753
 2511TIP3   OH231727   5.471   7.141   7.562 -0.0113 -0.7754 -0.1629
 2511TIP3    H131728   5.550   7.192   7.543  0.4755 -1.4486  0.0368
 2511TIP3    H231729   5.464   7.141   7.657  0.3365 -1.5908 -0.1314
 2512TIP3   OH231730   1.711   5.372   9.241  0.1294 -0.1180  0.1871
 2512TIP3    H131731   1.750   5.448   9.197  1.8724 -2.6457 -3.1087
 2512TIP3    H231732   1.785   5.327   9.281 -0.6993 -0.7951  1.0085
 2513TIP3   OH231733   4.425   5.411   9.135 -0.6104 -0.7457  0.2474
 2513TIP3    H131734   4.430   5.333   9.079 -3.1716 -0.7183 -0.1305
 2513TIP3    H231735   4.398   5.377   9.220  0.9801 -0.5197  0.8806
 2514TIP3   OH231736   1.781   1.055   9.033  0.1619  0.6257 -0.6209
 2514TIP3    H131737   1.705   1.099   8.994 -0.7803 -0.9595 -0.6420
 2514TIP3    H231738   1.832   1.025   8.958 -0.6104 -0.6738 -0.6379
 2515TIP3   OH231739   4.656   7.049   8.430  0.6305 -0.0057  0.3063
 2515TIP3    H131740   4.653   7.144   8.425  2.4533  0.1887  1.8968
 2515TIP3    H231741   4.716   7.023   8.359 -0.9960 -0.1571 -1.0947
 2516TIP3   OH231742   1.240   3.359   8.011 -0.8214 -0.1640 -0.1978
 2516TIP3    H131743   1.221   3.266   7.998 -2.3435 -0.1859  1.6682
 2516TIP3    H231744   1.154   3.401   8.009 -0.3874  0.8556  1.1078
 2517TIP3   OH231745   4.171   6.073   8.844 -0.3903  0.1437  0.0095
 2517TIP3    H131746   4.163   6.164   8.816 -0.5227  0.6463  1.5806
 2517TIP3    H231747   4.197   6.078   8.936  1.3963 -1.4203 -0.3490
 2518TIP3   OH231748   5.155   4.402   9.052 -0.1367  0.0633 -0.1719
 2518TIP3    H131749   5.164   4.345   9.128 -0.1626 -0.2937 -0.4341
 2518TIP3    H231750   5.133   4.487   9.089 -1.8844 -0.4785  0.1512
 2519TIP3   OH231751   3.366   7.132   8.344 -0.4775  0.0593 -0.6661
 2519TIP3    H131752   3.312   7.083   8.281 -1.7134 -1.6468  1.5552
 2519TIP3    H231753   3.308   7.201   8.376 -0.4107 -0.0941 -0.2198
 2520TIP3   OH231754   5.457   1.223   7.020  0.3603  0.0522  0.0257
 2520TIP3    H131755   5.362   1.211   7.028  0.5610 -2.0590 -0.1559
 2520TIP3    H231756   5.469   1.318   7.023 -1.6488  0.3510  1.1570
 2521TIP3   OH231757   6.698   1.984   8.069  0.4972 -0.0508  0.3261
 2521TIP3    H131758   6.603   1.974   8.062  0.5007  0.6941 -1.6360
 2521TIP3    H231759   6.728   1.978   7.978  2.5726 -2.2757  1.0704
 2522TIP3   OH231760   4.646   0.938   7.633  0.0152  0.0207 -0.2432
 2522TIP3    H131761   4.688   0.854   7.618 -0.0041  0.1639 -1.1116
 2522TIP3    H231762   4.553   0.922   7.615  0.0851  0.3471 -0.9157
 2523TIP3   OH231763   4.203   1.885   7.072 -0.3750  0.1112  0.6174
 2523TIP3    H131764   4.193   1.957   7.010 -1.3618 -1.1158 -0.7131
 2523TIP3    H231765   4.270   1.829   7.034 -2.5146 -1.8045 -0.5990
 2524TIP3   OH231766   3.332   7.397   9.706  0.2242  0.1112 -1.2711
 2524TIP3    H131767   3.289   7.412   9.790  0.4181 -0.7949 -0.9915
 2524TIP3    H231768   3.263   7.413   9.641  0.2581  1.4949 -0.9983
 2525TIP3   OH231769   3.741   3.029   9.556 -0.6203 -0.0191  0.2860
 2525TIP3    H131770   3.688   2.970   9.502  1.1284  1.0794 -2.8741
 2525TIP3    H231771   3.693   3.112   9.554 -0.2598  0.1800 -0.0733
 2526TIP3   OH231772   1.808   5.555   7.881  0.1475 -0.7020 -0.0229
 2526TIP3    H131773   1.807   5.469   7.924  1.4946 -0.6489  0.1632
 2526TIP3    H231774   1.882   5.601   7.922 -1.9064  1.4353  1.5543
 2527TIP3   OH231775   7.326   4.944   9.347 -0.0492  0.0631 -0.7494
 2527TIP3    H131776   7.397   5.006   9.332 -0.2444  0.1389 -1.3876
 2527TIP3    H231777   7.363   4.859   9.326 -0.3229  0.1689 -1.7168
 2528TIP3   OH231778   6.724   2.775   8.372  0.3019  0.3933  0.1434
 2528TIP3    H131779   6.686   2.825   8.300  0.0495 -0.5230 -0.3741
 2528TIP3    H231780   6.747   2.841   8.438  0.3390  1.2228 -0.6788
 2529TIP3   OH231781   2.442   6.571   9.228  0.3764  0.4650  0.0240
 2529TIP3    H131782   2.427   6.653   9.182 -0.4961  0.9122  1.0742
 2529TIP3    H231783   2.400   6.582   9.313 -0.6372 -1.4301 -0.1618
 2530TIP3   OH231784   6.098   2.658   8.878 -0.9931  0.2135  0.1099
 2530TIP3    H131785   6.111   2.572   8.837  1.7878  1.0142 -0.9320
 2530TIP3    H231786   6.068   2.714   8.808 -0.9436  0.5064  0.3200
 2531TIP3   OH231787   5.844   3.025   8.208  0.5868  0.5705  0.2070
 2531TIP3    H131788   5.884   2.938   8.212  1.2258  0.8935  1.5034
 2531TIP3    H231789   5.911   3.080   8.167  0.5892  0.6599  0.3326
 2532TIP3   OH231790   3.227   4.735   8.613  0.2742 -0.0016  0.0356
 2532TIP3    H131791   3.248   4.696   8.528 -1.1279 -0.9691  0.0971
 2532TIP3    H231792   3.264   4.674   8.677 -0.2058 -0.2017  0.1243
 2533TIP3   OH231793   6.408   6.789   7.966 -0.5780  0.1285  0.0085
 2533TIP3    H131794   6.372   6.872   7.935  0.2066  1.3474  2.1643
 2533TIP3    H231795   6.338   6.725   7.951 -1.6836  1.4116 -0.5312
 2534TIP3   OH231796   2.511   2.039   6.682 -0.6775  0.4251  0.1900
 2534TIP3    H131797   2.537   2.105   6.746 -1.7943  0.6500  0.4328
 2534TIP3    H231798   2.416   2.049   6.674 -0.5961  0.2049 -1.2899
 2535TIP3   OH231799   6.777   2.436   7.713 -0.0565  0.3244 -0.4155
 2535TIP3    H131800   6.719   2.511   7.705 -0.4809  0.0366 -0.1234
 2535TIP3    H231801   6.720   2.365   7.745  0.6991  0.3752  1.1754
 2536TIP3   OH231802   4.648   7.332   7.347 -0.2560  0.2517 -0.0024
 2536TIP3    H131803   4.632   7.356   7.439  0.5072 -1.6403  0.6796
 2536TIP3    H231804   4.574   7.277   7.323  0.4193 -0.7214  0.0864
 2537TIP3   OH231805   5.432   0.806   8.341 -0.4709 -0.0280  0.2981
 2537TIP3    H131806   5.502   0.844   8.288 -1.5162 -0.6315 -1.6240
 2537TIP3    H231807   5.452   0.713   8.346 -1.3012 -0.2667 -0.5809
 2538TIP3   OH231808   6.770   4.688   7.205 -0.1910 -0.3839  0.8264
 2538TIP3    H131809   6.730   4.772   7.182 -0.3396 -0.6153  0.2073
 2538TIP3    H231810   6.729   4.626   7.145 -2.5014 -1.5015  3.3247
 2539TIP3   OH231811   6.056   7.405   7.223 -0.2138  0.2371 -0.2212
 2539TIP3    H131812   6.055   7.477   7.160 -0.1222  2.4749  2.1574
 2539TIP3    H231813   6.140   7.362   7.209  0.5730  1.7876 -0.4935
 2540TIP3   OH231814   4.319   5.254   9.339  0.5989  0.2604 -0.3399
 2540TIP3    H131815   4.367   5.195   9.398 -0.7129 -0.0484  0.4871
 2540TIP3    H231816   4.230   5.255   9.375  0.2624  1.7007 -1.1409
 2541TIP3   OH231817   7.180   2.166   7.823  0.3765  0.0343  0.9817
 2541TIP3    H131818   7.189   2.087   7.769  2.7902  0.3783  0.7870
 2541TIP3    H231819   7.118   2.220   7.774 -2.4044 -2.1619  1.7627
 2542TIP3   OH231820   6.268   6.542   7.704 -0.1295 -0.1102 -0.5075
 2542TIP3    H131821   6.241   6.578   7.789 -2.2681 -0.5322 -0.9587
 2542TIP3    H231822   6.254   6.448   7.713 -0.0970 -0.1866 -1.2416
 2543TIP3   OH231823   2.719   3.191   7.230 -0.6535  0.5293  0.0382
 2543TIP3    H131824   2.696   3.155   7.315 -1.8609 -1.6763 -1.1364
 2543TIP3    H231825   2.646   3.250   7.208  1.2322  3.8677  1.8749
 2544TIP3   OH231826   2.712   4.003   7.513  0.1356  0.3150 -0.2788
 2544TIP3    H131827   2.770   4.048   7.575 -0.3294  0.6861 -0.1106
 2544TIP3    H231828   2.758   4.009   7.429  1.7153 -1.8464  0.3263
 2545TIP3   OH231829   1.888   1.131   9.462 -0.2390 -0.6728 -0.3518
 2545TIP3    H131830   1.933   1.211   9.490  0.7279 -1.6840  1.1365
 2545TIP3    H231831   1.958   1.067   9.449 -0.9276 -1.1403 -2.1990
 2546TIP3   OH231832   4.789   1.086   7.944 -0.2882  0.3284  0.2105
 2546TIP3    H131833   4.821   1.101   7.855 -0.9504  0.0247 -0.0834
 2546TIP3    H231834   4.868   1.073   7.996  0.0712 -0.9741 -0.6064
 2547TIP3   OH231835   7.444   4.998   8.714  0.4263  0.1964 -0.1432
 2547TIP3    H131836   7.392   4.932   8.668  0.1216  1.2205 -1.2995
 2547TIP3    H231837   7.443   4.969   8.805 -0.1119 -1.1265 -0.5401
 2548TIP3   OH231838   3.767   6.294   8.315 -0.0260 -0.2758 -0.6570
 2548TIP3    H131839   3.752   6.269   8.224  1.1916  2.7754 -1.8377
 2548TIP3    H231840   3.857   6.326   8.317 -0.2307  0.3315  1.4772
 2549TIP3   OH231841   6.424   7.064   9.563 -0.2124  0.2518 -0.2166
 2549TIP3    H131842   6.335   7.097   9.551  0.2855  1.2748 -1.1663
 2549TIP3    H231843   6.429   7.043   9.657 -2.3796 -2.6196 -0.5941
 2550TIP3   OH231844   1.797   7.223   8.258  0.2401  0.4828  0.0478
 2550TIP3    H131845   1.735   7.181   8.199  0.3116  0.5993 -0.1121
 2550TIP3    H231846   1.862   7.264   8.199  0.2322  0.7194  0.2011
 2551TIP3   OH231847   2.372   7.189   9.316 -0.2116  0.4233  0.2022
 2551TIP3    H131848   2.381   7.282   9.337  1.7685  0.4046 -0.3334
 2551TIP3    H231849   2.460   7.162   9.292 -0.4152 -1.9719  1.7845
 2552TIP3   OH231850   3.503   0.978   7.420 -0.2091  0.4115  0.8906
 2552TIP3    H131851   3.509   0.883   7.415  0.3908  0.4278  1.1681
 2552TIP3    H231852   3.431   0.995   7.481 -0.5728  0.1398  0.5381
 2553TIP3   OH231853   2.266   6.851   9.598  0.2398 -0.1145 -0.3436
 2553TIP3    H131854   2.239   6.898   9.519  0.2796 -0.3330 -0.4888
 2553TIP3    H231855   2.352   6.887   9.619  1.2147 -1.5538 -1.6425
 2554TIP3   OH231856   4.706   2.684   6.961 -0.0358 -0.0342 -0.2623
 2554TIP3    H131857   4.707   2.767   6.913  0.1892  0.7558  1.0562
 2554TIP3    H231858   4.778   2.692   7.024 -0.8966 -0.6197  0.8395
 2555TIP3   OH231859   7.237   2.091   6.670 -0.8509 -0.3419  0.4157
 2555TIP3    H131860   7.222   2.168   6.615  0.7288 -0.1781  0.1698
 2555TIP3    H231861   7.181   2.104   6.746 -0.5690  1.0902  0.4019
 2556TIP3   OH231862   1.378   6.143   9.217  0.0940 -0.1873 -0.0648
 2556TIP3    H131863   1.364   6.208   9.287 -0.0659 -2.3250  2.0245
 2556TIP3    H231864   1.472   6.145   9.203 -0.0477  1.4773 -1.1132
 2557TIP3   OH231865   3.605   0.466   9.700 -0.3963  0.0801  0.3724
 2557TIP3    H131866   3.683   0.427   9.739 -0.6942 -1.7356 -0.7034
 2557TIP3    H231867   3.544   0.393   9.692 -3.0676  1.8045  3.0700
 2558TIP3   OH231868   0.464   5.827   8.837 -0.1705 -0.8057 -0.2007
 2558TIP3    H131869   0.524   5.804   8.766 -0.9334  0.0803 -1.1617
 2558TIP3    H231870   0.517   5.881   8.896  0.0935 -0.3812 -0.8193
 2559TIP3   OH231871   3.020   3.711   7.622 -0.3608  0.2615  0.3093
 2559TIP3    H131872   3.022   3.791   7.675 -0.9616  0.2843  0.3007
 2559TIP3    H231873   2.930   3.679   7.629 -0.2251 -0.2065 -0.0007
 2560TIP3   OH231874   5.284   3.070   8.706 -0.4144 -0.2843 -0.3487
 2560TIP3    H131875   5.292   3.137   8.774 -0.8888  0.2406 -0.8016
 2560TIP3    H231876   5.189   3.060   8.694 -0.3706  1.1036 -2.3459
 2561TIP3   OH231877   5.962   0.265   6.858 -0.5959 -0.7420  0.0878
 2561TIP3    H131878   5.980   0.237   6.768 -1.3961 -3.3730  0.6478
 2561TIP3    H231879   5.867   0.262   6.865 -0.5128 -1.3040  1.1987
 2562TIP3   OH231880   0.340   7.492   7.747 -0.4611 -0.0977 -0.0294
 2562TIP3    H131881   0.262   7.472   7.696 -0.0826  0.0989 -0.6994
 2562TIP3    H231882   0.410   7.442   7.705 -0.0646  0.3898  0.0389
 2563TIP3   OH231883   6.506   2.486   8.619  0.0150 -0.0884 -0.1983
 2563TIP3    H131884   6.581   2.431   8.643 -0.5481 -1.8658 -2.1921
 2563TIP3    H231885   6.468   2.443   8.542 -1.2413  2.4509 -1.1176
 2564TIP3   OH231886   6.170   3.546   7.597  0.1909  0.3608 -0.7610
 2564TIP3    H131887   6.210   3.632   7.581  0.5330  0.0841 -1.4271
 2564TIP3    H231888   6.240   3.495   7.638 -0.4473  0.8286  0.9926
 2565TIP3   OH231889   2.826   0.127   6.866  0.4550  1.1208 -0.4666
 2565TIP3    H131890   2.754   0.189   6.861 -1.5542 -1.1095 -1.1221
 2565TIP3    H231891   2.843   0.103   6.775 -0.1635 -0.6911 -0.1441
 2566TIP3   OH231892   1.597   2.860   9.229  0.1351  0.4043 -0.2176
 2566TIP3    H131893   1.572   2.782   9.181  1.0030  0.3051 -0.5270
 2566TIP3    H231894   1.555   2.932   9.182 -0.0921  0.1840 -0.3470
 2567TIP3   OH231895   4.438   4.664   8.440  0.1834 -0.1431  0.1896
 2567TIP3    H131896   4.492   4.587   8.460 -1.1678 -0.6875  1.9226
 2567TIP3    H231897   4.350   4.641   8.471 -0.5892  1.5259 -0.6488
 2568TIP3   OH231898   0.140   2.756   7.633 -0.0068 -0.5074  0.2466
 2568TIP3    H131899   0.046   2.737   7.634  0.0924 -1.0056  0.3573
 2568TIP3    H231900   0.153   2.816   7.706 -0.0547 -1.3673  0.9799
 2569TIP3   OH231901   1.859   0.274   6.928  0.0932  0.1362  0.0319
 2569TIP3    H131902   1.912   0.354   6.935  0.5737 -0.1981  0.2781
 2569TIP3    H231903   1.907   0.210   6.981 -0.5107 -0.1962  0.1734
 2570TIP3   OH231904   0.171   1.508   8.152  0.0624 -0.1710 -0.6697
 2570TIP3    H131905   0.135   1.575   8.094  1.3220  1.3211  0.1689
 2570TIP3    H231906   0.102   1.443   8.160 -1.9238  1.8745 -0.1776
 2571TIP3   OH231907   4.732   7.599   9.061 -0.3653 -0.1641  0.2612
 2571TIP3    H131908   4.698   7.614   8.973 -0.5959 -1.0456  0.1875
 2571TIP3    H231909   4.822   7.569   9.046 -0.1182  0.5019  0.3741
 2572TIP3   OH231910   4.955   1.039   6.377  0.5037 -0.1387 -0.1799
 2572TIP3    H131911   4.863   1.023   6.357  0.3388 -1.0125  1.1334
 2572TIP3    H231912   4.998   0.955   6.365  0.6726 -0.3173  1.4635
 2573TIP3   OH231913   4.237   1.920   7.850  0.4660 -0.6684  0.0727
 2573TIP3    H131914   4.329   1.946   7.848  0.2307  0.1813 -0.0677
 2573TIP3    H231915   4.222   1.882   7.763  1.2340 -2.8674  0.8310
 2574TIP3   OH231916   2.242   5.527   9.011  0.4848 -0.1123 -0.8197
 2574TIP3    H131917   2.159   5.511   8.966 -0.5735 -0.0867  0.9807
 2574TIP3    H231918   2.223   5.505   9.103  2.1296  1.0400 -0.1633
 2575TIP3   OH231919   2.735   1.151   8.734 -0.6210  0.1751  0.1667
 2575TIP3    H131920   2.814   1.097   8.739  0.2160  1.4731  2.8964
 2575TIP3    H231921   2.755   1.216   8.666  0.5223  0.2761  0.5800
 2576TIP3   OH231922   2.569   6.631   8.968 -0.0415  0.3745 -0.1257
 2576TIP3    H131923   2.595   6.713   9.009 -0.8855  0.8003 -0.4161
 2576TIP3    H231924   2.651   6.584   8.954  0.9521  2.7490 -3.4052
 2577TIP3   OH231925   0.991   4.747   9.133 -0.4687 -0.0635  0.3831
 2577TIP3    H131926   0.917   4.703   9.091  0.7633 -2.3381  0.4050
 2577TIP3    H231927   0.978   4.731   9.226  1.6211 -3.4763  0.2645
 2578TIP3   OH231928   7.574   1.166   9.061 -0.0986  0.1545 -0.1612
 2578TIP3    H131929   7.538   1.226   9.127  1.5041 -0.3583  1.2632
 2578TIP3    H231930   7.580   1.082   9.106  0.4739 -0.3610 -1.1669
 2579TIP3   OH231931   2.379   3.104   8.354  0.1331 -0.0845 -0.1187
 2579TIP3    H131932   2.368   3.033   8.417 -0.1780  0.5868  0.5980
 2579TIP3    H231933   2.389   3.183   8.407  1.9461  0.2478 -0.8618
 2580TIP3   OH231934   2.695   1.417   7.107  0.2062 -0.7869 -0.1972
 2580TIP3    H131935   2.686   1.338   7.054  0.2259 -0.9639  0.0605
 2580TIP3    H231936   2.731   1.386   7.190 -2.0020 -0.8793  0.8007
 2581TIP3   OH231937   5.267   4.762   8.920  0.0511 -0.2416  0.3513
 2581TIP3    H131938   5.246   4.854   8.904 -0.4972 -0.1149  1.6851
 2581TIP3    H231939   5.257   4.751   9.014  2.0167 -1.2072  0.4889
 2582TIP3   OH231940   2.833   1.392   8.986 -0.9431 -0.3001  0.4068
 2582TIP3    H131941   2.922   1.425   8.975 -1.1370  0.2694  0.5389
 2582TIP3    H231942   2.842   1.297   8.975 -0.5907 -0.1082 -1.3256
 2583TIP3   OH231943   2.740   1.464   8.018 -0.0095 -0.7731  0.0900
 2583TIP3    H131944   2.732   1.486   7.925 -2.2172 -1.1765  0.1140
 2583TIP3    H231945   2.790   1.536   8.056 -0.2287  0.0948 -1.1943
 2584TIP3   OH231946   6.555   4.012   8.227 -0.2130  0.4740  0.2310
 2584TIP3    H131947   6.615   3.940   8.244  0.1836  0.3447 -1.5279
 2584TIP3    H231948   6.478   3.993   8.280 -0.7132 -2.0618 -1.2396
 2585TIP3   OH231949   0.361   0.519   9.502 -0.1956  0.1886 -0.0014
 2585TIP3    H131950   0.317   0.461   9.563 -0.7082 -0.8647 -1.3330
 2585TIP3    H231951   0.424   0.464   9.457  1.5045  1.3529  0.8233
 2586TIP3   OH231952   4.834   6.095   7.023 -0.5706 -0.2358  0.0634
 2586TIP3    H131953   4.840   6.037   7.099 -1.5137  1.0698  1.1735
 2586TIP3    H231954   4.892   6.168   7.044 -1.5587  0.5939 -0.0538
 2587TIP3   OH231955   7.672   3.402   7.834 -0.5515 -0.3575  0.3186
 2587TIP3    H131956   7.717   3.455   7.768 -0.1556 -1.6883 -0.5077
 2587TIP3    H231957   7.640   3.466   7.898  1.7691  0.7124  0.4990
 2588TIP3   OH231958   2.783   5.088   8.785  0.1481  0.1178 -0.2608
 2588TIP3    H131959   2.800   5.090   8.691  1.8098  0.5125  0.0202
 2588TIP3    H231960   2.869   5.088   8.825 -0.5189  2.0716  1.3216
 2589TIP3   OH231961   6.648   4.068   6.948 -0.0902 -0.5215  0.7216
 2589TIP3    H131962   6.701   4.099   7.022  0.8195 -1.9115  0.6868
 2589TIP3    H231963   6.619   3.981   6.974  0.4757 -1.1541 -0.6374
 2590TIP3   OH231964   5.138   1.852   9.198 -0.0213 -0.4247  0.6196
 2590TIP3    H131965   5.069   1.786   9.198 -0.2028 -0.2334  0.6740
 2590TIP3    H231966   5.175   1.847   9.110  0.2189 -0.8630  0.7418
 2591TIP3   OH231967   5.822   3.565   9.377 -0.4125 -0.7450  0.3172
 2591TIP3    H131968   5.910   3.550   9.410  0.4160 -1.1670 -1.8967
 2591TIP3    H231969   5.789   3.639   9.428  1.8689  0.5115  0.0988
 2592TIP3   OH231970   0.360   7.306   6.776 -0.6300  0.0130  0.4341
 2592TIP3    H131971   0.431   7.346   6.727  0.7599 -1.9854  0.7145
 2592TIP3    H231972   0.378   7.212   6.774 -2.5129 -0.4507  1.6940
 2593TIP3   OH231973   4.148   2.472   9.139 -0.2714 -0.5654  0.6157
 2593TIP3    H131974   4.093   2.437   9.068  1.2406  0.0875 -0.9603
 2593TIP3    H231975   4.127   2.565   9.141  0.9087 -0.2540 -0.1949
 2594TIP3   OH231976   2.404   3.326   7.782  0.2141 -0.9904  0.8024
 2594TIP3    H131977   2.472   3.393   7.772  0.5134 -1.3905  0.0460
 2594TIP3    H231978   2.347   3.339   7.706  1.4965 -2.9389 -0.6046
 2595TIP3   OH231979   2.443   5.629   6.971  0.2291 -0.2749  0.5495
 2595TIP3    H131980   2.515   5.605   6.912  1.3280 -0.8976  2.0872
 2595TIP3    H231981   2.364   5.619   6.917  1.2259 -0.1897 -1.0010
 2596TIP3   OH231982   4.612   4.180   8.606 -0.0411 -0.5715  0.4090
 2596TIP3    H131983   4.595   4.244   8.537 -1.4938 -3.2820 -1.9254
 2596TIP3    H231984   4.707   4.186   8.621  0.4154 -0.1799 -2.1888
 2597TIP3   OH231985   1.683   4.342   7.910 -0.3092  0.4753 -0.5800
 2597TIP3    H131986   1.628   4.270   7.878  0.2623  0.8775 -2.6042
 2597TIP3    H231987   1.740   4.302   7.975 -1.4262 -0.4313 -0.1317
 2598TIP3   OH231988   1.403   6.448   7.717  0.0976  0.4366 -0.1598
 2598TIP3    H131989   1.458   6.522   7.747 -0.0200  0.8812 -1.0217
 2598TIP3    H231990   1.346   6.486   7.651 -0.4865 -0.2783 -0.0749
 2599TIP3   OH231991   5.554   4.170   8.246  0.4954  0.4000 -0.7464
 2599TIP3    H131992   5.494   4.126   8.306  0.8788  1.3443  0.3598
 2599TIP3    H231993   5.526   4.262   8.246  1.6813  0.7765 -0.5214
 2600TIP3   OH231994   1.517   0.614   9.567  0.2340 -0.0154  0.0437
 2600TIP3    H131995   1.465   0.694   9.575 -0.4824 -0.5083  0.5356
 2600TIP3    H231996   1.608   0.644   9.564 -0.0371  0.8280 -0.1278
 2601TIP3   OH231997   6.688   1.320   9.133 -0.4902  0.8006  0.0936
 2601TIP3    H131998   6.638   1.290   9.056  0.5322  1.0641 -0.6908
 2601TIP3    H231999   6.641   1.398   9.163 -0.4826  1.1410 -0.7370
 2602TIP3   OH232000   6.668   7.111   8.046  0.1766 -0.2429 -0.3325
 2602TIP3    H132001   6.591   7.150   8.003 -1.0105 -0.6575  1.3264
 2602TIP3    H232002   6.657   7.017   8.033  0.2198 -0.3204  0.1650
 2603TIP3   OH232003   1.342   5.509   7.425  0.1458  0.4150 -0.0454
 2603TIP3    H132004   1.356   5.525   7.518  0.5323  0.8039 -0.1701
 2603TIP3    H232005   1.428   5.518   7.385  0.0606 -0.2090 -0.3777
 2604TIP3   OH232006   2.726   6.197   8.826 -0.5555 -0.4539  0.1202
 2604TIP3    H132007   2.631   6.200   8.838 -0.6819  0.8702 -1.0539
 2604TIP3    H232008   2.758   6.278   8.865 -0.2243  0.4202 -1.8719
 2605TIP3   OH232009   1.591   1.453   8.505 -0.2248  0.3384 -0.0836
 2605TIP3    H132010   1.617   1.527   8.449 -1.2023  1.2016  0.5511
 2605TIP3    H232011   1.496   1.456   8.505 -0.2591  0.5620  1.8501
 2606TIP3   OH232012   3.261   1.790   6.874 -0.0138  0.4557 -0.1925
 2606TIP3    H132013   3.356   1.792   6.860 -0.1511  1.0434 -1.1723
 2606TIP3    H232014   3.228   1.865   6.824 -0.9783  0.3723  0.2947
 2607TIP3   OH232015   5.290   4.126   9.389 -0.4643  0.2912  0.0706
 2607TIP3    H132016   5.357   4.120   9.456 -0.5895 -0.8939  0.1110
 2607TIP3    H232017   5.337   4.144   9.308 -0.1400 -0.0162  0.1892
 2608TIP3   OH232018   0.813   5.618   8.255  0.0219 -0.4969  0.6268
 2608TIP3    H132019   0.873   5.615   8.180  0.6659 -0.1089  1.1125
 2608TIP3    H232020   0.728   5.594   8.219  0.6457 -2.0575  0.1046
 2609TIP3   OH232021   0.292   0.692   7.819 -0.6222  0.3378 -0.2910
 2609TIP3    H132022   0.311   0.633   7.892 -1.7891  1.4412  0.9604
 2609TIP3    H232023   0.371   0.688   7.764  1.7201  1.8419  2.6446
 2610TIP3   OH232024   5.906   1.597   8.368 -0.1988  0.4387  0.0284
 2610TIP3    H132025   5.936   1.553   8.289  0.6381 -0.1671  0.6620
 2610TIP3    H232026   5.976   1.659   8.388 -0.5390  0.7893  0.1385
 2611TIP3   OH232027   3.464   2.328   8.119  0.0442  0.1113 -0.2173
 2611TIP3    H132028   3.533   2.379   8.159  0.2802 -0.9385  0.7669
 2611TIP3    H232029   3.493   2.237   8.127 -1.0304 -0.2862 -0.6032
 2612TIP3   OH232030   0.504   2.288   9.650 -0.4933 -0.3717  0.1771
 2612TIP3    H132031   0.473   2.269   9.562 -0.6120  0.7357 -0.0368
 2612TIP3    H232032   0.552   2.209   9.676 -0.2454 -0.6254 -0.9717
 2613TIP3   OH232033   2.664   4.285   9.444  0.3588  0.4543  0.1508
 2613TIP3    H132034   2.750   4.280   9.487  0.7832  1.3551 -0.5551
 2613TIP3    H232035   2.679   4.340   9.368 -0.5771 -0.4147 -0.6823
 2614TIP3   OH232036   2.409   4.723   8.817 -0.2854 -0.6454  0.3978
 2614TIP3    H132037   2.367   4.772   8.746 -3.1059  2.3531  3.7996
 2614TIP3    H232038   2.502   4.722   8.793 -0.9931  0.5558 -3.0575
 2615TIP3   OH232039   5.792   6.652   6.870  0.0053  0.0340 -0.7778
 2615TIP3    H132040   5.774   6.570   6.823  0.8114 -0.9309  0.5522
 2615TIP3    H232041   5.882   6.643   6.901 -0.3806  0.7955  0.6271
 2616TIP3   OH232042   2.824   6.964   9.807 -0.7682 -0.2390  0.1090
 2616TIP3    H132043   2.836   6.871   9.789 -3.6398 -0.8484  0.7859
 2616TIP3    H232044   2.838   6.973   9.901 -0.7014 -0.0284  0.0808
 2617TIP3   OH232045   5.809   5.046   6.886  0.1797 -0.2741  0.6205
 2617TIP3    H132046   5.807   4.953   6.911 -0.7886 -0.4412 -0.0172
 2617TIP3    H232047   5.732   5.083   6.927 -0.0122  0.0139  0.0113
 2618TIP3   OH232048   2.013   5.876   7.699  0.2149 -0.2408 -0.0944
 2618TIP3    H132049   1.999   5.970   7.685 -0.7770 -0.5561 -1.4848
 2618TIP3    H232050   2.049   5.870   7.787  0.0781  1.4226  0.1145
 2619TIP3   OH232051   4.635   4.373   7.031  0.2071 -0.0595 -0.0032
 2619TIP3    H132052   4.566   4.436   7.011 -2.1243 -2.8059 -1.2501
 2619TIP3    H232053   4.596   4.287   7.014  2.5265 -2.0674  3.4447
 2620TIP3   OH232054   4.846   3.448   8.883  0.0991 -0.4615  0.0255
 2620TIP3    H132055   4.891   3.439   8.967  0.2392 -1.5322 -0.1464
 2620TIP3    H232056   4.886   3.382   8.827  0.1012  0.3360 -0.9399
 2621TIP3   OH232057   3.102   6.735   7.408 -0.7802  0.0154 -0.1007
 2621TIP3    H132058   3.061   6.730   7.495 -0.3782  3.0928  0.3621
 2621TIP3    H232059   3.038   6.782   7.355  0.7025  2.0451 -0.2172
 2622TIP3   OH232060   1.148   5.588   7.646 -0.1145  0.6439  0.6565
 2622TIP3    H132061   1.077   5.526   7.661 -0.0806  0.1836 -0.9331
 2622TIP3    H232062   1.225   5.534   7.628  0.1984  1.1397  0.4768
 2623TIP3   OH232063   1.195   5.400   8.623 -0.3335  0.0576  0.1770
 2623TIP3    H132064   1.217   5.338   8.553  2.6488  0.5690  0.5281
 2623TIP3    H232065   1.151   5.473   8.578 -2.4899 -1.5198 -0.4515
 2624TIP3   OH232066   4.303   7.148   8.750  0.3185 -0.2939  0.1113
 2624TIP3    H132067   4.329   7.132   8.659  1.4376 -2.0414  0.6833
 2624TIP3    H232068   4.214   7.114   8.756  0.9220 -1.9703  0.0869
 2625TIP3   OH232069   4.307   1.808   9.148 -0.2746 -0.4046  0.0580
 2625TIP3    H132070   4.365   1.880   9.172 -0.4705 -1.0007  2.6914
 2625TIP3    H232071   4.220   1.835   9.179 -0.6420 -1.1463 -0.2833
 2626TIP3   OH232072   5.124   1.700   8.226  0.1680 -0.0917  0.0066
 2626TIP3    H132073   5.053   1.744   8.179 -1.8702 -2.7559  0.3366
 2626TIP3    H232074   5.110   1.724   8.318 -0.1918 -0.4121  0.0411
 2627TIP3   OH232075   7.670   0.370   6.516  0.0023  0.0770  0.0600
 2627TIP3    H132076   7.763   0.353   6.508  0.0892  1.0074 -1.5080
 2627TIP3    H232077   7.663   0.465   6.518 -0.9221  0.0293 -0.2450
 2628TIP3   OH232078   0.197   3.025   8.158  0.3830 -0.1641 -0.2556
 2628TIP3    H132079   0.279   3.066   8.132  1.2574 -1.1852  0.8149
 2628TIP3    H232080   0.130   3.088   8.131  1.5803  1.3066  0.0441
 2629TIP3   OH232081   5.865   5.079   8.438 -0.0707  0.5707 -0.4020
 2629TIP3    H132082   5.824   5.158   8.402  1.3697  1.1053 -0.9534
 2629TIP3    H232083   5.847   5.011   8.374 -1.9852  0.2133  0.4443
 2630TIP3   OH232084   4.838   6.192   8.553  0.2562 -0.2491 -0.3711
 2630TIP3    H132085   4.897   6.119   8.573 -0.6901 -1.0376 -0.3836
 2630TIP3    H232086   4.892   6.255   8.505  1.2911 -0.5678  0.3452
 2631TIP3   OH232087   2.952   0.987   8.685  0.2844 -0.1116 -0.0558
 2631TIP3    H132088   3.019   1.035   8.635 -0.4637 -0.9199 -1.9117
 2631TIP3    H232089   2.986   0.898   8.692 -0.7141 -0.6363 -1.3697
 2632TIP3   OH232090   0.629   1.237   7.089 -0.0951 -0.4909 -0.0835
 2632TIP3    H132091   0.596   1.153   7.057 -1.3245  0.2426 -0.8185
 2632TIP3    H232092   0.555   1.275   7.136  0.1122  0.6112 -0.6225
 2633TIP3   OH232093   6.494   4.482   9.334 -0.3921 -0.7459  0.0843
 2633TIP3    H132094   6.536   4.488   9.249  2.0724 -1.9220  1.1342
 2633TIP3    H232095   6.471   4.573   9.356 -1.1867 -0.4308 -1.8045
 2634TIP3   OH232096   3.132   7.568   7.816  0.0090 -0.2255 -0.1233
 2634TIP3    H132097   3.148   7.662   7.825 -0.9387  0.0188 -0.7632
 2634TIP3    H232098   3.214   7.527   7.841  0.0218  0.7049  1.4696
 2635TIP3   OH232099   6.390   0.648   8.514 -0.6555  0.1301 -0.2483
 2635TIP3    H132100   6.464   0.613   8.563 -0.6865 -1.9780 -1.5962
 2635TIP3    H232101   6.319   0.654   8.579 -0.0670 -0.3700  0.4594
 2636TIP3   OH232102   4.575   0.966   7.302  0.5657 -0.0635  0.7189
 2636TIP3    H132103   4.636   1.025   7.347  1.4331  1.5472 -2.2234
 2636TIP3    H232104   4.621   0.882   7.299  1.3890  0.3587  1.0075
 2637TIP3   OH232105   6.018   6.737   8.205 -0.3002  0.1239  0.9214
 2637TIP3    H132106   5.948   6.738   8.270 -0.7438  0.9238  0.4508
 2637TIP3    H232107   5.982   6.786   8.131 -0.1630 -1.5573 -0.3205
 2638TIP3   OH232108   6.370   1.095   8.872  0.0671  0.0932 -0.0537
 2638TIP3    H132109   6.363   1.130   8.961 -1.5086  0.0260 -0.1171
 2638TIP3    H232110   6.376   1.000   8.885 -0.4513  0.0615 -0.0122
 2639TIP3   OH232111   0.875   2.666   9.536 -0.1634  0.5848 -0.3807
 2639TIP3    H132112   0.801   2.615   9.568  0.5094 -0.6337 -0.7057
 2639TIP3    H232113   0.940   2.601   9.509  1.5292  1.5931  1.0194
 2640TIP3   OH232114   0.386   7.078   9.048 -0.2393  0.2867  0.1506
 2640TIP3    H132115   0.447   7.010   9.075  1.8150  2.8391  2.6324
 2640TIP3    H232116   0.441   7.143   9.004 -1.2266  2.2838  1.7088
 2641TIP3   OH232117   7.481   3.922   8.045 -0.0920  0.0064  0.1325
 2641TIP3    H132118   7.385   3.917   8.053 -0.0583 -1.3232 -0.0997
 2641TIP3    H232119   7.496   3.935   7.952 -0.0107 -1.9266 -0.1584
 2642TIP3   OH232120   1.503   3.327   7.925  0.1790 -0.0994  0.0086
 2642TIP3    H132121   1.409   3.333   7.941  0.2163 -0.9448  0.5774
 2642TIP3    H232122   1.513   3.353   7.833 -0.4923  0.8927  0.1929
 2643TIP3   OH232123   7.063   2.984   7.833  0.1214 -0.1700 -0.1750
 2643TIP3    H132124   7.016   2.949   7.757  1.2449 -1.0241 -0.4930
 2643TIP3    H232125   6.994   3.016   7.891 -0.8230 -0.8472 -0.8961
 2644TIP3   OH232126   3.963   1.606   8.291 -0.0639 -0.2795 -0.0769
 2644TIP3    H132127   3.985   1.643   8.205  0.9918 -0.2104  0.2089
 2644TIP3    H232128   3.927   1.520   8.271  2.5263 -1.3721 -0.5348
 2645TIP3   OH232129   3.350   6.397   7.967  0.6147 -0.0097 -0.2073
 2645TIP3    H132130   3.303   6.318   7.997  0.2700 -0.2763 -1.3976
 2645TIP3    H232131   3.281   6.462   7.956  1.1155  1.2245  2.9005
 2646TIP3   OH232132   6.960   7.048   9.305 -0.2312  0.4359  0.7079
 2646TIP3    H132133   7.035   7.003   9.344  0.1979  1.0381  0.5973
 2646TIP3    H232134   6.983   7.141   9.309 -0.5285  0.5622 -0.2476
 2647TIP3   OH232135   6.557   6.211   7.143 -0.0644  0.5040 -0.7072
 2647TIP3    H132136   6.556   6.175   7.054 -2.1930  1.1963 -1.0265
 2647TIP3    H232137   6.588   6.301   7.132  0.3616  0.3650 -0.6449
 2648TIP3   OH232138   6.247   5.863   9.057  0.5546  0.2029 -0.2398
 2648TIP3    H132139   6.227   5.956   9.049  0.2342  0.6003  3.4272
 2648TIP3    H232140   6.339   5.856   9.030  0.7123  1.6800 -0.1853
 2649TIP3   OH232141   1.809   3.328   7.165 -0.0949  0.5272  0.2916
 2649TIP3    H132142   1.856   3.331   7.082  0.5295  0.4653  0.6391
 2649TIP3    H232143   1.807   3.235   7.188 -1.1842  0.4159 -0.1570
 2650TIP3   OH232144   5.765   2.828   7.584  0.0665  0.2263 -0.0042
 2650TIP3    H132145   5.787   2.894   7.649  0.5812 -0.5207  0.6049
 2650TIP3    H232146   5.835   2.762   7.591 -0.0235 -0.0226 -1.1097
 2651TIP3   OH232147   5.548   6.748   7.010 -0.1947 -0.3458 -0.2016
 2651TIP3    H132148   5.488   6.727   6.939  0.5016 -0.8955 -0.6414
 2651TIP3    H232149   5.633   6.714   6.981  0.3639  0.5316  0.3433
 2652TIP3   OH232150   0.080   6.291   9.113 -0.9247 -0.0674  0.8832
 2652TIP3    H132151   0.010   6.329   9.060 -0.5597 -0.1254  0.3410
 2652TIP3    H232152   0.138   6.249   9.048  0.7417  1.7706  1.0825
 2653TIP3   OH232153   5.344   6.620   9.368 -0.4332 -0.5213  0.5012
 2653TIP3    H132154   5.276   6.663   9.419 -0.3620  0.2471 -0.0323
 2653TIP3    H232155   5.385   6.559   9.429 -1.2660 -0.6332  0.9614
 2654TIP3   OH232156   4.020   2.704   8.570 -0.0840  0.1614 -0.1095
 2654TIP3    H132157   3.937   2.752   8.566 -0.1150  0.2437  1.2587
 2654TIP3    H232158   4.079   2.754   8.513 -0.6016  0.8418 -0.0608
 2655TIP3   OH232159   3.428   1.473   8.514 -0.3412  0.5659 -0.0703
 2655TIP3    H132160   3.350   1.528   8.520 -0.4225  0.2791  2.2949
 2655TIP3    H232161   3.500   1.530   8.541 -0.2348 -0.0985  1.0959
 2656TIP3   OH232162   3.560   6.165   9.583 -0.3122 -0.0578 -0.0399
 2656TIP3    H132163   3.611   6.188   9.661  0.1064  0.9437 -0.5975
 2656TIP3    H232164   3.469   6.177   9.610 -0.1492  0.9136  0.1045
 2657TIP3   OH232165   7.019   4.220   8.283  0.4915  0.2628  0.3915
 2657TIP3    H132166   7.025   4.240   8.376 -2.0394  1.1722  0.4546
 2657TIP3    H232167   6.925   4.216   8.266  0.8758  0.5544 -2.2190
 2658TIP3   OH232168   2.260   0.282   7.385 -0.7837  0.9864  0.1062
 2658TIP3    H132169   2.353   0.297   7.401 -0.5493 -0.3107  0.0662
 2658TIP3    H232170   2.248   0.301   7.292  0.1576 -1.9373 -0.7026
 2659TIP3   OH232171   2.709   2.438   9.521 -0.1900  0.3777  0.2031
 2659TIP3    H132172   2.786   2.390   9.552 -0.0435 -0.0546 -0.7884
 2659TIP3    H232173   2.724   2.449   9.427 -0.7679  1.3636  0.2054
 2660TIP3   OH232174   1.308   0.065   9.138 -0.0078 -0.0612 -0.4132
 2660TIP3    H132175   1.395   0.058   9.178  0.0543  0.3397 -0.4784
 2660TIP3    H232176   1.285   0.157   9.146 -0.3320 -0.1251 -0.6008
 2661TIP3   OH232177   3.247   5.555   6.891  0.0462  0.1246  0.2378
 2661TIP3    H132178   3.234   5.640   6.932  0.0422  1.5792 -2.5587
 2661TIP3    H232179   3.171   5.544   6.833  0.7365 -1.1188 -0.4709
 2662TIP3   OH232180   3.417   2.981   7.098  0.0205  0.2739 -0.2651
 2662TIP3    H132181   3.436   3.035   7.175 -1.2709 -1.5559  1.4238
 2662TIP3    H232182   3.480   2.909   7.103 -0.6366 -0.3201 -0.3968
 2663TIP3   OH232183   2.740   2.476   7.025 -0.0117  0.1366  0.7187
 2663TIP3    H132184   2.782   2.429   7.098 -0.5714 -3.3972 -1.0362
 2663TIP3    H232185   2.812   2.522   6.982  1.1979 -1.5329  0.8492
 2664TIP3   OH232186   6.220   3.758   8.955  0.0113  0.0825 -0.7157
 2664TIP3    H132187   6.231   3.686   9.017 -0.1041  0.8623  0.2468
 2664TIP3    H232188   6.130   3.750   8.923 -0.5445  0.7190  0.6179
 2665TIP3   OH232189   6.962   7.677   7.646 -0.1006  0.2606 -0.0099
 2665TIP3    H132190   6.969   7.597   7.594 -1.2603  0.2790 -0.2239
 2665TIP3    H232191   6.952   7.747   7.581 -1.6705  0.2707  0.2143
 2666TIP3   OH232192   1.259   6.886   7.622 -0.1193 -0.4520  0.2471
 2666TIP3    H132193   1.183   6.927   7.580  0.4856 -1.4484 -2.0054
 2666TIP3    H232194   1.255   6.914   7.713 -1.0380  2.6883 -0.6182
 2667TIP3   OH232195   1.140   0.314   7.814  0.8527  0.0331 -0.1246
 2667TIP3    H132196   1.123   0.395   7.765  0.2042  0.7168  1.1910
 2667TIP3    H232197   1.065   0.258   7.794 -0.2718  0.9451  1.3273
 2668TIP3   OH232198   6.924   2.043   8.455  0.0043  0.0503 -0.0190
 2668TIP3    H132199   6.976   1.965   8.437  0.7572  1.2105 -3.6465
 2668TIP3    H232200   6.833   2.013   8.447  0.1555 -0.9986  1.6541
 2669TIP3   OH232201   7.667   2.905   7.180 -0.0466  0.0375 -0.3303
 2669TIP3    H132202   7.661   2.848   7.257  0.6281 -1.5749 -1.4050
 2669TIP3    H232203   7.587   2.887   7.131  0.1046  0.1176 -0.6096
 2670TIP3   OH232204   4.010   4.350   8.525  0.0278 -0.7505  0.6769
 2670TIP3    H132205   3.960   4.269   8.521  1.4689 -1.6558  0.0902
 2670TIP3    H232206   3.944   4.419   8.522 -1.2338 -1.8888  1.2151
 2671TIP3   OH232207   3.815   5.596   9.520  0.7975 -0.2681 -0.7281
 2671TIP3    H132208   3.887   5.567   9.463 -1.6231 -2.7585 -2.7833
 2671TIP3    H232209   3.783   5.676   9.479  1.2533 -0.1573 -0.8743
 2672TIP3   OH232210   6.798   1.581   7.322 -0.3327  0.4465 -0.0096
 2672TIP3    H132211   6.747   1.535   7.255 -0.0877 -0.0377  0.1328
 2672TIP3    H232212   6.791   1.674   7.298 -2.0489  0.4960  0.5131
 2673TIP3   OH232213   6.594   6.436   7.985 -0.4451  0.2319  0.0602
 2673TIP3    H132214   6.635   6.466   8.066  1.0397 -0.5743 -0.3600
 2673TIP3    H232215   6.532   6.368   8.014 -1.2412  1.1935  0.6702
 2674TIP3   OH232216   3.921   5.386   8.823 -0.2579 -0.4140  0.0545
 2674TIP3    H132217   3.957   5.474   8.830 -1.7146  0.2118  0.1103
 2674TIP3    H232218   3.945   5.344   8.906 -0.7067  0.4041  0.6219
 2675TIP3   OH232219   6.038   6.329   8.929  0.1595 -0.0763  0.0692
 2675TIP3    H132220   6.109   6.276   8.964  1.6215  1.7396 -0.0152
 2675TIP3    H232221   6.071   6.362   8.845 -1.0598  0.2413 -0.3071
 2676TIP3   OH232222   4.584   7.199   8.843 -0.3155  0.3810  1.0425
 2676TIP3    H132223   4.513   7.262   8.853 -0.5828  0.0455  1.2984
 2676TIP3    H232224   4.554   7.140   8.773  1.3291  2.4260 -1.6038
 2677TIP3   OH232225   5.506   6.485   7.882  0.3745 -0.1766  0.7779
 2677TIP3    H132226   5.517   6.393   7.906 -0.0591  0.0345  1.8302
 2677TIP3    H232227   5.510   6.532   7.965 -2.2182  0.5056  0.6001
 2678TIP3   OH232228   2.168   5.465   9.261  0.1632 -0.4930 -0.3573
 2678TIP3    H132229   2.173   5.476   9.356  0.8168 -0.7544 -0.3572
 2678TIP3    H232230   2.099   5.400   9.248 -1.8080  1.4253 -0.2187
 2679TIP3   OH232231   4.225   3.721   6.923  0.1915  0.1008 -0.2134
 2679TIP3    H132232   4.305   3.762   6.888  1.0237 -1.0795  0.2582
 2679TIP3    H232233   4.154   3.770   6.881  1.1421  1.4833 -0.2916
 2680TIP3   OH232234   1.644   5.304   7.671  0.1373 -0.2787  0.7060
 2680TIP3    H132235   1.627   5.331   7.581  1.3601  1.0166  0.8404
 2680TIP3    H232236   1.731   5.264   7.668  1.4604  2.3303  1.7636
 2681TIP3   OH232237   5.725   0.990   8.601 -0.4829 -0.3351 -0.3864
 2681TIP3    H132238   5.710   0.967   8.693 -2.1484 -0.5295 -0.6806
 2681TIP3    H232239   5.807   0.946   8.579  0.9466  1.1698  1.4785
 2682TIP3   OH232240   1.303   4.107   8.405  0.1211 -0.0939  0.3737
 2682TIP3    H132241   1.298   4.165   8.482  0.7862 -0.0825  0.4191
 2682TIP3    H232242   1.215   4.070   8.396 -0.5003  1.4126 -0.0387
 2683TIP3   OH232243   5.800   1.471   9.031  0.4456  0.1306  0.0392
 2683TIP3    H132244   5.814   1.564   9.012 -0.1766  0.1443 -0.3728
 2683TIP3    H232245   5.713   1.468   9.071  0.1095 -0.3742 -0.7210
 2684TIP3   OH232246   2.736   1.833   9.429  0.5268  0.3143 -0.0486
 2684TIP3    H132247   2.756   1.876   9.346  0.0683 -0.7873 -0.7453
 2684TIP3    H232248   2.730   1.905   9.492  0.5815  1.1940 -1.0232
 2685TIP3   OH232249   4.739   3.608   8.317 -0.1516  0.1401  0.2748
 2685TIP3    H132250   4.740   3.674   8.387  0.6260 -0.7211  1.0915
 2685TIP3    H232251   4.679   3.541   8.348  0.5436 -0.4644  0.3456
 2686TIP3   OH232252   5.314   2.152   7.284  0.0437 -0.0107  0.7524
 2686TIP3    H132253   5.239   2.211   7.290  0.1935  0.2923 -0.1858
 2686TIP3    H232254   5.364   2.185   7.209 -0.5809 -2.1500 -0.6833
 2687TIP3   OH232255   5.145   5.020   8.875 -0.6800 -0.4678  0.1627
 2687TIP3    H132256   5.064   5.046   8.920 -1.2598 -2.4315  0.3381
 2687TIP3    H232257   5.179   5.102   8.839 -1.9811  0.6372  1.3016
 2688TIP3   OH232258   4.938   2.214   7.114  0.8379 -0.0650  0.3286
 2688TIP3    H132259   4.852   2.173   7.127  1.1613 -0.6510  0.6131
 2688TIP3    H232260   4.955   2.204   7.020  0.5190  0.2117  0.2365
 2689TIP3   OH232261   7.034   6.834   7.131 -0.1400 -0.1054 -0.0269
 2689TIP3    H132262   7.114   6.833   7.079  0.6113  1.3948  1.0181
 2689TIP3    H232263   7.029   6.923   7.166 -1.2373 -0.7066  1.4815
 2690TIP3   OH232264   2.212   5.991   7.941  0.0896  0.0442 -0.3306
 2690TIP3    H132265   2.246   6.079   7.957  0.7158  0.0307 -1.4435
 2690TIP3    H232266   2.257   5.963   7.861  0.8652 -1.7820  0.6793
 2691TIP3   OH232267   6.280   0.892   9.291 -0.2264  0.3820  0.0189
 2691TIP3    H132268   6.304   0.801   9.275  1.0927  0.5489  0.8755
 2691TIP3    H232269   6.257   0.896   9.384 -0.9406  0.7978 -0.1651
 2692TIP3   OH232270   7.333   1.229   8.932  0.0099  0.4889  0.1757
 2692TIP3    H132271   7.406   1.197   8.985  2.1175  1.2731 -2.0863
 2692TIP3    H232272   7.313   1.157   8.873  0.7565  1.1523 -0.9329
 2693TIP3   OH232273   5.313   3.834   8.142 -0.0988 -0.7393  0.0628
 2693TIP3    H132274   5.298   3.747   8.178  0.1006 -1.0281 -0.5433
 2693TIP3    H232275   5.225   3.874   8.139  0.1298  0.2007  3.0729
 2694TIP3   OH232276   6.505   1.344   8.018 -0.1410 -0.2832 -0.3159
 2694TIP3    H132277   6.504   1.266   7.962 -2.3939 -0.3545 -0.2714
 2694TIP3    H232278   6.548   1.316   8.099 -1.7259 -1.7715  0.0508
 2695TIP3   OH232279   0.381   6.593   8.226  0.7866 -0.4524 -0.4601
 2695TIP3    H132280   0.377   6.503   8.259  0.4622  0.0145  0.8154
 2695TIP3    H232281   0.341   6.646   8.295  0.7455  0.6503 -1.3056
 2696TIP3   OH232282   0.223   3.247   7.849  0.0763  0.1826  0.8374
 2696TIP3    H132283   0.264   3.325   7.813 -0.9699  0.5188  0.3087
 2696TIP3    H232284   0.143   3.279   7.890 -0.6920 -0.6588  0.0577
 2697TIP3   OH232285   0.616   6.715   7.743 -0.4423  0.2769 -0.1914
 2697TIP3    H132286   0.577   6.628   7.731 -0.0688  0.1110 -0.2448
 2697TIP3    H232287   0.668   6.728   7.663 -0.6836  0.6487 -0.2856
 2698TIP3   OH232288   2.559   7.541   8.524  0.0184  0.0217  0.8606
 2698TIP3    H132289   2.496   7.539   8.596 -1.6555 -0.4153 -0.5434
 2698TIP3    H232290   2.605   7.457   8.531 -0.1045 -0.0012  1.4383
 2699TIP3   OH232291   3.982   6.921   7.292 -0.7909 -0.2625 -0.5168
 2699TIP3    H132292   3.923   6.887   7.360 -1.5556 -1.0047 -1.5105
 2699TIP3    H232293   4.018   6.842   7.251 -0.8556  0.1653 -1.4091
 2700TIP3   OH232294   4.737   0.519   7.298 -0.4865  0.2933 -0.1123
 2700TIP3    H132295   4.725   0.541   7.390  0.7613 -0.3017  0.2142
 2700TIP3    H232296   4.767   0.428   7.299 -1.5540 -0.1105 -1.1844
 2701TIP3   OH232297   0.976   7.145   8.130  0.0369 -0.3757 -0.1762
 2701TIP3    H132298   0.892   7.180   8.159  0.6184  0.3466  0.7043
 2701TIP3    H232299   0.973   7.152   8.034 -0.3033  1.1343 -0.0880
 2702TIP3   OH232300   0.995   2.024   9.490 -1.0971 -0.2319  0.2737
 2702TIP3    H132301   1.024   2.008   9.401 -0.0890 -1.0172  0.7278
 2702TIP3    H232302   0.964   1.939   9.521 -4.1485  0.5509 -0.2209
 2703TIP3   OH232303   0.162   3.389   8.750 -0.9486  0.5951  0.1801
 2703TIP3    H132304   0.129   3.461   8.804 -0.2262  0.4446  0.8378
 2703TIP3    H232305   0.110   3.313   8.777 -1.2335  0.7207 -0.0144
 2704TIP3   OH232306   6.384   2.947   8.513 -0.1360 -0.2255  0.2926
 2704TIP3    H132307   6.442   2.942   8.437 -2.8639  1.0031 -2.0478
 2704TIP3    H232308   6.410   3.028   8.558  0.6104 -0.2437 -0.0864
 2705TIP3   OH232309   6.565   5.013   8.361  0.1037  0.5993  0.6120
 2705TIP3    H132310   6.632   4.979   8.302  0.1716 -0.0222  1.0339
 2705TIP3    H232311   6.586   5.106   8.371 -0.5464  0.9662 -1.1743
 2706TIP3   OH232312   6.431   1.716   8.466  0.6443 -0.0886  0.0197
 2706TIP3    H132313   6.486   1.731   8.390 -0.8099 -1.4713 -1.3849
 2706TIP3    H232314   6.341   1.728   8.434  0.0385  0.7793  1.8918
 2707TIP3   OH232315   5.248   3.331   7.375  1.1377 -0.6594  0.5388
 2707TIP3    H132316   5.318   3.339   7.311  0.1087  1.2069 -0.4403
 2707TIP3    H232317   5.194   3.259   7.342 -0.2207  1.2128 -1.6680
 2708TIP3   OH232318   0.600   7.621   8.474 -0.5366  0.0736 -0.2641
 2708TIP3    H132319   0.628   7.588   8.388 -0.1641  0.3025 -0.2316
 2708TIP3    H232320   0.676   7.607   8.530 -0.5564  0.5285 -0.1281
 2709TIP3   OH232321   7.561   2.310   9.333  0.8070  0.0521 -0.3526
 2709TIP3    H132322   7.611   2.348   9.261  1.7033 -0.2681  0.0935
 2709TIP3    H232323   7.590   2.356   9.411  0.8250 -0.5158 -0.0134
 2710TIP3   OH232324   3.646   5.634   7.564 -0.6310 -0.2516  0.3771
 2710TIP3    H132325   3.707   5.590   7.624  0.4099  0.9509  0.2497
 2710TIP3    H232326   3.653   5.584   7.483  0.3681 -0.0056  0.2958
 2711TIP3   OH232327   3.490   2.857   8.218  0.7007  0.3446  0.3865
 2711TIP3    H132328   3.463   2.905   8.140  0.7130  0.5570  0.5094
 2711TIP3    H232329   3.537   2.923   8.271  0.9980  0.1130  0.4120
 2712TIP3   OH232330   7.616   4.473   9.698  0.3603 -0.3274 -0.1441
 2712TIP3    H132331   7.655   4.459   9.612 -0.9440 -0.4455 -0.7329
 2712TIP3    H232332   7.688   4.457   9.759  1.0552 -1.2684 -1.1648
 2713TIP3   OH232333   0.884   5.442   7.865 -0.1134  0.2736 -0.6623
 2713TIP3    H132334   0.855   5.351   7.857  0.5260  0.1080 -1.2013
 2713TIP3    H232335   0.827   5.491   7.805  0.9078 -0.1034 -1.9924
 2714TIP3   OH232336   7.257   2.119   9.574  0.1669 -0.3757  0.2482
 2714TIP3    H132337   7.280   2.032   9.541  2.0744  0.4741 -0.7871
 2714TIP3    H232338   7.293   2.122   9.662  0.2670 -0.5803  0.2138
 2715TIP3   OH232339   1.991   7.532   7.765 -0.2601 -0.3939 -0.1825
 2715TIP3    H132340   1.907   7.528   7.720 -0.3450 -1.2260  0.0284
 2715TIP3    H232341   1.978   7.594   7.836 -0.7481 -0.6551 -0.0441
 2716TIP3   OH232342   1.215   1.699   7.229  0.2817  0.1971  0.4076
 2716TIP3    H132343   1.257   1.768   7.178 -0.2943 -0.2975 -0.7670
 2716TIP3    H232344   1.122   1.716   7.219  0.1533 -0.3658  0.6497
 2717TIP3   OH232345   5.572   0.339   7.151 -0.0339 -0.3388 -0.3432
 2717TIP3    H132346   5.576   0.420   7.101 -0.9091 -0.5204 -0.7367
 2717TIP3    H232347   5.620   0.276   7.098  1.3474  0.1028  0.3541
 2718TIP3   OH232348   4.516   5.219   8.494 -0.0763  0.3631  0.4220
 2718TIP3    H132349   4.491   5.308   8.470  0.9639  0.3813 -0.6941
 2718TIP3    H232350   4.564   5.186   8.418  1.0543 -0.5500  1.4969
 2719TIP3   OH232351   2.782   2.203   8.380 -0.1347  0.2503  0.1002
 2719TIP3    H132352   2.744   2.140   8.318  0.5771 -0.9209  0.8103
 2719TIP3    H232353   2.835   2.149   8.439  1.4841  1.6597  0.0054
 2720TIP3   OH232354   7.330   7.612   9.252  0.3557 -0.1133 -0.7403
 2720TIP3    H132355   7.372   7.529   9.275  1.7412  0.3606 -1.3941
 2720TIP3    H232356   7.270   7.630   9.324  0.3484 -1.4578 -0.3819
 2721TIP3   OH232357   1.487   4.754   9.550  0.5527 -0.2957 -0.1285
 2721TIP3    H132358   1.449   4.838   9.575 -0.5870 -1.1777  1.3016
 2721TIP3    H232359   1.413   4.704   9.516  0.6605 -1.5660  1.3905
 2722TIP3   OH232360   0.237   2.870   9.283  0.5937  0.2317  0.1328
 2722TIP3    H132361   0.252   2.810   9.210 -0.4894 -0.2153  0.2492
 2722TIP3    H232362   0.322   2.874   9.328  1.0852 -0.0286 -0.7354
 2723TIP3   OH232363   0.927   1.609   8.332 -0.5645  0.3003 -0.2179
 2723TIP3    H132364   0.866   1.593   8.261  0.1256  2.6882 -1.4206
 2723TIP3    H232365   0.967   1.694   8.313 -0.0648  0.8869  2.8250
 2724TIP3   OH232366   1.995   4.282   8.353  0.0565 -0.2900 -0.1210
 2724TIP3    H132367   1.962   4.283   8.443  0.6506 -2.1473  0.1647
 2724TIP3    H232368   2.088   4.303   8.362 -0.1287  0.7144 -0.4528
 2725TIP3   OH232369   6.926   3.358   8.799  0.0846 -0.0829 -0.2652
 2725TIP3    H132370   6.850   3.409   8.771  0.8033  0.7635 -0.7172
 2725TIP3    H232371   6.911   3.341   8.892  0.5473  2.2889  0.3066
 2726TIP3   OH232372   4.845   1.903   9.385 -0.0661 -0.0230 -0.1328
 2726TIP3    H132373   4.921   1.919   9.440  0.5449 -0.1967 -0.9153
 2726TIP3    H232374   4.812   1.818   9.413  1.5512 -1.1484 -1.4860
 2727TIP3   OH232375   5.078   5.402   9.010 -0.3080  0.2766  0.1321
 2727TIP3    H132376   5.016   5.446   9.068  0.6181  2.4300 -0.4311
 2727TIP3    H232377   5.050   5.427   8.922  0.5553  0.1511 -0.1858
 2728TIP3   OH232378   3.051   5.196   9.701  0.7212  0.8655  0.2769
 2728TIP3    H132379   3.112   5.269   9.697  1.1726  0.5014  0.4313
 2728TIP3    H232380   3.085   5.139   9.770 -1.3361  2.0201  2.3991
 2729TIP3   OH232381   6.861   5.441   7.858 -0.3102 -0.1026 -0.0210
 2729TIP3    H132382   6.885   5.402   7.942 -2.4725 -0.5966  0.4251
 2729TIP3    H232383   6.793   5.504   7.880 -1.2760 -0.6006 -1.4414
 2730TIP3   OH232384   4.265   5.872   8.108  0.3540 -0.0222  0.1456
 2730TIP3    H132385   4.360   5.880   8.122  0.6388 -1.2485 -0.8690
 2730TIP3    H232386   4.238   5.801   8.166  0.0649  0.2862  0.3898
 2731TIP3   OH232387   4.447   0.767   9.234 -0.5333 -0.9588  0.1052
 2731TIP3    H132388   4.426   0.696   9.174  2.0673 -0.7988 -1.1590
 2731TIP3    H232389   4.530   0.740   9.274  0.0862  0.9962  0.2163
 2732TIP3   OH232390   1.808   5.768   7.427  0.4588  0.0075  0.2703
 2732TIP3    H132391   1.788   5.740   7.517 -0.5051 -0.5258 -0.0809
 2732TIP3    H232392   1.875   5.707   7.397  0.9361  0.3215  0.6993
 2733TIP3   OH232393   1.593   6.174   8.931  0.2697  0.5251  0.2273
 2733TIP3    H132394   1.530   6.171   8.859  0.5100  3.4166 -0.2178
 2733TIP3    H232395   1.593   6.085   8.966 -0.1644 -0.9205 -3.0443
 2734TIP3   OH232396   5.791   0.203   7.973  0.0849  0.0289 -0.0730
 2734TIP3    H132397   5.739   0.270   7.928 -0.6851 -0.3987  0.1729
 2734TIP3    H232398   5.727   0.139   8.004  0.8762 -1.4476 -1.2962
 2735TIP3   OH232399   5.130   6.032   6.867 -0.2392 -0.1227  0.2598
 2735TIP3    H132400   5.051   5.984   6.845  0.1325  0.1391 -1.8083
 2735TIP3    H232401   5.099   6.109   6.914 -1.1293 -0.4935  0.2978
 2736TIP3   OH232402   3.542   7.408   7.471  0.0591  0.0447 -0.4270
 2736TIP3    H132403   3.542   7.483   7.530  0.8220  0.9924 -1.5897
 2736TIP3    H232404   3.477   7.348   7.508 -1.9398  2.0684 -0.4876
 2737TIP3   OH232405   2.625   3.661   8.696  0.0352 -0.0431 -0.1290
 2737TIP3    H132406   2.568   3.695   8.766  0.7613  1.0870 -0.0575
 2737TIP3    H232407   2.565   3.642   8.623 -0.6688 -0.7597  0.6010
 2738TIP3   OH232408   2.628   7.203   8.879 -0.1735 -0.0541  0.4384
 2738TIP3    H132409   2.543   7.242   8.900  0.1448  1.0995 -0.3120
 2738TIP3    H232410   2.689   7.245   8.940 -0.3397 -2.0248  2.0538
 2739TIP3   OH232411   5.373   3.454   9.190  0.7003 -0.5182  0.1685
 2739TIP3    H132412   5.468   3.445   9.197  0.7027 -0.1064  0.6923
 2739TIP3    H232413   5.341   3.364   9.184  0.8806 -0.8823  3.3753
 2740TIP3   OH232414   4.736   2.722   8.066  0.4298  0.1032 -0.6536
 2740TIP3    H132415   4.810   2.667   8.092  1.2098  1.1015 -0.7159
 2740TIP3    H232416   4.703   2.681   7.986  0.5865 -0.6320 -0.3546
 2741TIP3   OH232417   5.203   2.438   8.814 -0.0856  0.0996 -0.9554
 2741TIP3    H132418   5.137   2.376   8.783 -1.2277  1.6837 -1.8933
 2741TIP3    H232419   5.284   2.411   8.771 -0.0678 -1.8900  0.2261
 2742TIP3   OH232420   5.186   5.715   6.580 -0.8663  0.3643  0.0296
 2742TIP3    H132421   5.261   5.773   6.566  0.0921 -0.7027  0.5099
 2742TIP3    H232422   5.133   5.759   6.647 -0.5317  1.0135 -0.1286
 2743TIP3   OH232423   3.329   2.927   9.475 -0.2264 -0.3100  0.0257
 2743TIP3    H132424   3.301   2.929   9.567  2.3437 -0.0728  0.9050
 2743TIP3    H232425   3.283   3.001   9.435 -0.3934  0.4188  1.4720
 2744TIP3   OH232426   6.732   1.172   6.489 -0.0792 -0.4372 -0.1095
 2744TIP3    H132427   6.822   1.195   6.466 -0.7752  1.5548 -1.0581
 2744TIP3    H232428   6.722   1.203   6.579 -0.4031  1.3111 -0.7085
 2745TIP3   OH232429   4.195   7.567   7.194  0.4402 -0.1611 -0.4698
 2745TIP3    H132430   4.182   7.475   7.171  0.5344 -0.5627  0.9495
 2745TIP3    H232431   4.109   7.596   7.226  1.0781 -0.6945  1.9927
 2746TIP3   OH232432   0.254   4.293   7.585 -0.3884  0.2809  0.3172
 2746TIP3    H132433   0.347   4.296   7.609 -0.5594  0.1795  1.0398
 2746TIP3    H232434   0.244   4.211   7.536 -0.1547  0.1200  0.5314
 2747TIP3   OH232435   3.140   1.082   7.410 -0.4838 -0.0681  0.3868
 2747TIP3    H132436   3.190   1.108   7.333  0.7011  4.9675  2.4019
 2747TIP3    H232437   3.055   1.124   7.399  0.0735  1.6936  2.0927
 2748TIP3   OH232438   3.529   6.626   8.717  0.4314  0.7327 -0.1891
 2748TIP3    H132439   3.457   6.659   8.770 -0.7263 -0.6106 -0.8332
 2748TIP3    H232440   3.498   6.634   8.627  0.4700 -1.1056 -0.4143
 2749TIP3   OH232441   3.316   1.163   7.208 -0.5954 -0.0906  0.1809
 2749TIP3    H132442   3.340   1.096   7.144  1.2349  0.0561  0.6488
 2749TIP3    H232443   3.310   1.243   7.157 -0.6757 -0.2375 -0.0443
 2750TIP3   OH232444   4.579   1.167   7.818 -0.2461  0.3932 -0.3410
 2750TIP3    H132445   4.664   1.173   7.861  0.4497  0.4354 -1.6618
 2750TIP3    H232446   4.582   1.083   7.771  0.7517  2.1110 -3.6869
 2751TIP3   OH232447   3.254   0.733   7.708  0.6474  0.3536  0.1821
 2751TIP3    H132448   3.348   0.738   7.692  0.6061 -0.7186 -0.5203
 2751TIP3    H232449   3.220   0.818   7.681  1.1110 -0.0632 -1.8476
 2752TIP3   OH232450   7.182   4.498   8.730 -0.4157  0.3984  0.0629
 2752TIP3    H132451   7.183   4.424   8.792 -1.1258 -0.2411 -0.6648
 2752TIP3    H232452   7.274   4.517   8.715 -0.2059 -0.6231 -0.0536
 2753TIP3   OH232453   4.545   4.812   7.323  0.8315  0.1884  1.0013
 2753TIP3    H132454   4.522   4.830   7.232 -0.2301  1.0469  1.4189
 2753TIP3    H232455   4.503   4.728   7.343 -1.6377  1.4759  1.5898
 2754TIP3   OH232456   5.524   0.803   9.126  0.4300  0.1889 -0.3832
 2754TIP3    H132457   5.480   0.844   9.201  1.4999 -1.8241  1.4731
 2754TIP3    H232458   5.460   0.741   9.092 -0.1725  1.3228 -1.4268
 2755TIP3   OH232459   0.441   2.231   9.383  0.0964  0.0501 -0.2107
 2755TIP3    H132460   0.447   2.136   9.390 -0.2111 -0.2771 -3.0296
 2755TIP3    H232461   0.501   2.253   9.312 -0.0164  1.9498  0.2315
 2756TIP3   OH232462   5.440   1.577   7.575 -0.7709  0.2077  0.5861
 2756TIP3    H132463   5.482   1.620   7.500 -1.0005 -0.0768  0.2930
 2756TIP3    H232464   5.389   1.506   7.536 -2.5153  1.2845  0.7986
 2757TIP3   OH232465   1.382   7.178   7.047  0.2707  0.5860  0.2487
 2757TIP3    H132466   1.289   7.157   7.036 -0.1859  2.3646  0.4436
 2757TIP3    H232467   1.416   7.190   6.959  0.1735  0.5357  0.2047
 2758TIP3   OH232468   0.649   4.646   8.274  0.3678 -0.2080  0.1077
 2758TIP3    H132469   0.693   4.563   8.256  1.1373  0.0530  0.7669
 2758TIP3    H232470   0.568   4.621   8.319  2.0806 -0.5064  3.2827
 2759TIP3   OH232471   6.799   2.287   9.452 -0.5610  0.0840  0.2774
 2759TIP3    H132472   6.767   2.280   9.362  0.0779  0.2928  0.0249
 2759TIP3    H232473   6.736   2.238   9.505 -1.5691  0.9100 -0.1339
 2760TIP3   OH232474   2.694   2.454   8.310  0.5104 -0.4765 -0.3246
 2760TIP3    H132475   2.718   2.418   8.225  3.4696 -1.4367  0.7654
 2760TIP3    H232476   2.689   2.377   8.368  0.8125  0.3190  0.7925
 2761TIP3   OH232477   5.427   7.028   6.858  0.8796 -0.1000  0.4283
 2761TIP3    H132478   5.445   6.944   6.816  0.2466  0.1852 -0.4375
 2761TIP3    H232479   5.501   7.084   6.834 -0.3933  0.6737 -2.0385
 2762TIP3   OH232480   1.885   4.645   7.707 -0.1540  0.3131 -0.4757
 2762TIP3    H132481   1.925   4.722   7.747 -0.1859 -0.2670  0.7111
 2762TIP3    H232482   1.846   4.598   7.780 -0.3361 -0.7182 -1.2186
 2763TIP3   OH232483   2.533   3.083   8.741 -0.0434 -0.0954 -0.5666
 2763TIP3    H132484   2.465   3.068   8.807 -0.2681  1.9028 -0.3045
 2763TIP3    H232485   2.486   3.109   8.663  0.3824  0.9349 -0.4924
 2764TIP3   OH232486   0.512   1.285   8.210  0.2911  0.4523  0.3285
 2764TIP3    H132487   0.543   1.209   8.162  1.0543  0.6016  0.5685
 2764TIP3    H232488   0.579   1.301   8.277 -0.0158  1.1379  0.4874
 2765TIP3   OH232489   3.060   1.805   7.876  0.6964  0.0318 -0.3545
 2765TIP3    H132490   3.074   1.841   7.789 -0.9996  0.2956 -0.5612
 2765TIP3    H232491   3.131   1.743   7.889  0.5961 -0.5174 -2.2155
 2766TIP3   OH232492   5.994   7.013   8.520  0.7918  0.4234  0.6386
 2766TIP3    H132493   6.017   6.987   8.431 -0.3164  0.6597  0.2756
 2766TIP3    H232494   5.948   7.097   8.510 -0.5459 -0.1973  1.2924
 2767TIP3   OH232495   7.059   5.882   6.780  0.1746  0.5002 -0.1949
 2767TIP3    H132496   7.107   5.877   6.697  0.6550  1.5557 -0.0015
 2767TIP3    H232497   7.121   5.920   6.842  0.1901 -1.3562  0.9774
 2768TIP3   OH232498   4.418   7.625   9.188 -0.4662 -0.7738 -1.1525
 2768TIP3    H132499   4.327   7.654   9.187 -0.5657 -0.9478  0.6519
 2768TIP3    H232500   4.468   7.702   9.158 -1.0515  0.0086 -0.1922
 2769TIP3   OH232501   2.399   6.436   8.910  0.5151 -0.3817 -0.1544
 2769TIP3    H132502   2.329   6.501   8.903 -0.0612 -0.9395  0.3715
 2769TIP3    H232503   2.466   6.478   8.965  0.4060 -0.0118 -0.3046
 2770TIP3   OH232504   4.761   5.892   7.610 -0.5601  0.3605 -0.4630
 2770TIP3    H132505   4.733   5.832   7.678  1.2317 -0.5370 -0.4431
 2770TIP3    H232506   4.731   5.852   7.528 -0.9569  0.3878 -0.3294
 2771TIP3   OH232507   3.787   6.551   9.581  0.4064 -0.0982 -0.0634
 2771TIP3    H132508   3.799   6.605   9.503 -1.4916 -1.5668 -1.4768
 2771TIP3    H232509   3.715   6.594   9.628  0.3354 -0.2130 -0.0676
 2772TIP3   OH232510   3.734   3.878   8.381 -0.5577 -0.5016 -0.3378
 2772TIP3    H132511   3.807   3.827   8.346  0.0792 -0.8242  1.3798
 2772TIP3    H232512   3.697   3.824   8.451 -2.6437 -0.4621 -1.3221
 2773TIP3   OH232513   0.261   3.772   9.219  0.1037  0.3421 -0.0983
 2773TIP3    H132514   0.192   3.838   9.223  1.4223  1.7032  1.6229
 2773TIP3    H232515   0.340   3.821   9.196  0.5983 -1.1600 -1.9487
 2774TIP3   OH232516   0.811   2.188   8.989 -0.1957  0.2378  0.0638
 2774TIP3    H132517   0.875   2.193   9.059  0.7660  0.5028 -0.8042
 2774TIP3    H232518   0.832   2.263   8.932 -0.2325 -0.5885 -1.0850
 2775TIP3   OH232519   6.877   1.135   8.983 -0.2887 -0.3497 -0.2620
 2775TIP3    H132520   6.821   1.213   8.986  0.5677  0.2739  2.4175
 2775TIP3    H232521   6.818   1.062   9.005 -0.3278  0.1376  1.3381
 2776TIP3   OH232522   1.648   6.062   7.564 -0.2859 -0.3230 -0.3942
 2776TIP3    H132523   1.646   6.143   7.616  2.8587  0.0301 -0.6242
 2776TIP3    H232524   1.577   6.073   7.500 -1.7361  0.9581  1.3341
 2777TIP3   OH232525   5.128   5.899   8.234 -0.1453  0.3702  0.0266
 2777TIP3    H132526   5.147   5.909   8.141  0.8059  0.6811  0.2477
 2777TIP3    H232527   5.136   5.805   8.250 -1.6605  0.1307 -0.4768
 2778TIP3   OH232528   1.238   0.351   9.138  0.7472  0.1501  0.1849
 2778TIP3    H132529   1.169   0.410   9.168  0.5318  0.5004 -0.9529
 2778TIP3    H232530   1.266   0.387   9.054  0.6917 -1.2958 -0.4882
 2779TIP3   OH232531   5.346   6.637   8.926  0.3859 -0.4894 -0.1780
 2779TIP3    H132532   5.336   6.732   8.928  2.4116 -0.1131 -2.5003
 2779TIP3    H232533   5.407   6.618   8.997  1.0495  0.1505 -0.5660
 2780TIP3   OH232534   2.552   3.415   7.163  0.8187  0.2554 -0.4080
 2780TIP3    H132535   2.499   3.421   7.242  0.0064  1.1722 -1.0053
 2780TIP3    H232536   2.594   3.500   7.155  1.1210  0.0715 -0.8098
 2781TIP3   OH232537   4.835   5.598   7.088  0.2691  0.1396 -0.2802
 2781TIP3    H132538   4.881   5.538   7.029  0.5579  0.9403 -0.9091
 2781TIP3    H232539   4.753   5.617   7.043  0.4241  0.6360 -0.3699
 2782TIP3   OH232540   1.469   4.166   7.839 -0.4083 -0.3375  0.3198
 2782TIP3    H132541   1.381   4.186   7.871 -1.1052 -1.1701 -1.0003
 2782TIP3    H232542   1.464   4.180   7.744  1.1504  0.4976  0.3257
 2783TIP3   OH232543   3.932   0.021   9.006  0.2396  0.2718  0.0713
 2783TIP3    H132544   3.933   0.091   8.940 -1.1863  0.3618  0.1303
 2783TIP3    H232545   3.893  -0.054   8.961  0.0952  0.0572  0.5581
 2784TIP3   OH232546   6.713   3.783   8.227  0.0893 -0.0661  0.4498
 2784TIP3    H132547   6.724   3.708   8.169 -0.0190  1.1548 -1.2532
 2784TIP3    H232548   6.798   3.827   8.225 -0.1946  0.4971  0.4452
 2785TIP3   OH232549   2.941   7.068   7.461 -0.1718 -0.3785  0.0928
 2785TIP3    H132550   2.897   6.989   7.430 -0.2252 -0.5712  0.6445
 2785TIP3    H232551   2.930   7.131   7.391 -1.0018 -0.5437  0.0654
 2786TIP3   OH232552   3.310   3.578   6.839  0.2778  0.5115 -0.6838
 2786TIP3    H132553   3.318   3.670   6.866 -1.0800  0.4340  0.0796
 2786TIP3    H232554   3.220   3.571   6.806 -0.5725 -1.1244  1.7311
 2787TIP3   OH232555   6.516   6.425   8.391 -0.4747 -0.5515  0.6472
 2787TIP3    H132556   6.568   6.493   8.348 -0.7068 -0.6058  0.2738
 2787TIP3    H232557   6.426   6.443   8.365 -0.3267 -2.3191 -1.3390
 2788TIP3   OH232558   0.700   1.746   9.001 -0.5187 -0.7172  0.2133
 2788TIP3    H132559   0.680   1.793   9.082 -0.0602 -0.0175 -0.0716
 2788TIP3    H232560   0.726   1.814   8.939  1.4123 -1.4441  0.1594
 2789TIP3   OH232561   4.226   6.571   8.978  0.3528 -0.5088 -0.4195
 2789TIP3    H132562   4.232   6.480   9.006  2.5843 -0.2490  0.1227
 2789TIP3    H232563   4.317   6.599   8.964 -0.1642  1.9420  0.4679
 2790TIP3   OH232564   6.012   0.810   9.457  0.1481  0.0270  0.2079
 2790TIP3    H132565   5.919   0.799   9.477 -0.3682  0.5330 -1.6859
 2790TIP3    H232566   6.035   0.896   9.492 -0.3219  0.2549 -0.0329
 2791TIP3   OH232567   0.314   3.592   8.998  0.3380 -0.2250  0.2892
 2791TIP3    H132568   0.316   3.685   8.977  0.4482 -0.3269 -0.1611
 2791TIP3    H232569   0.270   3.588   9.083 -1.7581  0.0424 -0.7136
 2792TIP3   OH232570   5.983   5.477   7.265 -0.3760  0.0454  0.1474
 2792TIP3    H132571   6.039   5.536   7.214 -0.7211 -0.2545 -0.5786
 2792TIP3    H232572   5.985   5.394   7.218 -0.3761 -0.3553  0.8426
 2793TIP3   OH232573   5.913   1.044   7.334  0.5714  0.3590 -0.4253
 2793TIP3    H132574   5.896   1.083   7.249  0.9053 -0.5704 -0.9331
 2793TIP3    H232575   5.918   0.950   7.317  1.1067  0.1952  0.5338
 2794TIP3   OH232576   3.781   0.279   8.045  0.1955  0.3972  0.2039
 2794TIP3    H132577   3.794   0.184   8.043  1.4256  0.5631 -1.0582
 2794TIP3    H232578   3.707   0.291   8.105  0.6364 -1.2725  1.1671
 2795TIP3   OH232579   1.940   0.363   7.587  0.7003 -0.6704 -0.6667
 2795TIP3    H132580   1.853   0.334   7.559 -0.5552  2.5664 -0.5338
 2795TIP3    H232581   1.945   0.337   7.679 -0.2742 -0.6021 -0.5853
 2796TIP3   OH232582   2.624   6.742   8.125  0.3272 -0.1321  0.4653
 2796TIP3    H132583   2.690   6.700   8.179  2.5769  1.8065 -0.5922
 2796TIP3    H232584   2.600   6.821   8.172  1.4386  0.9713 -0.7468
 2797TIP3   OH232585   5.457   4.903   8.007  0.1452  0.0796  0.6594
 2797TIP3    H132586   5.485   4.988   8.043 -0.1739  0.7834 -0.6927
 2797TIP3    H232587   5.364   4.898   8.027 -0.1690  0.7475 -0.5230
 2798TIP3   OH232588   1.530   4.398   8.512 -0.2473 -0.3477 -0.4162
 2798TIP3    H132589   1.599   4.359   8.566 -0.2164  0.8603  0.4466
 2798TIP3    H232590   1.551   4.369   8.423  0.5929 -1.1097  0.0102
 2799TIP3   OH232591   4.193   0.297   9.266  0.0230 -0.3277 -0.5619
 2799TIP3    H132592   4.154   0.327   9.183 -0.5869 -0.6000 -0.3823
 2799TIP3    H232593   4.283   0.329   9.263  0.1993 -0.8723 -1.6130
 2800TIP3   OH232594   0.549   6.862   9.025 -0.0391 -0.2453 -0.1268
 2800TIP3    H132595   0.571   6.837   8.935  1.0950  1.4353 -0.3669
 2800TIP3    H232596   0.574   6.787   9.078 -0.9119 -1.3466 -1.2059
 2801TIP3   OH232597   3.159   7.052   9.069  0.5061  0.0898 -0.6107
 2801TIP3    H132598   3.251   7.077   9.064  0.8831 -1.2853 -1.0623
 2801TIP3    H232599   3.160   6.958   9.085 -0.8050 -0.2863 -2.3799
 2802TIP3   OH232600   6.704   4.255   7.420 -0.1356  0.6880 -0.0460
 2802TIP3    H132601   6.777   4.303   7.460 -0.9093  0.5817  1.5416
 2802TIP3    H232602   6.645   4.235   7.492 -1.0125 -0.5691 -1.0596
 2803TIP3   OH232603   7.474   5.556   8.426 -0.3956 -0.1825  0.2320
 2803TIP3    H132604   7.493   5.495   8.354 -0.5510 -0.0797  0.1016
 2803TIP3    H232605   7.549   5.547   8.485 -0.5600 -0.7197  0.3657
 2804TIP3   OH232606   6.734   6.009   8.482 -0.4080 -0.0260 -0.4853
 2804TIP3    H132607   6.819   5.973   8.457 -0.4987 -1.0764  0.6268
 2804TIP3    H232608   6.670   5.951   8.441 -0.5774  0.1040 -0.4049
 2805TIP3   OH232609   1.468   3.477   8.842 -0.0107 -0.3045 -0.5967
 2805TIP3    H132610   1.524   3.552   8.822  2.2418 -2.1000 -1.4472
 2805TIP3    H232611   1.380   3.514   8.851  0.9996  2.3953 -1.0527
 2806TIP3   OH232612   5.386   0.014   7.170  0.4417 -0.1829 -0.3135
 2806TIP3    H132613   5.320  -0.049   7.140  0.8451 -0.4519 -0.6381
 2806TIP3    H232614   5.431   0.041   7.090  2.2534 -1.7069  0.1126
 2807TIP3   OH232615   4.625   2.130   7.594 -0.1992 -0.3833  0.3678
 2807TIP3    H132616   4.627   2.094   7.683  1.9220  1.4055  1.1321
 2807TIP3    H232617   4.680   2.070   7.543 -1.5526 -1.5066  0.1425
 2808TIP3   OH232618   7.483   4.241   8.137 -0.1878  0.1888 -0.9034
 2808TIP3    H132619   7.511   4.263   8.049 -1.3129  0.2633 -1.2667
 2808TIP3    H232620   7.462   4.147   8.133 -0.7601  0.3117 -0.8684
 2809TIP3   OH232621   6.182   2.093   9.495 -0.5669 -0.2024 -0.1186
 2809TIP3    H132622   6.103   2.115   9.544 -1.0284 -1.3727 -0.3063
 2809TIP3    H232623   6.150   2.054   9.413  0.1937 -0.9080 -0.0945
 2810TIP3   OH232624   4.416   3.227   7.345 -0.3804  0.1840 -0.1978
 2810TIP3    H132625   4.402   3.150   7.288  0.3762 -0.2177  0.1421
 2810TIP3    H232626   4.437   3.297   7.284 -0.9679  0.1045 -0.5066
 2811TIP3   OH232627   3.547   5.343   9.041 -0.0770 -0.3281  0.0061
 2811TIP3    H132628   3.628   5.393   9.042  2.2812 -3.6741 -2.4428
 2811TIP3    H232629   3.551   5.288   9.119 -0.9391  0.6566  0.7894
 2812TIP3   OH232630   2.720   3.030   8.427  0.4616 -0.9066 -0.2324
 2812TIP3    H132631   2.675   3.032   8.511  1.1135 -0.3236  0.1157
 2812TIP3    H232632   2.667   2.972   8.372 -0.0652 -1.1463  0.5209
 2813TIP3   OH232633   3.133   0.753   8.388  0.3076  0.3536  0.7539
 2813TIP3    H132634   3.185   0.673   8.381  1.8110  1.4314 -1.7795
 2813TIP3    H232635   3.187   0.812   8.441  0.1343  0.3790  0.9032
 2814TIP3   OH232636   1.748   4.376   6.922  0.1162  0.2756 -0.0950
 2814TIP3    H132637   1.674   4.328   6.884 -1.3744  1.5251  1.1050
 2814TIP3    H232638   1.804   4.397   6.847 -1.3047  0.2334 -1.2064
 2815TIP3   OH232639   3.145   3.314   6.615  0.1234 -0.1540 -0.1770
 2815TIP3    H132640   3.097   3.389   6.651  0.0610 -0.0087 -0.5589
 2815TIP3    H232641   3.226   3.352   6.581  0.7940 -0.4796  0.9927
 2816TIP3   OH232642   0.432   6.434   9.177  0.3419 -0.2012  0.5327
 2816TIP3    H132643   0.436   6.386   9.259  1.8266  0.4220  0.8566
 2816TIP3    H232644   0.489   6.386   9.117 -2.2042 -1.7776 -0.8256
 2817TIP3   OH232645   2.432   2.813   6.786 -0.2633  0.0526  0.2956
 2817TIP3    H132646   2.526   2.798   6.799  0.0435 -0.0253 -1.6459
 2817TIP3    H232647   2.397   2.727   6.765 -0.8171  0.0593  1.1564
 2818TIP3   OH232648   5.974   1.831   8.730  0.3634  0.3953  0.1096
 2818TIP3    H132649   5.944   1.913   8.692  1.9474  0.8914 -0.1276
 2818TIP3    H232650   6.013   1.783   8.657  0.4717 -0.0638  0.4621
 2819TIP3   OH232651   1.719   6.264   8.000  0.0439  0.1989  0.3644
 2819TIP3    H132652   1.684   6.239   7.915  2.2177 -1.1606 -0.2072
 2819TIP3    H232653   1.807   6.295   7.982  0.7733 -0.6797  2.1811
 2820TIP3   OH232654   0.596   3.858   9.123  0.9592 -0.2124 -0.0082
 2820TIP3    H132655   0.672   3.878   9.177  0.9839  0.1758 -0.1788
 2820TIP3    H232656   0.632   3.823   9.042  0.9422 -0.3381  0.0387
 2821TIP3   OH232657   4.306   2.087   7.222 -0.0789  0.0855 -0.3687
 2821TIP3    H132658   4.269   2.020   7.164  1.4992 -0.3299 -0.9663
 2821TIP3    H232659   4.384   2.045   7.259  0.4382  1.2907 -0.0540
 2822TIP3   OH232660   1.349   4.857   6.869  0.4323 -0.3196  0.2477
 2822TIP3    H132661   1.322   4.894   6.785  1.5779  1.1883  0.4843
 2822TIP3    H232662   1.436   4.820   6.852  0.9199  0.4915  0.8483
 2823TIP3   OH232663   2.315   6.355   8.200 -0.0356 -0.1856  0.4113
 2823TIP3    H132664   2.259   6.282   8.225 -0.6998  0.1030 -0.1853
 2823TIP3    H232665   2.345   6.392   8.283 -0.9651 -0.1666  0.7517
 2824TIP3   OH232666   4.893   7.181   9.597 -0.5456 -0.3125 -0.2207
 2824TIP3    H132667   4.806   7.205   9.566 -0.6519  0.6804  0.7891
 2824TIP3    H232668   4.948   7.256   9.575 -0.3939 -0.0604  0.9473
 2825TIP3   OH232669   2.810   2.485   9.262 -0.1258 -0.3500  0.0310
 2825TIP3    H132670   2.875   2.438   9.210 -0.0399  1.5545 -1.7255
 2825TIP3    H232671   2.733   2.491   9.205 -0.7704  0.0181  0.9121
 2826TIP3   OH232672   1.058   3.090   7.741  0.1994 -0.2757 -0.6180
 2826TIP3    H132673   1.068   3.006   7.695  2.5778 -0.5468  0.2478
 2826TIP3    H232674   1.127   3.089   7.807  0.5111  2.4952 -0.7880
 2827TIP3   OH232675   6.393   4.816   7.907  0.6313  0.0365 -0.4742
 2827TIP3    H132676   6.322   4.843   7.848 -1.1319 -1.8976  0.6306
 2827TIP3    H232677   6.379   4.867   7.986  2.5609  2.0952 -1.3702
 2828TIP3   OH232678   2.323   3.550   8.196 -0.1028 -0.1800  0.1646
 2828TIP3    H132679   2.282   3.477   8.150  0.0500 -0.5197  0.5564
 2828TIP3    H232680   2.261   3.571   8.266 -1.1829  1.4886 -1.2271
 2829TIP3   OH232681   0.449   6.113   8.457 -0.6184 -0.0866 -0.0009
 2829TIP3    H132682   0.380   6.088   8.519 -0.8828  0.5882 -0.0212
 2829TIP3    H232683   0.526   6.127   8.511 -0.8647  0.5600  0.1850
 2830TIP3   OH232684   6.100   7.437   8.347  0.8440  0.6165 -0.2874
 2830TIP3    H132685   6.191   7.442   8.377  1.0809  1.1126 -1.0880
 2830TIP3    H232686   6.093   7.504   8.279  0.0046  0.2638 -0.5541
 2831TIP3   OH232687   6.396   0.344   9.244  0.0108  0.6925  0.4099
 2831TIP3    H132688   6.306   0.341   9.277  0.2995  1.1338  1.2640
 2831TIP3    H232689   6.450   0.326   9.321  0.6177 -1.0075 -0.3713
 2832TIP3   OH232690   0.554   7.185   8.362 -0.1816  0.2836 -0.3083
 2832TIP3    H132691   0.479   7.130   8.339 -0.5952  0.7569 -0.0944
 2832TIP3    H232692   0.591   7.143   8.440  0.0296 -0.1860 -0.6554
 2833TIP3   OH232693   4.286   3.339   7.802 -0.0303  0.1287 -0.1936
 2833TIP3    H132694   4.194   3.361   7.811 -0.1693 -0.8061  0.9065
 2833TIP3    H232695   4.286   3.259   7.749  0.2110  0.5135 -0.7918
 2834TIP3   OH232696   4.429   0.281   8.658  0.0596 -0.0450  0.5419
 2834TIP3    H132697   4.488   0.241   8.593  0.6619  0.8835  0.5049
 2834TIP3    H232698   4.484   0.343   8.705 -0.9941  1.1602  0.2224
 2835TIP3   OH232699   2.619   5.374   7.613 -0.2149 -0.0134 -0.3637
 2835TIP3    H132700   2.552   5.355   7.547  1.1150  0.0697 -1.7979
 2835TIP3    H232701   2.655   5.459   7.587  0.0030  0.2604  0.7800
 2836TIP3   OH232702   4.596   1.920   7.022 -0.1675 -0.7259 -0.5681
 2836TIP3    H132703   4.542   1.979   6.969  0.2110 -1.5802 -1.9769
 2836TIP3    H232704   4.661   1.977   7.062  0.9829 -0.2713 -2.8987
 2837TIP3   OH232705   3.638   5.927   7.922  0.7993  0.2828 -0.8186
 2837TIP3    H132706   3.546   5.950   7.915  1.1703  2.0546 -0.2462
 2837TIP3    H232707   3.659   5.939   8.015  1.5806 -0.2527 -0.9143
 2838TIP3   OH232708   1.162   7.465   8.142  0.4354 -0.4342  0.4329
 2838TIP3    H132709   1.196   7.540   8.190  1.4296 -0.3474 -0.3813
 2838TIP3    H232710   1.161   7.394   8.207  0.5373 -0.0003  0.9176
 2839TIP3   OH232711   6.762   1.013   8.735 -0.1799  0.5858  0.7639
 2839TIP3    H132712   6.717   1.069   8.797  0.8076  0.3407  1.7429
 2839TIP3    H232713   6.803   0.945   8.789  1.8798  1.1501  0.0393
 2840TIP3   OH232714   5.295   2.467   7.495  0.2844 -0.1167 -0.9986
 2840TIP3    H132715   5.279   2.489   7.587 -0.7743 -0.7394 -1.0209
 2840TIP3    H232716   5.208   2.460   7.457  0.6758 -1.4057 -1.6808
 2841TIP3   OH232717   5.222   5.828   7.957  0.0766  0.3660  0.8842
 2841TIP3    H132718   5.315   5.850   7.946  0.2630  0.0883  1.7628
 2841TIP3    H232719   5.205   5.762   7.891  0.0389  1.6450 -0.4324
 2842TIP3   OH232720   4.799   5.481   7.347  0.2113 -0.7001  0.1909
 2842TIP3    H132721   4.837   5.395   7.333  1.4936  0.0745 -1.5104
 2842TIP3    H232722   4.797   5.521   7.260  0.6252  1.3634  1.0719
 2843TIP3   OH232723   2.909   0.039   7.965 -0.2063  0.0003 -0.0757
 2843TIP3    H132724   2.973  -0.031   7.954 -0.8801 -0.5666 -0.5277
 2843TIP3    H232725   2.917   0.091   7.885 -1.4536 -1.0549 -0.9294
 2844TIP3   OH232726   1.400   4.723   8.279 -0.5163 -0.2096 -0.0109
 2844TIP3    H132727   1.424   4.631   8.262  0.7413  0.1861 -0.4745
 2844TIP3    H232728   1.482   4.771   8.270 -1.4140  1.1664 -1.2569
 2845TIP3   OH232729   7.538   2.579   7.852  0.2025  0.1214 -0.0969
 2845TIP3    H132730   7.629   2.583   7.881  0.6528  0.4452 -1.4664
 2845TIP3    H232731   7.499   2.510   7.906  1.2119  0.0815  0.6155
 2846TIP3   OH232732   0.237   6.907   9.297 -0.5801  0.2760  0.2797
 2846TIP3    H132733   0.215   7.000   9.307 -0.3488  0.4683 -0.8402
 2846TIP3    H232734   0.303   6.906   9.228 -1.4619 -0.8237 -0.5864
 2847TIP3   OH232735   2.523   4.777   8.123  0.2364 -0.3119 -0.2154
 2847TIP3    H132736   2.431   4.782   8.149  0.4036  0.4119  0.2494
 2847TIP3    H232737   2.553   4.868   8.122  0.6312 -0.4378 -1.5297
 2848TIP3   OH232738   2.601   1.108   7.641 -0.1658 -0.3370  0.4956
 2848TIP3    H132739   2.522   1.158   7.666  1.1811  2.5786 -0.6158
 2848TIP3    H232740   2.603   1.113   7.545 -0.2163 -3.1037  0.2773
 2849TIP3   OH232741   5.237   0.516   7.773  0.2381  0.1200 -0.5954
 2849TIP3    H132742   5.175   0.497   7.843 -0.5011 -0.8335 -1.4693
 2849TIP3    H232743   5.215   0.453   7.704  1.5995  0.3686 -1.2844
 2850TIP3   OH232744   5.604   0.186   9.115 -0.1249  0.5168 -0.4287
 2850TIP3    H132745   5.553   0.179   9.034  0.8679 -1.9683 -0.9234
 2850TIP3    H232746   5.593   0.101   9.157 -0.2601  1.6204  1.8852
 2851TIP3   OH232747   6.558   0.590   7.429  0.3351  0.0824  0.4322
 2851TIP3    H132748   6.554   0.622   7.519  1.2626  0.4973  0.3393
 2851TIP3    H232749   6.474   0.616   7.390 -0.3880 -0.7486  1.3723
 2852TIP3   OH232750   6.142   6.034   8.139 -0.0332  0.1235 -0.6882
 2852TIP3    H132751   6.136   5.939   8.151 -0.7466  0.0725 -1.3953
 2852TIP3    H232752   6.224   6.047   8.091  1.8803  0.1772  2.3136
 2853TIP3   OH232753   7.156   0.446   8.391 -0.0184  0.5407 -0.6139
 2853TIP3    H132754   7.138   0.378   8.457 -2.3692  0.5818 -1.1250
 2853TIP3    H232755   7.243   0.479   8.415 -0.8152  0.6941  2.6109
 2854TIP3   OH232756   6.513   1.852   7.660  0.2074  0.2831 -0.1051
 2854TIP3    H132757   6.594   1.902   7.661 -0.4031  1.2921  0.4465
 2854TIP3    H232758   6.460   1.894   7.592  0.2327 -0.5405 -0.6548
 2855TIP3   OH232759   5.205   3.331   8.786  0.0249  0.4605 -0.0824
 2855TIP3    H132760   5.170   3.335   8.875  1.2700  0.2136  0.4309
 2855TIP3    H232761   5.232   3.420   8.766 -0.0456  0.4727 -0.1218
 2856TIP3   OH232762   3.994   2.349   8.912 -0.4214  0.4287  0.1944
 2856TIP3    H132763   4.064   2.294   8.878 -0.2585 -0.8425  2.3491
 2856TIP3    H232764   3.947   2.381   8.835  1.5014 -0.0470 -1.2244
 2857TIP3   OH232765   4.751   5.423   8.238  0.2496  0.2486  0.2179
 2857TIP3    H132766   4.813   5.352   8.252  0.2717  0.8383  3.9757
 2857TIP3    H232767   4.675   5.380   8.198  1.2808 -1.3240 -0.1354
 2858TIP3   OH232768   5.920   1.229   6.895 -0.3929 -0.1007 -0.1933
 2858TIP3    H132769   5.981   1.303   6.900 -1.4787  0.8644 -0.8044
 2858TIP3    H232770   5.857   1.246   6.965 -0.3922 -0.7027 -0.0417
 2859TIP3   OH232771   7.108   1.714   7.884  0.0911  0.2742 -0.5712
 2859TIP3    H132772   7.058   1.767   7.946  0.6081 -0.5617  0.6020
 2859TIP3    H232773   7.062   1.631   7.881  1.7416 -0.7915  1.1182
 2860TIP3   OH232774   0.021   1.658   9.435  0.3494 -0.2848 -0.7951
 2860TIP3    H132775  -0.001   1.636   9.344  1.1106  0.2492 -1.1249
 2860TIP3    H232776  -0.014   1.746   9.447 -0.1477 -0.5314 -0.4183
 2861TIP3   OH232777   1.379   1.411   8.273 -0.1145  0.1439  0.4521
 2861TIP3    H132778   1.301   1.356   8.258  0.6452 -0.7665 -0.2375
 2861TIP3    H232779   1.409   1.434   8.186  1.0640 -0.4884  0.6780
 2862TIP3   OH232780   0.649   7.190   7.908  0.5513 -0.2824  0.7234
 2862TIP3    H132781   0.656   7.187   8.004 -2.7066 -1.7053  1.0478
 2862TIP3    H232782   0.587   7.120   7.886  0.0223  0.9674 -2.2861
 2863TIP3   OH232783   5.612   3.745   9.072  0.3672 -0.2201 -0.2460
 2863TIP3    H132784   5.519   3.749   9.092  0.1459 -0.1742 -1.2187
 2863TIP3    H232785   5.628   3.820   9.015  0.6982 -1.0008 -1.2164
 2864TIP3   OH232786   4.952   3.723   7.920 -0.1998  0.1038 -0.2529
 2864TIP3    H132787   5.022   3.776   7.882  0.0446  0.6589  0.9178
 2864TIP3    H232788   4.899   3.695   7.845  1.5246 -0.7209 -1.2318
 2865TIP3   OH232789   5.978   1.739   9.259 -0.7942  0.0502 -0.3152
 2865TIP3    H132790   6.043   1.673   9.236  1.6362  1.2011  2.5229
 2865TIP3    H232791   6.028   1.821   9.261 -2.2718  0.9770  2.0668
 2866TIP3   OH232792   7.321   1.261   8.045 -0.2822  0.1262 -0.3392
 2866TIP3    H132793   7.414   1.251   8.066 -0.1516  2.9255  0.9195
 2866TIP3    H232794   7.277   1.195   8.100  0.8627 -0.3377  0.0523
 2867TIP3   OH232795   4.191   0.013   9.066  0.4665  0.5043 -0.1964
 2867TIP3    H132796   4.108  -0.033   9.054  1.1153 -0.9638  0.5985
 2867TIP3    H232797   4.197   0.072   8.992 -0.0104 -1.3961 -1.8423
 2868TIP3   OH232798   0.616   6.300   8.061  0.5542  0.6611  0.1975
 2868TIP3    H132799   0.565   6.223   8.089 -1.6732  1.5680 -1.0387
 2868TIP3    H232800   0.702   6.288   8.101 -0.0708 -1.8823  0.9900
 2869TIP3   OH232801   4.737   6.604   8.356 -0.0025 -0.0999  0.0939
 2869TIP3    H132802   4.674   6.552   8.307  1.4529 -1.7029 -0.1797
 2869TIP3    H232803   4.725   6.694   8.325 -2.3017 -0.3103  0.2736
 2870TIP3   OH232804   4.698   2.082   8.007  0.4900  0.6335 -0.1445
 2870TIP3    H132805   4.672   2.126   8.088 -0.0048  0.7578 -0.3707
 2870TIP3    H232806   4.758   2.013   8.036 -0.9401 -0.3888  0.5202
 2871TIP3   OH232807   4.283   2.595   7.534 -0.3316  0.1161  0.3994
 2871TIP3    H132808   4.324   2.511   7.557  0.7090  1.0384  2.1104
 2871TIP3    H232809   4.246   2.580   7.447 -0.9003 -2.3701  0.9681
 2872TIP3   OH232810   3.096   0.350   9.272 -0.1783  0.0013  0.7691
 2872TIP3    H132811   3.175   0.351   9.326  1.1472 -1.1662 -1.0395
 2872TIP3    H232812   3.090   0.440   9.238  0.1103  0.2133  1.2618
 2873TIP3   OH232813   5.191   2.738   9.208  0.0822  0.1578  0.4416
 2873TIP3    H132814   5.228   2.797   9.274  0.1632  2.1461 -1.2680
 2873TIP3    H232815   5.110   2.781   9.180 -1.0626 -1.7119  0.6945
 2874TIP3   OH232816   1.537   0.008   9.276  0.2626  0.8721  0.4936
 2874TIP3    H132817   1.581   0.090   9.252 -0.3730  1.1075  0.1319
 2874TIP3    H232818   1.514   0.020   9.368 -0.2356  1.2922  0.3231
 2875TIP3   OH232819   4.810   4.453   7.732 -0.3353 -0.4825 -0.0834
 2875TIP3    H132820   4.805   4.394   7.657 -1.6928  0.7563 -1.0213
 2875TIP3    H232821   4.883   4.419   7.784 -0.5774 -2.5063 -0.9618
 2876TIP3   OH232822   0.811   3.222   8.028 -0.6287  0.3348  0.3050
 2876TIP3    H132823   0.791   3.157   8.096  2.1028  1.3370  2.2405
 2876TIP3    H232824   0.792   3.306   8.069  0.0499  0.9319 -0.5622
 2877TIP3   OH232825   6.340   0.030   9.487  0.0989  0.3831 -0.3732
 2877TIP3    H132826   6.299   0.008   9.571  0.4585 -2.1396 -0.7861
 2877TIP3    H232827   6.268   0.026   9.424  0.3674 -0.9143 -0.6259
 2878TIP3   OH232828   4.782   7.024   9.320  0.2773 -0.0143 -0.0935
 2878TIP3    H132829   4.767   7.087   9.250  2.6211  2.3965  1.4016
 2878TIP3    H232830   4.747   7.066   9.399  1.4808 -0.7578  0.8842
 2879TIP3   OH232831   2.583   3.902   7.935  0.6361  0.3888 -0.5142
 2879TIP3    H132832   2.619   3.964   7.998  2.5640 -1.6258  0.4832
 2879TIP3    H232833   2.489   3.902   7.953  0.7710  1.9410  0.3911
 2880TIP3   OH232834   3.993   2.172   8.655 -0.0818 -0.2608 -0.3991
 2880TIP3    H132835   4.006   2.077   8.659 -0.4710 -0.2696  0.8783
 2880TIP3    H232836   4.065   2.209   8.705 -0.6857  0.0470  0.2521
 2881TIP3   OH232837   1.647   3.390   8.647  0.7952  0.3282  0.6492
 2881TIP3    H132838   1.595   3.337   8.588 -0.3757 -0.9513  2.7428
 2881TIP3    H232839   1.584   3.434   8.703  1.8090  2.6594  0.1163
 2882TIP3   OH232840   6.864   4.288   9.392 -0.5657  0.8822 -0.4184
 2882TIP3    H132841   6.918   4.321   9.464 -0.6636  0.0238  0.0635
 2882TIP3    H232842   6.922   4.229   9.344 -1.1224 -0.2376  0.2469
 2883TIP3   OH232843   6.944   6.355   8.117 -0.0445  0.3010 -0.5232
 2883TIP3    H132844   6.995   6.419   8.166 -0.2440 -0.5027  0.7698
 2883TIP3    H232845   7.004   6.280   8.106 -0.6112 -0.2649  0.1601
 2884TIP3   OH232846   0.835   7.239   8.996  0.1102 -0.1285  0.0658
 2884TIP3    H132847   0.912   7.188   8.972 -0.1509  0.7125 -2.9097
 2884TIP3    H232848   0.870   7.321   9.030  0.5542  0.0362 -0.7613
 2885TIP3   OH232849   2.748   0.089   7.159 -0.0407  0.2053  0.3482
 2885TIP3    H132850   2.768   0.082   7.065  1.1946  0.6508  0.5601
 2885TIP3    H232851   2.654   0.072   7.165 -0.3226  1.1246 -1.0839
 2886TIP3   OH232852   3.004   4.226   7.131  0.0877  0.1095  0.1919
 2886TIP3    H132853   2.947   4.196   7.060 -0.9296  3.2331 -0.4613
 2886TIP3    H232854   3.092   4.202   7.103 -0.4603 -0.3874 -1.2030
 2887TIP3   OH232855   1.081   6.945   8.391  0.2059 -0.3202 -0.1074
 2887TIP3    H132856   1.045   6.936   8.303 -0.3757 -2.3496  0.2793
 2887TIP3    H232857   1.156   6.885   8.392  0.4685  0.0148  0.6363
 2888TIP3   OH232858   2.858   5.778   7.856 -0.0465 -0.7150  0.1403
 2888TIP3    H132859   2.803   5.751   7.929 -0.5429  0.9126  0.3889
 2888TIP3    H232860   2.928   5.830   7.896  0.5335 -1.0655 -0.3916
 2889TIP3   OH232861   6.690   5.538   7.634 -0.1628  0.0225  0.4143
 2889TIP3    H132862   6.634   5.586   7.694 -0.3666 -0.6763  0.7894
 2889TIP3    H232863   6.685   5.447   7.663  0.6587 -0.1468  0.0615
 2890TIP3   OH232864   0.809   6.571   9.491 -0.0780  0.0815 -0.4937
 2890TIP3    H132865   0.818   6.549   9.584  1.1407  0.9778 -0.3659
 2890TIP3    H232866   0.719   6.548   9.469 -0.5924  0.4660  1.0914
 2891TIP3   OH232867   5.356   1.602   7.958  0.1226 -0.0487 -0.2914
 2891TIP3    H132868   5.384   1.625   8.047  0.7013  1.6018 -0.8589
 2891TIP3    H232869   5.384   1.511   7.947  0.9076  0.0202  0.8878
 2892TIP3   OH232870   3.391   7.169   9.132  0.2598  0.5286  0.2743
 2892TIP3    H132871   3.477   7.212   9.134  0.9270 -0.7996  1.5290
 2892TIP3    H232872   3.376   7.141   9.222  0.3277 -2.7344 -0.6192
 2893TIP3   OH232873   3.523   2.079   8.661 -0.1047 -1.0381 -0.0528
 2893TIP3    H132874   3.580   2.132   8.717  0.2787 -1.1718 -0.3136
 2893TIP3    H232875   3.582   2.023   8.612 -0.2183  0.5331 -2.1519
 2894TIP3   OH232876   5.546   2.607   7.020 -0.2455 -0.0932  0.3061
 2894TIP3    H132877   5.566   2.535   6.961 -0.1405 -1.6967  2.2169
 2894TIP3    H232878   5.469   2.577   7.070  0.5081  0.5846  1.9454
 2895TIP3   OH232879   7.650   7.005   8.140  0.1091  0.1011 -0.0565
 2895TIP3    H132880   7.687   6.956   8.213  1.1012  0.6337 -0.1884
 2895TIP3    H232881   7.713   6.993   8.069 -0.5378  0.0931 -0.6456
 2896TIP3   OH232882   2.486   1.332   8.087 -0.1398  0.3588  0.0460
 2896TIP3    H132883   2.557   1.361   8.030 -0.6469 -0.6788 -1.1518
 2896TIP3    H232884   2.441   1.413   8.112  0.8381  0.9367  0.0151
 2897TIP3   OH232885   7.659   6.460   8.268 -0.0815  0.5947 -0.3293
 2897TIP3    H132886   7.686   6.491   8.354  0.1610  1.5794 -0.7487
 2897TIP3    H232887   7.648   6.366   8.279 -0.7917  0.8144  0.9624
 2898TIP3   OH232888   7.011   2.421   7.828 -0.1414  0.8865  0.1504
 2898TIP3    H132889   6.934   2.424   7.771  0.4146  1.3449 -0.6012
 2898TIP3    H232890   6.992   2.482   7.899 -0.1714  1.5534 -0.4253
 2899TIP3   OH232891   0.131   7.422   8.409 -0.3544 -0.2022 -0.2303
 2899TIP3    H132892   0.156   7.407   8.500  0.1619 -0.7778 -0.4614
 2899TIP3    H232893   0.199   7.482   8.376 -0.3592 -0.2500 -0.3261
 2900TIP3   OH232894   1.286   4.272   7.519 -0.1326 -0.3789  0.7318
 2900TIP3    H132895   1.316   4.181   7.510 -1.2062 -0.7772  0.9081
 2900TIP3    H232896   1.191   4.263   7.533 -0.2454  0.7764  0.7335
 2901TIP3   OH232897   2.325   6.259   7.945  0.4259 -0.0645 -0.0337
 2901TIP3    H132898   2.279   6.334   7.907 -1.7724 -1.4973 -0.3611
 2901TIP3    H232899   2.338   6.283   8.037  0.8466  1.1743 -0.3965
 2902TIP3   OH232900   0.001   3.483   7.529  0.4262 -0.1495  0.2018
 2902TIP3    H132901  -0.065   3.416   7.512  1.6652 -1.5239  0.5595
 2902TIP3    H232902   0.079   3.452   7.481  1.1619  0.7843  0.7675
 2903TIP3   OH232903   3.181   1.519   7.881  0.1889  0.1951  0.1024
 2903TIP3    H132904   3.100   1.512   7.831 -0.0541 -1.2403  0.6646
 2903TIP3    H232905   3.225   1.435   7.868  0.9728  0.4743  0.8479
 2904TIP3   OH232906   4.682   3.796   9.114  0.2740 -0.1364  0.8929
 2904TIP3    H132907   4.685   3.886   9.146 -3.5214  1.2025 -1.8086
 2904TIP3    H232908   4.645   3.747   9.188  2.5019  0.3498  2.4471
 2905TIP3   OH232909   3.502   7.188   8.004 -0.2385 -0.0880 -0.0416
 2905TIP3    H132910   3.453   7.230   8.075 -0.1521 -0.6628  0.3591
 2905TIP3    H232911   3.536   7.107   8.042 -1.9425 -1.4842 -1.3139
 2906TIP3   OH232912   2.202   4.920   7.614  0.4220 -0.4607  0.1709
 2906TIP3    H132913   2.193   4.871   7.696  0.1707 -1.7859 -0.6084
 2906TIP3    H232914   2.294   4.946   7.611  0.8128 -1.7801  0.1475
 2907TIP3   OH232915   5.664   7.321   7.574 -0.0976  0.6616 -0.2142
 2907TIP3    H132916   5.629   7.359   7.654 -2.0223 -3.0689  0.9309
 2907TIP3    H232917   5.757   7.309   7.593 -0.2101  1.2636  0.8224
 2908TIP3   OH232918   5.032   2.767   7.498 -0.3641 -0.3940 -0.1455
 2908TIP3    H132919   5.039   2.676   7.470 -2.7880 -1.2787  1.6880
 2908TIP3    H232920   5.114   2.808   7.471  1.5017 -3.5185  0.3568
 2909TIP3   OH232921   0.216   1.654   6.672  0.0822  0.2170  0.5375
 2909TIP3    H132922   0.299   1.634   6.628  0.1740  0.5560  0.5572
 2909TIP3    H232923   0.212   1.750   6.674  0.0829  0.2125  1.2713
 2910TIP3   OH232924   3.820   0.483   8.390 -0.0218  0.0638  0.1296
 2910TIP3    H132925   3.760   0.440   8.329  1.3628 -1.5440 -0.1701
 2910TIP3    H232926   3.846   0.564   8.346 -1.0124  0.1849 -0.2550
 2911TIP3   OH232927   0.511   3.591   7.550  0.1334  0.1833  0.0156
 2911TIP3    H132928   0.566   3.564   7.476  0.4724  0.2171  0.2531
 2911TIP3    H232929   0.559   3.560   7.627  0.6817  1.6925  0.3192
 2912TIP3   OH232930   4.289   5.834   6.787  0.9217  0.1135  0.4650
 2912TIP3    H132931   4.311   5.792   6.704 -0.9179 -0.3648  0.1914
 2912TIP3    H232932   4.328   5.777   6.853 -0.1298 -1.1700  0.0249
 2913TIP3   OH232933   1.490   6.625   9.313 -0.1855 -0.3042 -0.2460
 2913TIP3    H132934   1.397   6.623   9.292 -0.1214 -0.1325 -0.5577
 2913TIP3    H232935   1.516   6.716   9.303 -0.4738  0.1036  2.1072
 2914TIP3   OH232936   7.372   0.408   8.581  0.5396 -0.1295  0.1253
 2914TIP3    H132937   7.401   0.316   8.582  0.4799 -0.1792 -1.3100
 2914TIP3    H232938   7.453   0.458   8.575  0.5385 -0.0955  0.3568
 2915TIP3   OH232939   0.232   5.755   7.522  0.3674  0.0374  0.0321
 2915TIP3    H132940   0.270   5.727   7.439  0.5974  1.2513 -0.2846
 2915TIP3    H232941   0.271   5.840   7.539  0.4094 -0.2392  1.4490
 2916TIP3   OH232942   1.294   5.830   7.315 -0.2279  0.0395  0.5307
 2916TIP3    H132943   1.267   5.816   7.224 -3.5819 -0.6913  1.4981
 2916TIP3    H232944   1.374   5.779   7.324 -0.6371 -1.1078 -1.6427
 2917TIP3   OH232945   1.197   4.414   6.726  0.1058 -0.9090 -0.4692
 2917TIP3    H132946   1.109   4.404   6.762 -0.2728 -2.5910 -1.7338
 2917TIP3    H232947   1.240   4.475   6.785 -1.7292 -0.4639  0.4925
 2918TIP3   OH232948   4.175   3.958   9.003 -0.0721 -0.5112  0.0434
 2918TIP3    H132949   4.221   4.008   8.936  2.5206 -0.0761  1.9706
 2918TIP3    H232950   4.082   3.974   8.986  0.5689  2.6027 -1.1695
 2919TIP3   OH232951   7.360   6.126   7.873 -0.6939  0.1249  0.3370
 2919TIP3    H132952   7.377   6.055   7.934  1.2897  0.8131  0.6360
 2919TIP3    H232953   7.328   6.198   7.927 -2.2005 -0.3128  0.0952
 2920TIP3   OH232954   6.497   1.230   7.549 -0.6691 -0.0835 -0.8636
 2920TIP3    H132955   6.417   1.281   7.557 -0.9674 -0.8566  3.0555
 2920TIP3    H232956   6.563   1.294   7.520 -1.5623  2.0307  1.3802
 2921TIP3   OH232957   7.020   0.024   8.359 -0.5550 -0.2507  0.1493
 2921TIP3    H132958   6.947   0.064   8.407 -0.4535 -0.3746  0.4062
 2921TIP3    H232959   6.978  -0.039   8.300 -0.6324 -0.6054  0.5754
 2922TIP3   OH232960   1.909   6.143   9.236  0.0674  0.1978  0.1334
 2922TIP3    H132961   1.909   6.076   9.168  0.2616  0.5181 -0.1845
 2922TIP3    H232962   2.002   6.157   9.256  0.0534  0.7663 -0.1907
 2923TIP3   OH232963   1.298   2.886   6.808 -0.0808 -0.2454 -0.1375
 2923TIP3    H132964   1.356   2.825   6.761  1.3776 -1.2219  2.6717
 2923TIP3    H232965   1.350   2.966   6.817 -0.3496 -0.0634 -0.2216
 2924TIP3   OH232966   3.809   5.702   8.916  0.3277  0.8091  0.4769
 2924TIP3    H132967   3.784   5.663   8.833  2.1382 -1.2971  0.8332
 2924TIP3    H232968   3.765   5.788   8.917 -2.7321 -0.6000 -0.9691
 2925TIP3   OH232969   1.998   0.556   8.213 -0.4407 -0.2135 -0.1043
 2925TIP3    H132970   1.978   0.623   8.148  0.8579  2.1691  1.7732
 2925TIP3    H232971   2.084   0.523   8.188 -0.7743 -0.7210 -0.6256
 2926TIP3   OH232972   4.076   4.166   8.835 -0.5134 -0.0716  0.1035
 2926TIP3    H132973   3.991   4.211   8.838 -0.6347 -0.3541  1.4184
 2926TIP3    H232974   4.057   4.081   8.795 -1.2426 -0.8664  1.9925
 2927TIP3   OH232975   4.916   3.024   9.548 -0.1844 -0.6857 -0.3031
 2927TIP3    H132976   4.897   2.972   9.470  1.3350 -1.1842 -0.3586
 2927TIP3    H232977   4.831   3.031   9.592 -0.5446 -2.8051 -0.5343
 2928TIP3   OH232978   2.480   7.056   7.026  0.0001  1.1114  0.3920
 2928TIP3    H132979   2.421   7.127   7.003  0.3585  1.5480  0.7871
 2928TIP3    H232980   2.566   7.098   7.034  0.4996  0.3822 -0.8333
 2929TIP3   OH232981   2.915   0.467   8.235  0.1988 -0.4536 -0.2324
 2929TIP3    H132982   2.880   0.543   8.187  1.4348  0.7897  0.7699
 2929TIP3    H232983   3.005   0.459   8.204  0.1183 -1.4440 -0.2223
 2930TIP3   OH232984   3.547   5.869   9.559  0.8017 -0.8555 -0.4091
 2930TIP3    H132985   3.608   5.833   9.495  1.9855 -0.0427  0.2234
 2930TIP3    H232986   3.566   5.963   9.561 -0.5321 -0.5741 -0.2504
 2931TIP3   OH232987   6.799   5.899   7.314  0.4371 -0.0451 -0.9251
 2931TIP3    H132988   6.744   5.941   7.381  0.9511 -0.0892 -0.4726
 2931TIP3    H232989   6.763   5.810   7.307 -0.6285  0.4302 -1.8571
 2932TIP3   OH232990   0.973   0.750   8.015 -0.2947  0.6454 -0.1602
 2932TIP3    H132991   0.991   0.661   8.048 -0.0636  1.1641  1.1904
 2932TIP3    H232992   0.914   0.788   8.080 -0.8054  1.3153 -1.0023
 2933TIP3   OH232993   5.797   4.688   8.941 -0.1743  0.0658 -0.6042
 2933TIP3    H132994   5.852   4.644   9.006  1.7757  1.0087 -1.5462
 2933TIP3    H232995   5.773   4.619   8.879 -2.1699 -0.8771  1.0967
 2934TIP3   OH232996   5.558   4.884   9.022 -0.3250  0.1949 -0.8769
 2934TIP3    H132997   5.488   4.937   8.984 -1.0982 -0.2981 -0.1852
 2934TIP3    H232998   5.523   4.855   9.106 -0.4193 -2.3809 -1.7112
 2935TIP3   OH232999   3.832   4.776   9.091  0.4231 -0.4134 -0.4717
 2935TIP3    H133000   3.862   4.849   9.036  0.7560 -0.0893  0.1215
 2935TIP3    H233001   3.909   4.721   9.101  0.3612 -0.4759 -0.3388
 2936TIP3   OH233002   5.066   0.832   8.785 -0.0682 -0.6126  0.4042
 2936TIP3    H133003   5.086   0.871   8.870  0.3818  1.1676 -0.4840
 2936TIP3    H233004   5.142   0.777   8.765 -1.1911 -2.9980  2.1676
 2937TIP3   OH233005   1.862   4.218   8.078 -0.0744  0.6491 -0.1232
 2937TIP3    H133006   1.900   4.238   8.163  0.1075 -1.6852  0.4193
 2937TIP3    H233007   1.935   4.223   8.016 -0.5192  4.0863 -0.5620
 2938TIP3   OH233008   2.966   4.469   7.586 -0.0720 -0.2526  0.0383
 2938TIP3    H133009   3.060   4.473   7.569  0.4619  0.1126  2.7311
 2938TIP3    H233010   2.930   4.428   7.507  2.4420 -1.3532 -0.6581
 2939TIP3   OH233011   6.406   3.148   8.056 -0.8840 -0.5969 -0.0989
 2939TIP3    H133012   6.337   3.206   8.089 -1.3261 -1.5986  0.7598
 2939TIP3    H233013   6.360   3.088   7.996 -0.8662 -1.5895  0.8591
 2940TIP3   OH233014   3.321   3.340   7.026  0.0751  0.2480  0.8830
 2940TIP3    H133015   3.326   3.424   6.981 -1.0761 -0.8378 -1.4305
 2940TIP3    H233016   3.350   3.276   6.961  0.8080 -1.1803  2.5413
 2941TIP3   OH233017   2.191   2.276   8.059 -0.0431  0.4621 -0.2068
 2941TIP3    H133018   2.163   2.338   8.126 -0.8480  0.0671 -0.1608
 2941TIP3    H233019   2.121   2.211   8.057  0.9526 -0.6450  0.0070
 2942TIP3   OH233020   0.372   5.023   7.412 -0.1236  0.0813 -0.1397
 2942TIP3    H133021   0.425   5.071   7.349  0.6237 -0.5417 -0.0004
 2942TIP3    H233022   0.292   5.075   7.420  0.0066  0.4660 -1.1659
 2943TIP3   OH233023   4.443   0.312   9.546 -0.3814 -0.1732  0.3036
 2943TIP3    H133024   4.468   0.388   9.599  1.4108 -1.6816  1.7911
 2943TIP3    H233025   4.443   0.344   9.456  0.5275  1.5390  0.8638
 2944TIP3   OH233026   2.566   2.353   6.863 -0.2034  0.0138  0.3886
 2944TIP3    H133027   2.609   2.411   6.926 -1.0726  0.3540  0.6737
 2944TIP3    H233028   2.624   2.355   6.787 -0.8971  2.4299 -0.1776
 2945TIP3   OH233029   3.375   0.368   8.271  0.5253 -0.1656 -0.3405
 2945TIP3    H133030   3.361   0.462   8.283  0.5479 -0.0686 -1.0433
 2945TIP3    H233031   3.342   0.328   8.352  3.6082  0.6825  1.5141
 2946TIP3   OH233032   6.627   0.035   7.760  0.2034  0.4103 -0.0286
 2946TIP3    H133033   6.545   0.080   7.780  0.1442  0.5603 -0.5966
 2946TIP3    H233034   6.678   0.099   7.710 -0.3820 -0.5563 -1.9390
 2947TIP3   OH233035   5.435   0.963   8.830  0.0037  0.6055  0.3471
 2947TIP3    H133036   5.528   0.939   8.832  0.1413  0.5709 -2.4369
 2947TIP3    H233037   5.388   0.881   8.841  0.1903  0.8078  3.3735
 2948TIP3   OH233038   0.255   6.806   7.754 -0.2436  0.2247 -0.2890
 2948TIP3    H133039   0.287   6.747   7.686 -0.3930 -1.7860  1.2908
 2948TIP3    H233040   0.290   6.770   7.835 -1.0112  1.8871  0.8246
 2949TIP3   OH233041   3.493   2.370   8.956  0.2758  0.7974 -0.0988
 2949TIP3    H133042   3.490   2.321   9.039  0.3230  0.8543 -0.0634
 2949TIP3    H233043   3.566   2.332   8.908 -0.8538 -0.4823 -0.8866
 2950TIP3   OH233044   5.964   0.782   6.715  0.1165  0.4272 -0.1276
 2950TIP3    H133045   5.987   0.710   6.772  1.5395  2.1792  1.6559
 2950TIP3    H233046   5.926   0.741   6.637 -0.3781 -2.1158  1.3682
 2951TIP3   OH233047   4.118   1.194   9.607 -0.0257  0.2015 -0.3883
 2951TIP3    H133048   4.023   1.190   9.601 -0.0338  0.1103 -0.2063
 2951TIP3    H233049   4.135   1.279   9.649  0.0101  0.6065 -1.2135
 2952TIP3   OH233050   0.123   6.714   8.714 -0.2581  0.1485  0.0431
 2952TIP3    H133051   0.118   6.705   8.809 -1.2350  1.3865  0.1326
 2952TIP3    H233052   0.083   6.799   8.696  0.0064 -0.0246 -1.4712
 2953TIP3   OH233053   2.456   1.730   9.290  0.1608  0.2563 -0.4183
 2953TIP3    H133054   2.441   1.674   9.366  1.2895  0.0450 -0.3242
 2953TIP3    H233055   2.545   1.764   9.303 -1.2255  3.9164  0.7271
 2954TIP3   OH233056   7.310   4.405   8.418 -0.0401  0.0023  0.2474
 2954TIP3    H133057   7.392   4.391   8.464  0.0326 -1.9154 -0.3649
 2954TIP3    H233058   7.254   4.449   8.482  0.9799 -0.0061  1.1780
 2955TIP3   OH233059   0.791   3.074   9.224  0.2739  0.5449 -0.5435
 2955TIP3    H133060   0.706   3.052   9.264  0.3474  0.9209 -0.1770
 2955TIP3    H233061   0.838   2.991   9.220 -0.0920  0.3436 -0.6983
 2956TIP3   OH233062   4.479   6.076   8.743 -0.0802 -0.0063 -0.6009
 2956TIP3    H133063   4.387   6.064   8.720 -0.2445 -0.4272  0.2397
 2956TIP3    H233064   4.519   5.990   8.730 -0.2940 -0.4093  1.1096
 2957TIP3   OH233065   6.965   6.065   9.225 -0.1198 -0.0515 -0.3316
 2957TIP3    H133066   6.947   6.159   9.229  2.1296  0.4448 -0.5384
 2957TIP3    H233067   6.906   6.026   9.290  0.4956  1.7891  1.4431
 2958TIP3   OH233068   4.110   3.939   8.644 -0.3661  0.4447  0.6188
 2958TIP3    H133069   4.124   3.968   8.554 -1.6377  0.6509  0.4727
 2958TIP3    H233070   4.195   3.953   8.687  0.1222  0.7707 -0.4217
 2959TIP3   OH233071   5.819   4.774   6.936 -0.4406  0.6111  0.3613
 2959TIP3    H133072   5.724   4.767   6.949 -0.6937  2.7668  0.0056
 2959TIP3    H233073   5.856   4.743   7.019 -1.5556  1.7375  1.3280
 2960TIP3   OH233074   7.261   5.685   7.336 -0.5230  0.2075  0.0659
 2960TIP3    H133075   7.177   5.716   7.303  0.2730 -0.2052 -2.5852
 2960TIP3    H233076   7.272   5.599   7.296  0.7136 -0.1955  1.2043
 2961TIP3   OH233077   0.761   6.768   8.773 -0.4800 -0.1016 -0.0445
 2961TIP3    H133078   0.831   6.775   8.707 -1.8485  0.6822 -1.4817
 2961TIP3    H233079   0.794   6.704   8.836  1.2377 -0.2758 -1.0574
 2962TIP3   OH233080   2.075   2.483   8.219 -0.2841  0.6054 -0.0773
 2962TIP3    H133081   2.131   2.495   8.295  1.5546 -0.6717 -1.1509
 2962TIP3    H233082   2.068   2.570   8.180 -0.0369  0.9973  0.7427
 2963TIP3   OH233083   1.876   5.681   8.707 -0.5495  0.1247 -0.1664
 2963TIP3    H133084   1.782   5.674   8.726 -0.7979 -0.2875 -1.4965
 2963TIP3    H233085   1.889   5.773   8.686 -1.0075 -0.1481 -1.7111
 2964TIP3   OH233086   5.384   6.869   9.250 -0.3477 -0.1312 -0.2490
 2964TIP3    H133087   5.382   6.775   9.265  2.5229 -0.4085 -0.9224
 2964TIP3    H233088   5.473   6.895   9.273 -0.4906  2.0966 -1.8174
 2965TIP3   OH233089   2.992   4.745   7.957 -0.2616  0.1948 -0.3751
 2965TIP3    H133090   2.921   4.696   7.999 -0.4873  0.9347  0.1269
 2965TIP3    H233091   3.041   4.784   8.030  0.3430  0.1317 -0.7365
 2966TIP3   OH233092   1.927   5.559   8.448  0.8545  0.0556  0.1930
 2966TIP3    H133093   2.018   5.566   8.420  0.8892 -0.8506  0.0487
 2966TIP3    H233094   1.931   5.561   8.544  0.8214  2.1433  0.2078
 2967TIP3   OH233095   6.639   0.213   7.470 -0.0867 -0.1865 -0.1664
 2967TIP3    H133096   6.598   0.171   7.395  1.4732  0.3597 -1.3877
 2967TIP3    H233097   6.732   0.220   7.446  0.4271  0.1953  1.7278
 2968TIP3   OH233098   5.332   1.108   7.692  0.1068 -0.3503  0.3360
 2968TIP3    H133099   5.370   1.038   7.746  0.3908  0.4875  1.2368
 2968TIP3    H233100   5.278   1.159   7.753  1.0853  1.1056  0.0219
 2969TIP3   OH233101   4.335   6.182   7.202 -0.0165 -0.0433 -0.1316
 2969TIP3    H133102   4.356   6.109   7.143  0.6953 -0.2271  0.3274
 2969TIP3    H233103   4.393   6.253   7.173 -0.6851  0.3393 -0.5572
 2970TIP3   OH233104   7.527   4.735   9.323  0.2067  0.2201 -0.1666
 2970TIP3    H133105   7.481   4.653   9.340  0.5704 -0.2608 -1.3523
 2970TIP3    H233106   7.615   4.720   9.358 -0.0159  0.4957  0.5332
 2971TIP3   OH233107   6.792   5.277   9.348 -0.5859  0.2249  0.4186
 2971TIP3    H133108   6.799   5.371   9.332  0.4948 -0.2126 -2.2516
 2971TIP3    H233109   6.741   5.244   9.274  0.5258 -1.5001  0.3701
 2972TIP3   OH233110   7.363   1.455   8.808  0.2242 -0.2739 -0.2425
 2972TIP3    H133111   7.451   1.424   8.788  0.6758 -1.2367  2.7162
 2972TIP3    H233112   7.325   1.386   8.862 -2.1658  0.3722 -0.9988
 2973TIP3   OH233113   0.691   4.048   7.978 -0.3294 -0.3198  0.3093
 2973TIP3    H133114   0.743   4.060   7.899 -0.0933  0.4913  0.5867
 2973TIP3    H233115   0.744   3.991   8.033 -0.7805 -1.4329 -0.3693
 2974TIP3   OH233116   2.184   6.512   7.895 -0.7158 -0.1592  0.2824
 2974TIP3    H133117   2.222   6.545   7.813 -1.4628  0.3366  0.1217
 2974TIP3    H233118   2.237   6.552   7.964  0.1950 -0.9276  0.0421
 2975TIP3   OH233119   7.609   1.758   8.830  0.1636  0.2303 -0.4764
 2975TIP3    H133120   7.682   1.696   8.825  1.7467  2.0414 -0.9517
 2975TIP3    H233121   7.568   1.739   8.915  2.5787  0.6101  0.8723
 2976TIP3   OH233122   1.958   1.554   9.188 -0.4084  0.4855  0.2447
 2976TIP3    H133123   2.053   1.544   9.192 -0.5660 -1.9320 -0.1222
 2976TIP3    H233124   1.925   1.487   9.249 -1.8821  1.4100  0.5032
 2977TIP3   OH233125   5.266   0.293   8.446  0.1453 -0.3265 -0.8475
 2977TIP3    H133126   5.203   0.224   8.423 -0.1536 -0.1717 -0.5098
 2977TIP3    H233127   5.346   0.269   8.399  0.0248 -0.8704 -0.7913
 2978TIP3   OH233128   1.159   0.089   7.510 -0.4585  0.7910 -0.3808
 2978TIP3    H133129   1.222   0.022   7.485 -1.1306 -0.5551  1.3246
 2978TIP3    H233130   1.204   0.172   7.493  1.1636 -0.1078 -0.6506
 2979TIP3   OH233131   6.999   4.050   9.258 -0.5223  0.5824 -0.2742
 2979TIP3    H133132   6.957   3.973   9.220  0.2323 -0.0436  0.1166
 2979TIP3    H233133   7.082   4.057   9.212 -0.2686  0.7167  0.1948
 2980TIP3   OH233134   5.652   3.109   9.345 -0.4212  0.6414 -0.1733
 2980TIP3    H133135   5.598   3.061   9.408  0.1855 -0.0648 -0.1739
 2980TIP3    H233136   5.589   3.153   9.288 -0.9919  0.0077 -0.0460
 2981TIP3   OH233137   5.350   6.323   8.231 -0.4833  0.2154  0.4436
 2981TIP3    H133138   5.440   6.340   8.261  0.3318 -2.4539 -0.1844
 2981TIP3    H233139   5.310   6.273   8.301 -0.4889 -1.0855 -0.4529
 2982TIP3   OH233140   3.194   1.712   7.458 -0.2747 -0.5899 -0.4176
 2982TIP3    H133141   3.126   1.702   7.391 -1.8798  0.1935  1.0068
 2982TIP3    H233142   3.157   1.774   7.521  1.7353 -0.2316  0.4922
 2983TIP3   OH233143   4.580   6.344   8.095  0.0971 -0.5421 -0.3391
 2983TIP3    H133144   4.513   6.276   8.095  0.7389 -1.2016 -1.2653
 2983TIP3    H233145   4.595   6.364   8.187 -0.6651 -1.0833 -0.0910
 2984TIP3   OH233146   5.223   3.882   8.806  0.4494 -0.4862 -0.0064
 2984TIP3    H133147   5.212   3.824   8.880 -0.5316  1.0106  1.0791
 2984TIP3    H233148   5.231   3.969   8.845 -2.3596  0.6614 -1.6509
 2985TIP3   OH233149   3.246   2.075   8.291  0.7107  0.0940  0.4811
 2985TIP3    H133150   3.249   2.108   8.380 -1.4158 -0.9062  1.0083
 2985TIP3    H233151   3.335   2.048   8.271  1.8097  2.8829  1.2349
 2986TIP3   OH233152   4.642   5.667   7.756  0.0479 -0.3398 -0.0877
 2986TIP3    H133153   4.675   5.577   7.758 -2.5931 -1.3861  1.2559
 2986TIP3    H233154   4.599   5.678   7.841  0.6495  2.3919 -0.0555
 2987TIP3   OH233155   1.094   0.566   8.632  0.3377 -0.3403 -0.1205
 2987TIP3    H133156   1.118   0.637   8.573 -1.0094 -1.1516 -1.7265
 2987TIP3    H233157   1.002   0.583   8.653  0.4179 -0.8228  0.6713
 2988TIP3   OH233158   5.714   1.953   7.140  0.2096 -0.1370  0.3917
 2988TIP3    H133159   5.783   1.920   7.196  0.8496 -0.9739 -0.8466
 2988TIP3    H233160   5.654   1.879   7.129 -0.1534  0.1596  0.3500
 2989TIP3   OH233161   5.731   3.190   8.699 -0.0525 -0.4673  0.0545
 2989TIP3    H133162   5.698   3.217   8.785 -0.8449  0.0555 -0.3884
 2989TIP3    H233163   5.670   3.231   8.637  0.9914 -0.1410 -0.7836
 2990TIP3   OH233164   7.340   6.496   8.917  0.0707  0.4150  0.1451
 2990TIP3    H133165   7.265   6.482   8.975 -1.4669  0.6522 -1.6493
 2990TIP3    H233166   7.332   6.426   8.851  1.1855  0.7016 -0.3083
 2991TIP3   OH233167   2.086   4.430   7.978 -0.4424 -0.0998  0.3480
 2991TIP3    H133168   2.127   4.517   7.978  0.2386 -0.4066 -0.6814
 2991TIP3    H233169   2.157   4.370   7.958 -1.4278 -0.5946 -1.9299
 2992TIP3   OH233170   4.999   5.719   8.937 -0.1556  0.2113 -0.0570
 2992TIP3    H133171   4.981   5.813   8.936 -0.4907  0.1740  1.1905
 2992TIP3    H233172   5.093   5.712   8.923 -0.4801  0.5607 -3.1597
 2993TIP3   OH233173   2.867   0.210   9.376  0.5746 -0.1306 -0.0698
 2993TIP3    H133174   2.953   0.248   9.358  0.8118  0.1174  1.4207
 2993TIP3    H233175   2.829   0.268   9.442 -0.3926 -0.7062 -0.1060
 2994TIP3   OH233176   4.996   2.136   9.294 -0.7166 -0.0510  0.3471
 2994TIP3    H133177   5.044   2.116   9.375 -0.3672 -0.0842  0.1353
 2994TIP3    H233178   4.955   2.053   9.270 -2.3067  0.3714  1.4427
 2995TIP3   OH233179   6.247   4.715   7.199  0.2901  0.1869 -0.4314
 2995TIP3    H133180   6.248   4.697   7.106 -1.3983 -0.6382 -0.3398
 2995TIP3    H233181   6.194   4.645   7.237  1.6703 -0.0150  1.2830
 2996TIP3   OH233182   4.957   0.859   7.785 -0.1879 -0.3357 -0.4934
 2996TIP3    H133183   4.869   0.867   7.823  0.1931 -0.7835  0.4950
 2996TIP3    H233184   4.944   0.800   7.710 -0.7909 -0.1414 -0.5506
 2997TIP3   OH233185   4.028   0.353   8.006 -0.4014 -0.3809 -0.2426
 2997TIP3    H133186   3.936   0.333   8.024 -0.8185  0.1191 -1.6657
 2997TIP3    H233187   4.061   0.276   7.961  0.1584 -0.9292  1.0466
 2998TIP3   OH233188   5.289   3.834   6.809 -0.1495 -0.0284 -0.0291
 2998TIP3    H133189   5.327   3.751   6.780  0.5307  0.7062 -1.3681
 2998TIP3    H233190   5.281   3.825   6.904 -0.7901 -1.8952 -0.2112
 2999TIP3   OH233191   1.139   2.460   8.153 -0.2343  0.2134 -0.6321
 2999TIP3    H133192   1.084   2.408   8.212  0.1116  0.6525  0.0887
 2999TIP3    H233193   1.079   2.520   8.110 -0.5263 -0.2765 -0.9166
 3000TIP3   OH233194   1.989   7.123   9.556 -0.3726 -0.0662 -0.3198
 3000TIP3    H133195   1.938   7.043   9.554 -1.2286  0.4401  0.3320
 3000TIP3    H233196   1.951   7.174   9.628  2.1951 -0.3991  1.4076
 3001TIP3   OH233197   6.866   0.188   9.041 -0.6536  0.3466 -0.0337
 3001TIP3    H133198   6.953   0.179   9.082 -0.9836  0.4869  0.7130
 3001TIP3    H233199   6.869   0.130   8.965  0.6730  1.5660 -0.9860
 3002TIP3   OH233200   4.624   5.290   9.613 -0.1002 -0.2357  0.0739
 3002TIP3    H133201   4.656   5.281   9.702  0.8114 -1.0989 -0.3288
 3002TIP3    H233202   4.662   5.373   9.582 -0.9078  0.3742  0.6651
 3003TIP3   OH233203   0.917   5.009   9.121 -0.3743  0.4672  0.1702
 3003TIP3    H133204   0.898   4.994   9.028  1.4605  0.5136 -0.2498
 3003TIP3    H233205   0.941   4.923   9.156 -1.0335  0.4539  0.6118
 3004TIP3   OH233206   0.311   4.037   6.989 -0.4682 -0.4417  0.5970
 3004TIP3    H133207   0.248   4.099   7.026  0.7324  0.2075  1.6225
 3004TIP3    H233208   0.381   4.092   6.953  0.1349 -1.1724  0.6160
 3005TIP3   OH233209   3.652   6.951   8.103  0.8280  0.7214  0.4964
 3005TIP3    H133210   3.664   6.876   8.161  1.3153  0.6231  0.2762
 3005TIP3    H233211   3.725   6.944   8.040 -0.2978  0.1865 -0.8066
 3006TIP3   OH233212   4.549   3.409   8.369  0.2081  0.1595  0.2255
 3006TIP3    H133213   4.575   3.384   8.280  0.6480  0.6025  0.2244
 3006TIP3    H233214   4.478   3.348   8.391  0.6138 -0.4543 -0.1304
 3007TIP3   OH233215   0.393   0.485   7.957  0.4116  0.3207  0.3636
 3007TIP3    H133216   0.371   0.410   7.901 -3.3551  0.0028  2.0131
 3007TIP3    H233217   0.475   0.458   8.000  0.7416 -1.5317 -1.2663
 3008TIP3   OH233218   7.126   7.558   8.762  0.3337 -0.0054 -0.0625
 3008TIP3    H133219   7.134   7.566   8.667 -0.3840  1.2106 -0.0383
 3008TIP3    H233220   7.071   7.631   8.788 -0.8394 -1.2427  1.1086
 3009TIP3   OH233221   2.634   7.177   8.595 -0.3352 -0.1799 -0.2111
 3009TIP3    H133222   2.546   7.167   8.560 -1.2111  2.0612  1.1704
 3009TIP3    H233223   2.621   7.203   8.686  1.7461  0.2516  0.0146
 3010TIP3   OH233224   7.104   1.435   9.745  0.1849  0.6282 -0.7023
 3010TIP3    H133225   7.144   1.468   9.826  1.0741 -1.1016 -0.4013
 3010TIP3    H233226   7.145   1.487   9.676  1.1543  0.5534 -0.2083
 3011TIP3   OH233227   0.006   1.158   7.560 -0.3792 -0.4782 -0.4378
 3011TIP3    H133228   0.014   1.074   7.604 -0.4980 -1.0675 -1.5192
 3011TIP3    H233229  -0.060   1.206   7.611 -0.0570 -0.8944  0.3820
 3012TIP3   OH233230   3.780   1.721   7.621 -0.7308  0.3990 -0.0858
 3012TIP3    H133231   3.719   1.648   7.631  0.1096 -0.1988  0.7715
 3012TIP3    H233232   3.745   1.789   7.678  0.2742 -0.5349  1.7093
 3013TIP3   OH233233   4.473   6.684   8.923 -0.1443 -0.4628 -0.4962
 3013TIP3    H133234   4.510   6.670   9.010 -0.4778  2.5070  0.2421
 3013TIP3    H233235   4.548   6.679   8.864  0.1523 -2.0326 -0.0436
 3014TIP3   OH233236   2.923   2.620   6.888  0.2921  0.2535  0.0148
 3014TIP3    H133237   2.895   2.706   6.921  0.1783 -0.7265  2.6561
 3014TIP3    H233238   3.017   2.629   6.874  0.0249  1.2628 -1.3800
 3015TIP3   OH233239   5.021   4.142   7.461 -0.2423 -0.5633  0.0432
 3015TIP3    H133240   5.000   4.139   7.368 -1.9221  0.5211  0.3560
 3015TIP3    H233241   4.939   4.122   7.505  0.5561 -1.1555  1.3099
 3016TIP3   OH233242   6.793   6.588   6.587  0.4374  0.4904 -0.0846
 3016TIP3    H133243   6.746   6.670   6.579  0.7915  0.6098 -1.0882
 3016TIP3    H233244   6.754   6.531   6.521 -0.3221 -0.4162  1.1086
 3017TIP3   OH233245   2.080   0.500   8.709  0.2286  0.3979  0.0401
 3017TIP3    H133246   2.080   0.420   8.761  2.1972  0.6455  0.4876
 3017TIP3    H233247   2.111   0.472   8.622  0.1524  0.5474 -0.0354
 3018TIP3   OH233248   1.544   5.720   7.348 -0.5212 -0.1532  0.1961
 3018TIP3    H133249   1.631   5.743   7.383 -0.9283  1.1629  0.4135
 3018TIP3    H233250   1.560   5.645   7.292  0.6964 -0.2201  0.5967
 3019TIP3   OH233251   6.964   3.825   8.563  0.3857  0.1914 -0.6788
 3019TIP3    H133252   6.974   3.827   8.658 -0.3561  1.1617 -0.5938
 3019TIP3    H233253   6.920   3.742   8.545 -1.8433  1.1095  0.1359
 3020TIP3   OH233254   0.221   7.025   7.328 -0.3732 -0.1696 -0.4288
 3020TIP3    H133255   0.156   6.974   7.279  1.7117 -2.4124 -1.0103
 3020TIP3    H233256   0.223   7.110   7.283 -1.0728 -0.9522 -2.0144
 3021TIP3   OH233257   1.469   7.436   9.225  0.2366 -0.6106  0.4141
 3021TIP3    H133258   1.479   7.530   9.241  1.7145 -0.5178 -0.8251
 3021TIP3    H233259   1.513   7.421   9.141 -0.1435 -2.3877  0.4922
 3022TIP3   OH233260   5.959   1.908   7.277  0.0717 -0.4770  0.5640
 3022TIP3    H133261   6.047   1.929   7.307  0.3677 -0.1301 -0.5123
 3022TIP3    H233262   5.917   1.865   7.352  0.7104  0.5483  1.5228
 3023TIP3   OH233263   4.754   1.674   9.471 -0.0514  0.1866  0.4855
 3023TIP3    H133264   4.829   1.618   9.452  1.0097  1.5664  0.4834
 3023TIP3    H233265   4.731   1.654   9.562  0.7913  0.2896  0.7257
 3024TIP3   OH233266   2.636   2.944   9.528 -0.1800  0.4522  0.0374
 3024TIP3    H133267   2.569   2.896   9.578 -1.7832  1.9628 -0.5735
 3024TIP3    H233268   2.640   2.899   9.444 -0.0123  0.0203  0.2731
 3025TIP3   OH233269   6.421   1.595   7.692 -0.2332  0.3966  0.0642
 3025TIP3    H133270   6.455   1.540   7.622 -0.8036  0.3847 -0.2089
 3025TIP3    H233271   6.469   1.677   7.683 -0.2815  0.3852 -0.3266
 3026TIP3   OH233272   3.153   3.678   8.764 -0.6676 -0.1699  0.6548
 3026TIP3    H133273   3.059   3.679   8.782 -0.7740 -0.2152  0.1184
 3026TIP3    H233274   3.172   3.766   8.730 -1.1233 -1.0833 -2.1971
 3027TIP3   OH233275   1.674   2.024   8.525 -0.0875  0.1157 -0.5185
 3027TIP3    H133276   1.628   1.941   8.512  0.8584 -0.5083  0.0197
 3027TIP3    H233277   1.636   2.061   8.604  2.5449 -2.0388  1.9773
 3028TIP3   OH233278   0.670   2.206   7.634 -0.6013  0.8334 -0.3468
 3028TIP3    H133279   0.634   2.118   7.643  0.3358  0.5954  1.4887
 3028TIP3    H233280   0.696   2.212   7.542 -1.7751 -0.3527 -0.7881
 3029TIP3   OH233281   4.019   5.184   8.603  0.6766  0.3485 -0.2048
 3029TIP3    H133282   4.079   5.144   8.666  1.4153  0.1432 -1.0204
 3029TIP3    H233283   3.932   5.165   8.638  1.0744  1.0846  1.2603
 3030TIP3   OH233284   7.549   3.788   9.553  0.8583  0.5202 -0.4354
 3030TIP3    H133285   7.563   3.694   9.562 -2.0016  0.0568  0.2472
 3030TIP3    H233286   7.635   3.827   9.570  1.9191 -1.8915  0.1763
 3031TIP3   OH233287   5.364   1.078   7.421 -0.2759 -0.1121 -0.5813
 3031TIP3    H133288   5.363   1.096   7.516 -3.3460  0.1826 -0.5682
 3031TIP3    H233289   5.398   1.159   7.382  0.8868 -0.1825  0.2216
 3032TIP3   OH233290   4.029   3.406   7.280  0.9964  0.5754  0.0027
 3032TIP3    H133291   3.934   3.408   7.277  0.9764  2.0572  0.6019
 3032TIP3    H233292   4.055   3.360   7.200 -0.2032  1.2693 -0.8216
 3033TIP3   OH233293   1.604   0.909   7.939 -0.1467 -0.5713 -0.3999
 3033TIP3    H133294   1.587   0.991   7.893  0.0316  0.5012  1.3349
 3033TIP3    H233295   1.526   0.855   7.923 -0.7193  0.3404 -0.7463
 3034TIP3   OH233296   1.519   5.585   7.962  0.0430  0.0425  0.8512
 3034TIP3    H133297   1.608   5.590   7.927 -0.3717  0.7533 -0.1477
 3034TIP3    H233298   1.526   5.616   8.052  0.4790  2.0375  0.1660
 3035TIP3   OH233299   1.819   6.523   7.674 -0.9063  0.1911 -0.2360
 3035TIP3    H133300   1.832   6.482   7.588 -2.9705 -0.2775 -0.3848
 3035TIP3    H233301   1.764   6.599   7.656 -0.6374  0.5904  0.5789
 3036TIP3   OH233302   3.053   1.560   8.893 -0.6884  0.6854  0.1101
 3036TIP3    H133303   3.109   1.492   8.930 -1.4045 -0.9991 -1.6903
 3036TIP3    H233304   3.083   1.641   8.934  0.6284 -0.6103  1.8816
 3037TIP3   OH233305   0.390   0.753   9.601 -0.0040 -0.6903 -0.1255
 3037TIP3    H133306   0.427   0.734   9.688  0.8079 -1.2983 -0.5959
 3037TIP3    H233307   0.384   0.668   9.559 -0.9424 -0.4646 -0.4662
 3038TIP3   OH233308   5.040   5.078   8.516  0.6911  0.2006 -0.4445
 3038TIP3    H133309   5.048   4.996   8.468 -1.0955 -0.6037  0.5257
 3038TIP3    H233310   4.988   5.055   8.593 -1.0357  2.5067 -0.8247
 3039TIP3   OH233311   0.310   7.352   9.171  0.0172  0.3547 -1.0146
 3039TIP3    H133312   0.230   7.318   9.209  0.4504  1.2103  0.7699
 3039TIP3    H233313   0.352   7.276   9.130  0.1159 -0.9086  1.3045
 3040TIP3   OH233314   7.233   1.117   7.698 -0.0483 -0.4257 -0.2523
 3040TIP3    H133315   7.224   1.210   7.678 -0.1152  0.0437  1.7630
 3040TIP3    H233316   7.163   1.075   7.648 -1.5641  0.9131  0.6302
 3041TIP3   OH233317   3.204   6.455   9.452  0.0614 -0.1037  0.6229
 3041TIP3    H133318   3.285   6.447   9.502  1.8319 -0.5191 -2.1105
 3041TIP3    H233319   3.182   6.365   9.427 -0.8025  0.0937  0.6211
 3042TIP3   OH233320   2.646   5.896   7.515 -0.3106  0.0376  0.8271
 3042TIP3    H133321   2.707   5.849   7.458  0.8676 -0.4831  2.4507
 3042TIP3    H233322   2.575   5.833   7.531 -0.3683 -0.0091  0.4070
 3043TIP3   OH233323   3.705   2.342   9.538 -0.2179  0.3550  0.0862
 3043TIP3    H133324   3.726   2.349   9.631 -1.4354 -0.0884  0.4085
 3043TIP3    H233325   3.765   2.275   9.505  1.1884  1.5085  0.2208
 3044TIP3   OH233326   0.454   5.730   7.808 -0.1643 -0.2982 -0.6973
 3044TIP3    H133327   0.463   5.750   7.714 -0.6563  2.3928 -0.2612
 3044TIP3    H233328   0.360   5.742   7.825 -0.0561 -0.6654  0.1612
 3045TIP3   OH233329   6.608   2.081   8.910 -0.4230  0.4412  0.0697
 3045TIP3    H133330   6.580   2.027   8.984  0.1521 -1.5406 -1.0588
 3045TIP3    H233331   6.672   2.142   8.946 -0.7984  0.0999  1.3496
 3046TIP3   OH233332   4.904   0.420   9.369  0.2893  0.2627  0.8293
 3046TIP3    H133333   4.877   0.511   9.377 -0.3501  0.0571  1.0459
 3046TIP3    H233334   4.995   0.425   9.338  0.2466  0.9678  0.7946
 3047TIP3   OH233335   2.900   5.412   7.922 -0.3054  0.1712 -0.4884
 3047TIP3    H133336   2.943   5.378   8.000 -0.6204  1.8316  0.4465
 3047TIP3    H233337   2.930   5.354   7.852  0.6732 -0.8298  0.6985
 3048TIP3   OH233338   4.111   3.866   7.822 -0.2667  0.4777  0.2508
 3048TIP3    H133339   4.100   3.798   7.888 -1.2752  3.0254  2.9403
 3048TIP3    H233340   4.119   3.818   7.739 -2.3999 -2.8236  1.7323
 3049TIP3   OH233341   4.005   3.831   6.822 -0.1154 -0.6945 -0.1796
 3049TIP3    H133342   3.963   3.809   6.739 -2.1294  2.3303 -0.1150
 3049TIP3    H233343   3.967   3.770   6.885  1.2729 -2.8817 -1.3377
 3050TIP3   OH233344   5.359   1.109   9.036  0.3984  0.0140  0.0515
 3050TIP3    H133345   5.438   1.138   9.083 -0.1554  3.9847 -1.0864
 3050TIP3    H233346   5.391   1.047   8.971  2.6511  1.4513 -0.3355
 3051TIP3   OH233347   3.225   3.419   7.282  0.1316  0.7670  0.7770
 3051TIP3    H133348   3.265   3.381   7.205  0.1937  2.5364 -0.1230
 3051TIP3    H233349   3.289   3.406   7.352 -0.3789 -1.8048  0.8352
 3052TIP3   OH233350   2.355   1.216   7.759  0.3727 -0.1875 -0.3163
 3052TIP3    H133351   2.283   1.209   7.821  0.5635  0.2106 -0.0476
 3052TIP3    H233352   2.318   1.260   7.683  0.3027 -0.0866 -0.2235
 3053TIP3   OH233353   2.327   7.172   8.079  0.4340  0.2306 -0.4280
 3053TIP3    H133354   2.388   7.107   8.044 -1.3300 -0.8847 -1.5915
 3053TIP3    H233355   2.333   7.162   8.174  0.2836 -1.5967 -0.5718
 3054TIP3   OH233356   6.113   1.578   8.651  0.0810 -0.4332  0.5883
 3054TIP3    H133357   6.044   1.511   8.653  0.6244 -1.0403 -0.3469
 3054TIP3    H233358   6.124   1.599   8.558  0.6444  0.1974  0.7883
 3055TIP3   OH233359   7.616   4.133   7.579  0.3359  0.0371 -0.3701
 3055TIP3    H133360   7.547   4.131   7.512  0.3077 -1.5960 -0.3232
 3055TIP3    H233361   7.686   4.079   7.542 -0.1726 -1.9577  1.4036
 3056TIP3   OH233362   4.571   4.837   7.765 -0.2814  0.2779  0.3616
 3056TIP3    H133363   4.543   4.918   7.721 -0.6955 -0.8403 -1.5548
 3056TIP3    H233364   4.559   4.769   7.699 -0.5025 -1.4642  2.1195
 3057TIP3   OH233365   6.246   3.914   8.223 -0.9258  0.1173  0.7200
 3057TIP3    H133366   6.245   3.966   8.303  2.3091  0.6938  0.5297
 3057TIP3    H233367   6.304   3.841   8.242 -0.5009 -0.0205 -0.9061
 3058TIP3   OH233368   1.894   5.076   9.066  0.0372  0.2823  0.0022
 3058TIP3    H133369   1.908   5.002   9.126  0.4456  0.4198  0.0765
 3058TIP3    H233370   1.874   5.034   8.982  1.7837  0.0534 -0.3322
 3059TIP3   OH233371   1.312   5.006   9.495  0.0483  0.0033  0.0579
 3059TIP3    H133372   1.221   4.986   9.517 -0.6162  1.8380 -0.8178
 3059TIP3    H233373   1.310   5.027   9.402  0.9192  2.2177  0.4798
 3060TIP3   OH233374   4.722   2.041   9.187 -0.4909 -0.1871 -0.2844
 3060TIP3    H133375   4.751   2.001   9.269 -0.8198 -0.1955 -0.1721
 3060TIP3    H233376   4.733   2.135   9.201 -1.6495 -0.1076  0.2049
 3061TIP3   OH233377   4.063   5.808   9.461  0.3149 -0.0935  0.1615
 3061TIP3    H133378   4.005   5.838   9.392 -0.7725  1.0772  1.5223
 3061TIP3    H233379   4.070   5.713   9.447  0.1789  0.1316 -1.5612
 3062TIP3   OH233380   1.053   5.538   9.277 -0.0774 -0.2124 -0.0910
 3062TIP3    H133381   1.088   5.598   9.210  1.9810  0.3755  1.4192
 3062TIP3    H233382   1.009   5.595   9.340  2.3935 -0.1277  1.6618
 3063TIP3   OH233383   3.871   4.980   8.882  0.2117 -0.5205 -0.6230
 3063TIP3    H133384   3.895   5.066   8.917  2.5065  0.1414 -3.3836
 3063TIP3    H233385   3.778   4.988   8.859 -0.1711  0.4392  1.1226
 3064TIP3   OH233386   6.949   0.574   8.522 -0.9557 -0.7555  0.9842
 3064TIP3    H133387   6.904   0.637   8.467  1.3886  0.2407  0.0712
 3064TIP3    H233388   6.995   0.517   8.461  2.9817  1.3314  1.6678
 3065TIP3   OH233389   1.527   3.887   9.034 -0.0443 -0.5762  0.3790
 3065TIP3    H133390   1.525   3.966   8.979  0.9028 -0.9012 -0.1422
 3065TIP3    H233391   1.444   3.843   9.016 -1.1552  0.9113  1.6118
 3066TIP3   OH233392   2.732   1.473   9.212 -0.2819 -0.4530 -0.4358
 3066TIP3    H133393   2.784   1.428   9.147  1.8159  1.7209 -0.3950
 3066TIP3    H233394   2.729   1.564   9.182 -2.1596 -0.0581  0.7696
 3067TIP3   OH233395   0.918   2.229   9.647  0.0363 -0.3271 -0.2296
 3067TIP3    H133396   0.933   2.149   9.596  2.7603 -0.0157 -0.0825
 3067TIP3    H233397   1.004   2.249   9.685 -0.3599  3.0175 -0.7710
 3068TIP3   OH233398   4.164   2.806   8.295  0.4036  0.3894  0.2346
 3068TIP3    H133399   4.234   2.755   8.335 -0.5101 -1.0125  0.1209
 3068TIP3    H233400   4.206   2.851   8.222  1.5417  0.9759  1.2315
 3069TIP3   OH233401   3.994   2.701   9.092 -0.2810  0.0247 -0.0735
 3069TIP3    H133402   3.999   2.767   9.161  1.4359  0.2410 -0.3363
 3069TIP3    H233403   3.981   2.752   9.012 -1.5150 -0.1704 -0.0153
 3070TIP3   OH233404   5.678   6.893   7.954  0.0868  0.2001 -0.0410
 3070TIP3    H133405   5.761   6.868   7.913  0.4038  0.4503  0.4397
 3070TIP3    H233406   5.638   6.956   7.894  0.2613  0.1070 -0.2532
 3071TIP3   OH233407   0.284   2.703   6.877  0.0156 -0.1085  0.2713
 3071TIP3    H133408   0.290   2.707   6.782  0.9501 -0.9319  0.2836
 3071TIP3    H233409   0.239   2.784   6.901  3.1554  2.1050 -0.6240
 3072TIP3   OH233410   5.609   1.360   7.653 -0.4590 -0.0638 -0.3790
 3072TIP3    H133411   5.664   1.405   7.718  1.6215 -0.0047 -2.0968
 3072TIP3    H233412   5.557   1.431   7.613  0.1637  0.2929 -0.5709
 3073TIP3   OH233413   2.274   1.256   7.472  0.0249  0.0486  0.5055
 3073TIP3    H133414   2.180   1.276   7.468  0.0115  0.2167  1.3746
 3073TIP3    H233415   2.306   1.275   7.384 -1.5801 -4.4392 -1.3839
 3074TIP3   OH233416   6.998   5.044   7.705 -0.8390  0.2284 -0.8288
 3074TIP3    H133417   6.982   4.963   7.657 -0.2935 -0.1741 -0.3430
 3074TIP3    H233418   7.028   5.106   7.639 -0.9501 -0.0592 -1.1506
 3075TIP3   OH233419   5.995   3.767   7.213  0.0985  0.2732  0.2963
 3075TIP3    H133420   5.991   3.773   7.309 -1.0552 -0.0653  0.2853
 3075TIP3    H233421   5.985   3.674   7.195 -1.4605  0.5194 -0.2060
 3076TIP3   OH233422   4.594   2.462   6.842 -0.4427  0.0613 -0.0086
 3076TIP3    H133423   4.619   2.374   6.870 -2.4827 -0.4894  0.2393
 3076TIP3    H233424   4.622   2.520   6.913 -1.2566 -0.7186  0.9724
 3077TIP3   OH233425   7.263   5.973   8.431  0.1793  0.0380 -0.1909
 3077TIP3    H133426   7.326   5.942   8.366  0.1395 -0.0295 -0.1979
 3077TIP3    H233427   7.313   5.980   8.512  0.8048  2.3058 -0.7020
 3078TIP3   OH233428   1.168   6.907   6.909 -0.0461  0.1800 -0.9023
 3078TIP3    H133429   1.147   6.993   6.944 -0.0384  0.8203 -2.3900
 3078TIP3    H233430   1.261   6.895   6.928  0.9526  2.1590 -3.8360
 3079TIP3   OH233431   6.186   5.865   7.768 -0.2936 -0.2397 -0.5408
 3079TIP3    H133432   6.270   5.870   7.723 -0.9275  0.2027 -1.7079
 3079TIP3    H233433   6.128   5.923   7.718 -1.0170  0.2918  0.8750
 3080TIP3   OH233434   6.553   0.942   9.316  0.3851 -0.2854  0.0012
 3080TIP3    H133435   6.459   0.957   9.326  0.4548  2.4177 -2.1094
 3080TIP3    H233436   6.593   0.996   9.384  0.3980  1.4723 -1.3176
 3081TIP3   OH233437   2.247   3.470   7.111 -0.3754  0.2399  0.6134
 3081TIP3    H133438   2.265   3.413   7.185  1.4415 -1.1436 -0.7927
 3081TIP3    H233439   2.284   3.424   7.035 -1.8245  1.7403 -1.1220
 3082TIP3   OH233440   3.913   0.824   7.308  0.2705  0.1659  0.2563
 3082TIP3    H133441   3.859   0.747   7.325  0.1713  0.4588  1.3140
 3082TIP3    H233442   4.001   0.788   7.293  0.2963 -0.1493  1.0812
 3083TIP3   OH233443   0.953   0.292   9.289 -0.2306  0.5537  0.0443
 3083TIP3    H133444   0.903   0.217   9.322  0.3076 -0.4541 -1.3133
 3083TIP3    H233445   1.007   0.319   9.363 -0.3336 -0.5026  0.5299
 3084TIP3   OH233446   5.707   0.528   9.378 -0.1018  0.6151 -0.3312
 3084TIP3    H133447   5.652   0.583   9.434 -1.2987  0.8002 -1.6210
 3084TIP3    H233448   5.686   0.557   9.289  1.3384 -0.0386 -0.9096
 3085TIP3   OH233449   7.145   7.089   8.127  0.5289 -0.0530 -0.1955
 3085TIP3    H133450   7.234   7.078   8.094  1.2068 -1.3591  1.8911
 3085TIP3    H233451   7.105   7.003   8.117 -0.6307  0.5783 -1.3310
 3086TIP3   OH233452   2.366   1.195   8.859 -0.4752  0.5199  0.4712
 3086TIP3    H133453   2.395   1.109   8.828  0.4920  1.1269 -0.4125
 3086TIP3    H233454   2.437   1.226   8.915 -1.0490  0.5351  1.1997
 3087TIP3   OH233455   4.636   2.695   8.527 -0.0336 -0.1089 -0.0275
 3087TIP3    H133456   4.719   2.735   8.554  0.9070 -1.7119 -0.4212
 3087TIP3    H233457   4.606   2.647   8.604  0.5775 -1.3569 -0.5378
 3088TIP3   OH233458   5.572   3.847   8.024  0.4373 -0.1905 -0.5345
 3088TIP3    H133459   5.494   3.867   8.076  1.3450  1.8281  0.1639
 3088TIP3    H233460   5.645   3.871   8.081  1.5465 -0.6082 -1.7292
 3089TIP3   OH233461   6.901   1.322   6.746 -0.2134  0.0386 -0.5068
 3089TIP3    H133462   6.810   1.303   6.727 -0.7140  0.4411  1.3557
 3089TIP3    H233463   6.908   1.418   6.742 -0.3810  0.1613  1.3271
 3090TIP3   OH233464   6.784   3.626   8.806 -0.4347  0.5735  0.9199
 3090TIP3    H133465   6.861   3.616   8.862 -1.5978  0.4151  2.5599
 3090TIP3    H233466   6.746   3.710   8.831 -0.9328  0.5505  0.2871
 3091TIP3   OH233467   3.612   7.301   8.706 -0.5536  0.4530 -0.5306
 3091TIP3    H133468   3.636   7.390   8.682  2.8444 -0.7116 -2.1042
 3091TIP3    H233469   3.517   7.304   8.718 -0.5498  4.2666 -0.2792
 3092TIP3   OH233470   0.820   1.057   8.020  0.4264  0.0836  0.0457
 3092TIP3    H133471   0.785   0.983   7.971  0.8906  0.4415 -0.8432
 3092TIP3    H233472   0.818   1.131   7.959 -2.1543  1.4299  1.5731
 3093TIP3   OH233473   6.199   4.108   8.031 -0.1336 -0.0526 -0.2295
 3093TIP3    H133474   6.215   4.016   8.051  2.9262  0.2458 -0.9203
 3093TIP3    H233475   6.104   4.118   8.043 -0.2694 -2.6985  2.1560
 3094TIP3   OH233476   3.121   0.887   8.129 -0.0638 -0.4386 -0.2481
 3094TIP3    H133477   3.063   0.842   8.068  0.5019 -0.4946 -0.7575
 3094TIP3    H233478   3.109   0.841   8.212  1.1472 -2.1413 -0.9621
 3095TIP3   OH233479   6.762   2.334   8.025  0.2288  0.2602 -0.5423
 3095TIP3    H133480   6.698   2.284   7.974  0.7781  1.6226 -2.6845
 3095TIP3    H233481   6.842   2.281   8.022 -0.4313 -0.9291  1.2347
 3096TIP3   OH233482   4.120   6.909   8.071 -0.5012 -0.0562  0.5367
 3096TIP3    H133483   4.102   6.988   8.121  0.5267 -0.0752  0.9736
 3096TIP3    H233484   4.058   6.844   8.105 -2.4733  0.9651 -0.9662
 3097TIP3   OH233485   5.111   1.179   8.367  0.0087 -0.1943 -0.1110
 3097TIP3    H133486   5.182   1.222   8.319  0.0312 -1.1340 -0.9591
 3097TIP3    H233487   5.092   1.100   8.316 -0.4694 -0.8519  1.0514
 3098TIP3   OH233488   4.778   1.736   7.100  0.2353 -0.5000 -0.3326
 3098TIP3    H133489   4.821   1.732   7.014  0.5450  0.4372 -0.2289
 3098TIP3    H233490   4.690   1.768   7.082  0.1326 -0.7882 -0.3521
 3099TIP3   OH233491   3.312   5.660   9.363 -0.6550  0.2399  0.4162
 3099TIP3    H133492   3.281   5.639   9.451 -0.3044 -0.2552  0.4266
 3099TIP3    H233493   3.354   5.579   9.333 -0.0363  0.6675  0.1192
 3100TIP3   OH233494   1.072   2.928   6.990 -0.1850  0.1166 -0.0261
 3100TIP3    H133495   0.998   2.873   7.013 -0.2655  0.0441 -0.4567
 3100TIP3    H233496   1.110   2.887   6.912 -0.0119  0.4513 -0.1220
 3101TIP3   OH233497   6.754   1.774   7.839  0.4433 -0.3923  0.1897
 3101TIP3    H133498   6.662   1.749   7.840  0.1677  0.5947  0.4968
 3101TIP3    H233499   6.756   1.858   7.794  1.1393 -0.2305  0.5047
 3102TIP3   OH233500   5.223   5.621   7.769  0.0177 -0.6970  0.1002
 3102TIP3    H133501   5.255   5.612   7.680  1.0849  0.2375  0.3669
 3102TIP3    H233502   5.259   5.544   7.815  0.5038 -0.5349  0.0025
 3103TIP3   OH233503   0.904   6.505   7.228 -0.3787  0.2146 -0.2232
 3103TIP3    H133504   0.864   6.418   7.228 -0.0093  0.0426 -1.1624
 3103TIP3    H233505   0.897   6.535   7.138 -2.9759  2.3263  0.5363
 3104TIP3   OH233506   2.058   4.017   8.770  0.6402  0.0639  0.0502
 3104TIP3    H133507   2.078   4.084   8.835 -1.3812 -0.2993  1.1165
 3104TIP3    H233508   2.040   3.939   8.821 -1.5835 -0.0874 -0.8510
 3105TIP3   OH233509   0.551   6.504   9.483 -0.0683  0.2750 -0.2395
 3105TIP3    H133510   0.489   6.575   9.470 -0.7985 -0.2942  0.1037
 3105TIP3    H233511   0.497   6.427   9.499  0.6782 -0.5738 -1.6039
 3106TIP3   OH233512   0.583   7.439   6.649 -0.3509  0.2953  0.0429
 3106TIP3    H133513   0.671   7.471   6.628  0.2416 -0.5178  1.1799
 3106TIP3    H233514   0.535   7.517   6.675 -0.3681  0.9474 -1.7797
 3107TIP3   OH233515   7.291   2.689   7.740 -0.5272  0.1930  0.1966
 3107TIP3    H133516   7.369   2.659   7.787  1.2355  2.3204 -1.1252
 3107TIP3    H233517   7.230   2.715   7.809 -0.7334 -2.8165  1.2977
 3108TIP3   OH233518   1.704   2.592   9.126  0.1636 -0.0774 -0.3497
 3108TIP3    H133519   1.641   2.559   9.191 -1.6039 -1.9433 -2.7891
 3108TIP3    H233520   1.775   2.528   9.127 -0.5494 -0.9126 -1.1677
 3109TIP3   OH233521   2.617   6.530   7.817  0.6409  0.2425  0.4090
 3109TIP3    H133522   2.558   6.568   7.882 -1.9742  0.5801 -1.9356
 3109TIP3    H233523   2.559   6.482   7.758  3.0536 -1.4169 -0.7905
 3110TIP3   OH233524   3.466   2.060   6.846 -0.0806 -0.2666  0.3658
 3110TIP3    H133525   3.527   2.039   6.775 -0.9066  0.3166 -0.5414
 3110TIP3    H233526   3.379   2.051   6.806 -0.5655 -0.2197  1.3901
 3111TIP3   OH233527   5.442   5.077   7.783 -0.2274  0.5296 -0.6580
 3111TIP3    H133528   5.508   5.144   7.764 -0.2673  0.8229  0.2177
 3111TIP3    H233529   5.470   5.039   7.866 -1.0596  0.5282 -0.3764
 3112TIP3   OH233530   6.491   2.744   8.690  0.0449  0.3079 -0.8498
 3112TIP3    H133531   6.444   2.789   8.620 -1.1559 -0.7848 -0.7894
 3112TIP3    H233532   6.485   2.651   8.667  0.2802 -0.0122  0.3140
 3113TIP3   OH233533   1.884   1.095   8.570 -0.1206 -0.5285  0.4231
 3113TIP3    H133534   1.954   1.083   8.506 -0.5252 -0.0114 -0.1249
 3113TIP3    H233535   1.922   1.067   8.653  0.0484 -2.3588 -0.2174
 3114TIP3   OH233536   1.211   6.117   6.963  0.0173  0.1765 -0.0653
 3114TIP3    H133537   1.303   6.091   6.959  0.3321  1.2781 -0.3916
 3114TIP3    H233538   1.195   6.162   6.880 -0.5363  0.8461  0.3889
 3115TIP3   OH233539   0.801   7.038   6.791 -0.3372  0.3750  0.0274
 3115TIP3    H133540   0.813   7.105   6.857 -1.0486  0.7819 -0.2375
 3115TIP3    H233541   0.750   7.081   6.722 -0.1066 -0.2015 -0.5180
 3116TIP3   OH233542   5.076   4.568   7.062  0.3318  0.0978 -0.0288
 3116TIP3    H133543   5.029   4.539   6.984  0.4626 -2.4658  0.7668
 3116TIP3    H233544   5.009   4.575   7.130  0.8024 -2.0374  0.7094
 3117TIP3   OH233545   0.244   1.321   7.544  0.5155  0.0586  0.4449
 3117TIP3    H133546   0.308   1.252   7.559  0.3727 -0.0393  0.5973
 3117TIP3    H233547   0.174   1.303   7.606  0.9109  0.8929  1.1593
 3118TIP3   OH233548   2.421   1.519   8.904 -0.1798  0.4394  0.3827
 3118TIP3    H133549   2.375   1.583   8.849 -1.3402 -0.3655  0.3803
 3118TIP3    H233550   2.508   1.512   8.864 -0.7486  0.4242 -0.9090
 3119TIP3   OH233551   1.152   5.281   9.348 -0.0544  0.1581  0.2216
 3119TIP3    H133552   1.241   5.293   9.316 -0.7515 -0.1034 -1.9764
 3119TIP3    H233553   1.116   5.370   9.352 -0.0804  0.1605 -0.0732
 3120TIP3   OH233554   1.040   0.577   9.255 -0.1175 -0.0261  0.4607
 3120TIP3    H133555   0.998   0.499   9.292 -0.6176  0.3258  0.6371
 3120TIP3    H233556   1.006   0.650   9.306 -0.4916  0.4274 -0.4033
 3121TIP3   OH233557   1.267   2.099   9.305 -0.5154  0.2519 -0.4274
 3121TIP3    H133558   1.286   2.010   9.335 -0.0976  1.0445  1.8452
 3121TIP3    H233559   1.341   2.122   9.249 -0.8338 -0.9457 -1.3954
 3122TIP3   OH233560   4.933   0.354   8.876  0.4937 -0.0241 -0.2913
 3122TIP3    H133561   5.011   0.379   8.826  0.6372 -0.3115 -0.2112
 3122TIP3    H233562   4.908   0.434   8.922 -0.0771  0.4553 -1.3987
 3123TIP3   OH233563   1.644   7.273   7.763  0.6733 -0.3578 -0.3099
 3123TIP3    H133564   1.634   7.364   7.735 -0.3593 -0.4357 -0.2439
 3123TIP3    H233565   1.685   7.230   7.688 -1.9863 -0.5426 -1.8023
 3124TIP3   OH233566   0.154   0.855   7.606  0.2426  0.5556  0.2120
 3124TIP3    H133567   0.166   0.921   7.674  1.0377 -0.9896  1.6428
 3124TIP3    H233568   0.210   0.782   7.633  0.1096 -0.3586 -1.7963
 3125TIP3   OH233569   1.818   5.356   8.065 -0.3611  0.3567 -0.4347
 3125TIP3    H133570   1.889   5.303   8.103 -0.2576 -1.3252 -2.6927
 3125TIP3    H233571   1.746   5.294   8.052 -1.1959  1.3753 -0.8379
 3126TIP3   OH233572   5.367   0.020   7.447 -0.4044 -0.3384 -0.0208
 3126TIP3    H133573   5.450  -0.007   7.486 -0.4351 -1.1308 -0.4816
 3126TIP3    H233574   5.382   0.012   7.352 -0.6136  0.6968 -0.1525
 3127TIP3   OH233575   0.552   7.562   7.951  0.1706  0.2712  0.6341
 3127TIP3    H133576   0.528   7.470   7.963 -0.9401  0.6040  1.0997
 3127TIP3    H233577   0.476   7.601   7.909  0.7729  0.9159  0.1195
 3128TIP3   OH233578   5.660   0.432   8.923  0.5331  0.5605 -0.3430
 3128TIP3    H133579   5.682   0.491   8.994  0.6996 -1.5158  1.4410
 3128TIP3    H233580   5.595   0.372   8.960  0.4849 -0.4660 -1.9769
 3129TIP3   OH233581   1.081   7.436   6.632  0.3380 -0.5740  0.0561
 3129TIP3    H133582   1.157   7.378   6.631  0.6464 -0.1928  0.9045
 3129TIP3    H233583   1.090   7.487   6.712 -0.3910  0.0411 -0.2385
 3130TIP3   OH233584   4.004   3.128   8.734  0.3795  0.6601  0.5421
 3130TIP3    H133585   3.914   3.098   8.744  0.8059 -1.4976 -1.1747
 3130TIP3    H233586   4.028   3.165   8.819 -1.6302 -0.0926  1.4798
 3131TIP3   OH233587   7.515   2.717   7.366  0.5036  0.0059 -0.4595
 3131TIP3    H133588   7.483   2.653   7.302  0.9808  0.7909 -1.5124
 3131TIP3    H233589   7.518   2.668   7.448 -0.5228 -0.9157 -0.9338
 3132TIP3   OH233590   0.993   6.557   8.241  0.4821 -0.1803 -0.3690
 3132TIP3    H133591   1.048   6.504   8.184  0.6274 -0.0315 -0.3656
 3132TIP3    H233592   0.988   6.507   8.322 -1.7003 -1.6135 -1.2920
 3133TIP3   OH233593   6.914   3.000   8.368  0.0166  0.0117  0.0056
 3133TIP3    H133594   6.941   3.059   8.437 -0.2912  1.0166 -0.7101
 3133TIP3    H233595   6.974   2.926   8.375  0.2282  0.2699  1.0915
 3134TIP3   OH233596   3.089   1.654   7.037  0.0684  0.5999 -0.4716
 3134TIP3    H133597   3.010   1.637   6.986  0.0677 -0.0921 -0.2581
 3134TIP3    H233598   3.150   1.693   6.975 -0.3616  0.9256 -0.6920
 3135TIP3   OH233599   7.043   4.864   7.484 -0.9400 -0.3500 -0.1490
 3135TIP3    H133600   6.990   4.784   7.477 -1.0040 -0.4519  1.1952
 3135TIP3    H233601   7.111   4.841   7.548 -0.4187  0.3893 -0.4329
 3136TIP3   OH233602   3.160   4.852   6.989  0.3829 -0.4434  0.1895
 3136TIP3    H133603   3.148   4.865   6.894  1.2130 -1.9011 -0.1333
 3136TIP3    H233604   3.108   4.775   7.010 -0.7134  0.5209  1.1756
 3137TIP3   OH233605   7.648   0.093   8.762 -0.1106 -0.2052  0.9071
 3137TIP3    H133606   7.596   0.095   8.682  0.0716 -1.5326  0.7401
 3137TIP3    H233607   7.591   0.131   8.829  0.3804  2.6831 -0.1686
 3138TIP3   OH233608   4.416   7.598   7.354  0.1590  0.4923  0.0757
 3138TIP3    H133609   4.348   7.566   7.295  2.2440 -0.8280 -1.7713
 3138TIP3    H233610   4.380   7.678   7.392 -2.1733  0.1343 -1.2367
 3139TIP3   OH233611   7.058   2.647   9.422 -0.0358  0.1791 -0.0879
 3139TIP3    H133612   7.095   2.565   9.455 -0.3446  0.1965  0.3061
 3139TIP3    H233613   6.977   2.620   9.379 -1.3764  0.5045  2.0564
 3140TIP3   OH233614   3.028   4.471   7.866  0.7227  0.0173  0.6711
 3140TIP3    H133615   3.118   4.459   7.835  0.5345  0.8836 -0.2787
 3140TIP3    H233616   3.018   4.565   7.875 -0.7997  0.1623 -1.6310
 3141TIP3   OH233617   3.769   5.882   9.391  0.4129 -0.3109  0.1260
 3141TIP3    H133618   3.698   5.929   9.348 -1.0373 -0.9960  1.6545
 3141TIP3    H233619   3.841   5.883   9.328 -0.2860  2.0684 -0.7317
 3142TIP3   OH233620   7.094   6.521   7.181 -0.0167 -0.0092 -0.0529
 3142TIP3    H133621   7.050   6.574   7.115  0.0207  0.7090  0.4889
 3142TIP3    H233622   7.187   6.529   7.160 -0.0520 -0.3826 -0.3544
 3143TIP3   OH233623   2.680   0.624   9.410  0.6615  0.5381  0.1750
 3143TIP3    H133624   2.589   0.656   9.405  0.1389 -1.0677 -2.8609
 3143TIP3    H233625   2.727   0.675   9.344  0.9611 -1.3912 -1.1744
 3144TIP3   OH233626   3.404   3.333   8.418  0.0804 -0.0117  0.0989
 3144TIP3    H133627   3.313   3.348   8.444  0.6419  2.1223  1.0254
 3144TIP3    H233628   3.439   3.420   8.403  1.3211 -0.8716 -2.7606
 3145TIP3   OH233629   0.652   5.613   9.121 -0.3184 -0.1364 -0.4849
 3145TIP3    H133630   0.720   5.681   9.131  0.1447 -0.6273 -0.2275
 3145TIP3    H233631   0.582   5.641   9.180 -0.1171  0.1039 -0.3566
 3146TIP3   OH233632   7.420   0.594   8.300 -0.0843  0.2316 -0.4263
 3146TIP3    H133633   7.481   0.594   8.373  0.3509  1.5073 -0.7703
 3146TIP3    H233634   7.464   0.644   8.231 -1.0299  0.1796 -1.0947
 3147TIP3   OH233635   5.972   6.368   7.551 -0.4568 -0.3512  0.1111
 3147TIP3    H133636   6.009   6.449   7.585 -1.5084  0.3711 -0.4089
 3147TIP3    H233637   5.915   6.337   7.622 -1.2984  0.2346 -0.2880
 3148TIP3   OH233638   7.016   1.902   8.947 -0.1814  0.4184 -0.0689
 3148TIP3    H133639   7.030   1.974   8.886 -2.3073  0.4038 -0.6639
 3148TIP3    H233640   7.091   1.844   8.934  0.9652  1.9296 -0.4193
 3149TIP3   OH233641   2.402   0.629   6.506 -0.0857 -0.5119  0.0780
 3149TIP3    H133642   2.313   0.611   6.476  0.8107 -3.5508 -1.1049
 3149TIP3    H233643   2.458   0.581   6.445  2.3473  0.6345  1.2852
 3150TIP3   OH233644   3.380   1.086   9.190 -0.0743 -0.1741  0.2503
 3150TIP3    H133645   3.320   1.090   9.265  0.8062  0.7760  0.9156
 3150TIP3    H233646   3.405   1.176   9.174  0.3247 -0.4471 -0.7446
 3151TIP3   OH233647   4.032   6.652   7.192 -0.3729  0.2417 -0.2149
 3151TIP3    H133648   3.958   6.629   7.248 -0.7698 -0.6889 -1.0962
 3151TIP3    H233649   4.069   6.568   7.166 -1.3341  0.5610 -2.8365
 3152TIP3   OH233650   1.372   0.483   8.616  0.2008 -0.1874  0.6401
 3152TIP3    H133651   1.311   0.553   8.592  0.1209 -0.0062  1.3576
 3152TIP3    H233652   1.328   0.403   8.588  1.0278  0.1169 -1.7487
 3153TIP3   OH233653   3.856   4.581   8.525  0.1862 -0.2659 -0.1758
 3153TIP3    H133654   3.902   4.652   8.570 -0.2116 -0.7283  0.9920
 3153TIP3    H233655   3.769   4.617   8.506  0.6525  0.2530 -1.4634
 3154TIP3   OH233656   3.378   0.657   8.951  0.7809  0.3988 -0.3110
 3154TIP3    H133657   3.409   0.648   9.041  0.8057  0.3327 -0.3264
 3154TIP3    H233658   3.412   0.742   8.923 -1.1451  1.4958  0.4871
 3155TIP3   OH233659   5.981   6.639   7.637  0.4337 -0.4828  0.6926
 3155TIP3    H133660   5.959   6.698   7.709 -4.7665 -0.0037 -0.8866
 3155TIP3    H233661   6.005   6.697   7.565 -1.9340 -0.3208 -0.0434
 3156TIP3   OH233662   4.440   3.790   7.492 -0.4787 -0.4957  0.3976
 3156TIP3    H133663   4.501   3.771   7.564  0.8751  1.1534 -0.2210
 3156TIP3    H233664   4.434   3.886   7.492 -0.3735 -0.4564 -1.7122
 3157TIP3   OH233665   0.268   3.707   7.465  0.0976 -0.0260 -0.0703
 3157TIP3    H133666   0.195   3.652   7.435  0.6194 -0.1865 -1.0578
 3157TIP3    H233667   0.345   3.651   7.459  0.3801  0.2726  0.5914
 3158TIP3   OH233668   0.734   4.604   9.146  0.2392  0.3704  0.4505
 3158TIP3    H133669   0.675   4.563   9.082 -0.7512 -1.5065  2.4042
 3158TIP3    H233670   0.678   4.662   9.197  0.2200 -0.6740  1.6881
 3159TIP3   OH233671   2.995   6.102   7.760 -0.3865  0.5314  0.0288
 3159TIP3    H133672   2.976   6.173   7.821 -2.7608  0.5302 -0.6114
 3159TIP3    H233673   3.048   6.040   7.811 -0.3974  1.5733  1.3630
 3160TIP3   OH233674   6.271   1.381   7.531  0.0985 -0.5098 -0.4570
 3160TIP3    H133675   6.180   1.357   7.551 -0.1634  1.7082  1.4509
 3160TIP3    H233676   6.264   1.455   7.471  0.7065 -0.9749 -1.1182
 3161TIP3   OH233677   3.791   2.397   6.787 -0.0124  0.0246  0.2621
 3161TIP3    H133678   3.820   2.344   6.713 -0.9254 -0.2569  0.0890
 3161TIP3    H233679   3.857   2.466   6.795 -0.3605  0.6030 -1.4008
 3162TIP3   OH233680   1.781   6.379   9.373  0.0368 -0.7346  0.9378
 3162TIP3    H133681   1.791   6.289   9.403  0.9291 -0.3760  1.7654
 3162TIP3    H233682   1.759   6.371   9.280  1.7989 -1.7921  0.5554
 3163TIP3   OH233683   4.673   3.500   8.078  0.5816  0.0706 -0.1802
 3163TIP3    H133684   4.740   3.441   8.044  1.5292  1.3744 -0.6617
 3163TIP3    H233685   4.720   3.559   8.137 -0.3633  0.2350  0.4240
 3164TIP3   OH233686   0.499   0.381   9.323  0.4606 -0.4486  0.2122
 3164TIP3    H133687   0.526   0.429   9.244  0.1872 -0.9059 -0.1656
 3164TIP3    H233688   0.522   0.290   9.304 -0.2780 -0.6724  0.3569
 3165TIP3   OH233689   1.484   4.671   8.573  0.3834 -0.1363 -0.0212
 3165TIP3    H133690   1.389   4.660   8.586  0.4091  0.0156  0.3051
 3165TIP3    H233691   1.513   4.586   8.540  0.1700 -0.2536  0.0880
 3166TIP3   OH233692   3.157   4.855   8.241  0.1585 -0.2669  0.3481
 3166TIP3    H133693   3.073   4.834   8.283  0.9190 -0.2565  1.9487
 3166TIP3    H233694   3.136   4.928   8.182 -0.9669 -0.2773  0.7025
 3167TIP3   OH233695   1.016   7.039   9.336  1.1283  0.0341 -0.5408
 3167TIP3    H133696   0.948   7.102   9.361 -0.5706 -1.5328 -0.9377
 3167TIP3    H233697   1.040   7.063   9.247  0.1285 -0.1304 -0.8759
 3168TIP3   OH233698   1.803   4.553   8.470  0.3079 -0.0296 -0.6836
 3168TIP3    H133699   1.828   4.570   8.561 -1.5875 -1.6837  0.2138
 3168TIP3    H233700   1.802   4.457   8.463 -0.4072  0.0628 -2.1988
 3169TIP3   OH233701   5.763   3.033   7.772  0.4666  0.4491 -0.1685
 3169TIP3    H133702   5.844   3.068   7.809  0.3235 -0.0687  0.6736
 3169TIP3    H233703   5.704   3.026   7.848 -0.0916  0.0467 -0.6313
 3170TIP3   OH233704   6.324   2.843   7.608 -0.3443 -0.1513 -0.2639
 3170TIP3    H133705   6.324   2.748   7.618  1.5104 -0.2622 -0.8588
 3170TIP3    H233706   6.251   2.861   7.549 -1.4414 -1.0711  0.7726
 3171TIP3   OH233707   6.830   5.439   8.907 -0.0375  0.2931  0.8456
 3171TIP3    H133708   6.891   5.505   8.874 -0.9574  0.7528  0.0230
 3171TIP3    H233709   6.885   5.363   8.927  0.8300  0.7831  0.3454
 3172TIP3   OH233710   6.714   1.893   8.405  0.3550  0.2602  0.1418
 3172TIP3    H133711   6.691   1.848   8.324  0.4511  1.4900 -0.5837
 3172TIP3    H233712   6.746   1.823   8.462  2.5103 -0.3411 -1.6733
 3173TIP3   OH233713   7.143   7.592   8.054 -0.6313  0.0523  0.1129
 3173TIP3    H133714   7.078   7.537   8.098  0.7932 -0.6704  1.4429
 3173TIP3    H233715   7.224   7.540   8.057  0.2823  1.3858 -0.4167
 3174TIP3   OH233716   4.413   1.360   7.911  0.2586  0.0023 -0.6114
 3174TIP3    H133717   4.458   1.285   7.872  0.0992 -1.1937  1.3766
 3174TIP3    H233718   4.353   1.390   7.843 -0.1324 -2.0926 -1.2645
 3175TIP3   OH233719   0.114   4.195   7.090 -0.2638  0.8117  0.5430
 3175TIP3    H133720   0.068   4.274   7.117 -1.6729  0.3116 -0.2739
 3175TIP3    H233721   0.091   4.130   7.157  1.4738  1.2500  1.6117
 3176TIP3   OH233722   5.797   7.190   8.727  0.0868 -0.9159  0.0665
 3176TIP3    H133723   5.878   7.173   8.775  0.0362 -1.1795  0.0619
 3176TIP3    H233724   5.825   7.242   8.652  0.3679 -1.6117 -0.3284
 3177TIP3   OH233725   3.626   7.193   7.723 -0.2327 -0.0661 -0.4293
 3177TIP3    H133726   3.679   7.268   7.751 -0.5297 -0.1555  0.3886
 3177TIP3    H233727   3.582   7.163   7.802 -0.1190 -1.1173 -0.7447
 3178TIP3   OH233728   3.428   2.664   7.660  0.6604 -0.2425 -0.2866
 3178TIP3    H133729   3.495   2.607   7.700  0.8468  0.6048  0.6344
 3178TIP3    H233730   3.385   2.706   7.734  0.8608  1.1974 -0.9663
 3179TIP3   OH233731   1.639   3.953   7.589  0.3212 -0.8034  0.4338
 3179TIP3    H133732   1.710   3.987   7.535 -0.5955 -0.0715 -0.3659
 3179TIP3    H233733   1.668   3.966   7.679  1.6054 -1.4347  0.1295
 3180TIP3   OH233734   3.889   1.337   8.704 -0.2201  0.0346  0.2670
 3180TIP3    H133735   3.944   1.415   8.694 -0.0104 -0.0914  0.4368
 3180TIP3    H233736   3.814   1.353   8.646  1.2207 -0.9470 -1.9731
 3181TIP3   OH233737   4.379   4.469   9.018  0.1723  0.2838 -0.1911
 3181TIP3    H133738   4.317   4.397   9.026  1.5133 -0.8242  0.8427
 3181TIP3    H233739   4.444   4.437   8.954  0.0361  1.1651 -0.7884
 3182TIP3   OH233740   0.115   7.276   7.163 -0.3802 -0.6731  0.0450
 3182TIP3    H133741   0.041   7.288   7.223 -0.2184 -0.9933  0.3170
 3182TIP3    H233742   0.104   7.186   7.131 -0.2809 -0.6143 -0.1504
 3183TIP3   OH233743   5.806   1.519   7.361  0.0911 -0.1885  0.1037
 3183TIP3    H133744   5.859   1.440   7.353  0.6217  0.1287  0.4872
 3183TIP3    H233745   5.721   1.494   7.324  0.8048 -0.3883 -1.4820
 3184TIP3   OH233746   2.708   0.726   7.785  0.1860  0.0952 -0.5843
 3184TIP3    H133747   2.710   0.638   7.748  0.6451 -0.4618  0.6887
 3184TIP3    H233748   2.617   0.738   7.813 -0.0516  0.3360 -1.4422
 3185TIP3   OH233749   1.081   0.505   7.218 -0.2579  0.2418  0.4302
 3185TIP3    H133750   1.068   0.433   7.157 -0.0510  0.6544 -0.1103
 3185TIP3    H233751   1.100   0.581   7.163  0.0003  0.6105  1.0047
 3186TIP3   OH233752   5.278   7.251   8.981  0.3497 -0.3441 -0.0943
 3186TIP3    H133753   5.184   7.238   8.980  0.2995 -0.0988  0.6602
 3186TIP3    H233754   5.300   7.258   9.074  1.0369  0.1156 -0.2865
 3187TIP3   OH233755   4.049   5.883   8.698 -0.4697  0.0560  0.0973
 3187TIP3    H133756   4.048   5.936   8.618 -1.5462 -0.4491 -0.2431
 3187TIP3    H233757   4.083   5.942   8.765  0.6120  0.4375 -0.7543
 3188TIP3   OH233758   1.819   2.588   6.632  0.3868 -0.7046  0.3097
 3188TIP3    H133759   1.783   2.585   6.544 -2.4272 -1.2483  1.3955
 3188TIP3    H233760   1.872   2.668   6.633 -1.1093  0.3864 -1.3025
 3189TIP3   OH233761   6.982   2.575   8.039 -0.3713 -0.2906  0.3165
 3189TIP3    H133762   7.001   2.545   8.128 -0.2229  0.9006  0.6970
 3189TIP3    H233763   6.886   2.577   8.035 -0.4105 -1.5733  0.0042
 3190TIP3   OH233764   0.996   3.177   7.084 -0.2804  1.1554  0.5916
 3190TIP3    H133765   1.045   3.110   7.036 -0.5124  2.8715 -2.2788
 3190TIP3    H233766   0.932   3.128   7.135 -0.5944 -0.8182 -1.5389
 3191TIP3   OH233767   0.638   1.727   9.632 -0.3231  0.1962  0.2100
 3191TIP3    H133768   0.618   1.756   9.721 -1.5263  1.7239 -0.5160
 3191TIP3    H233769   0.579   1.653   9.618 -0.7008  0.4614  0.3920
 3192TIP3   OH233770   4.318   2.903   8.108  0.9725  0.5054  0.7276
 3192TIP3    H133771   4.395   2.934   8.156  0.4274  0.7245  1.4760
 3192TIP3    H233772   4.326   2.945   8.022  1.8849  0.2195  0.6618
 3193TIP3   OH233773   3.785   4.982   8.501 -0.1607  0.4887  0.2877
 3193TIP3    H133774   3.825   5.062   8.468 -0.7413  1.5863  2.1335
 3193TIP3    H233775   3.856   4.918   8.500  0.7480  1.4670  0.3091
 3194TIP3   OH233776   4.342   3.362   8.832  0.0523 -0.7983 -0.0642
 3194TIP3    H133777   4.334   3.270   8.806 -0.6672 -0.9339  0.5917
 3194TIP3    H233778   4.421   3.393   8.788  1.3967 -2.2506  1.2612
 3195TIP3   OH233779   1.401   7.032   8.947 -0.1146 -0.0340  0.0907
 3195TIP3    H133780   1.399   7.126   8.926 -0.1630 -0.4338 -1.8889
 3195TIP3    H233781   1.442   6.992   8.870  1.2330 -1.5025  1.5240
 3196TIP3   OH233782   1.004   5.082   9.482  0.4812 -0.0273  0.0714
 3196TIP3    H133783   1.049   5.143   9.424 -1.4101 -0.2345 -1.7581
 3196TIP3    H233784   1.041   5.098   9.569  2.1714  1.5498 -0.8757
 3197TIP3   OH233785   3.137   5.645   8.672 -0.1119 -0.2247 -0.0439
 3197TIP3    H133786   3.118   5.594   8.751  0.1101  1.0364  0.8442
 3197TIP3    H233787   3.216   5.604   8.635  0.3773 -0.2093  0.9521
 3198TIP3   OH233788   4.096   4.773   7.859  0.2492  0.6222 -0.1921
 3198TIP3    H133789   4.117   4.694   7.910 -0.9580  1.3253  1.4705
 3198TIP3    H233790   4.107   4.845   7.920 -1.6152  1.4750 -0.7878
 3199TIP3   OH233791   4.112   7.476   8.233  0.2264  0.4426 -0.3628
 3199TIP3    H133792   4.031   7.452   8.278 -1.0877  0.3676 -2.6084
 3199TIP3    H233793   4.154   7.393   8.213  1.2979  0.5059  1.4789
 3200TIP3   OH233794   2.753   5.351   8.650  0.5653  0.3531  0.5214
 3200TIP3    H133795   2.715   5.288   8.712  0.5526  1.1880  1.3770
 3200TIP3    H233796   2.784   5.297   8.578 -1.7223 -0.4401  0.0393
 3201TIP3   OH233797   4.328   5.659   6.579  0.7587  0.1833  0.4863
 3201TIP3    H133798   4.376   5.631   6.501  1.7249  0.1512  1.0736
 3201TIP3    H233799   4.315   5.578   6.629  1.7146  0.4399  1.1890
 3202TIP3   OH233800   4.684   4.596   8.654  0.4427  0.0052 -0.1230
 3202TIP3    H133801   4.642   4.679   8.634  1.9185  1.1916  1.3261
 3202TIP3    H233802   4.661   4.579   8.745  0.7599 -0.7752 -0.1819
 3203TIP3   OH233803   2.581   2.962   8.126 -0.2100 -0.2008  0.1040
 3203TIP3    H133804   2.513   2.915   8.175 -1.7811  0.1136 -1.6140
 3203TIP3    H233805   2.592   2.910   8.046  3.1378 -1.3621  1.1363
 3204TIP3   OH233806   5.969   1.343   9.192 -0.3715 -0.0528 -0.2919
 3204TIP3    H133807   6.058   1.360   9.162 -0.5961 -1.0721 -1.6512
 3204TIP3    H233808   5.915   1.404   9.142 -0.3585  1.6063  1.5908
 3205TIP3   OH233809   3.976   0.125   6.535 -0.0041 -0.1501 -0.2996
 3205TIP3    H133810   3.976   0.035   6.504  0.7132 -0.1025 -0.4526
 3205TIP3    H233811   4.050   0.130   6.595  0.8591  0.7093 -1.4034
 3206TIP3   OH233812   5.491   3.386   8.446  0.1764  0.1140 -0.0060
 3206TIP3    H133813   5.497   3.404   8.352 -3.0114  2.7197  0.0923
 3206TIP3    H233814   5.427   3.315   8.452  0.1276  0.1726  0.1795
 3207TIP3   OH233815   3.654   2.734   8.961 -0.2996 -0.0587  0.2583
 3207TIP3    H133816   3.559   2.722   8.965 -0.2025 -1.5589 -0.9639
 3207TIP3    H233817   3.690   2.646   8.972  0.9391  0.4131  0.1750
 3208TIP3   OH233818   2.514   2.618   9.273  0.2053 -0.2838 -0.4052
 3208TIP3    H133819   2.560   2.594   9.192 -0.2423 -0.1244 -0.7110
 3208TIP3    H233820   2.508   2.713   9.270  1.5990 -0.1251  0.5981
 3209TIP3   OH233821   0.654   0.762   7.893  0.1432 -1.0842  0.7901
 3209TIP3    H133822   0.613   0.750   7.807  0.2321 -0.7074  0.6965
 3209TIP3    H233823   0.743   0.730   7.881  0.6947  0.5577  0.2625
 3210TIP3   OH233824   2.376   2.541   6.762 -0.4521 -0.2381  0.1478
 3210TIP3    H133825   2.430   2.474   6.803  2.1524  0.9658 -1.1084
 3210TIP3    H233826   2.315   2.493   6.706  1.5814 -1.5859 -0.9930
 3211TIP3   OH233827   6.934   7.449   9.448 -0.2133 -0.6584 -0.4624
 3211TIP3    H133828   6.954   7.389   9.376 -0.2549 -1.6244  0.2971
 3211TIP3    H233829   6.845   7.425   9.474  0.6573 -2.0526  1.5016
 3212TIP3   OH233830   0.949   3.337   7.800 -0.1768 -0.1729 -0.6123
 3212TIP3    H133831   0.891   3.308   7.869  0.7015  0.0911  0.2595
 3212TIP3    H233832   0.993   3.258   7.770 -1.1127 -0.4043 -1.4160
 3213TIP3   OH233833   2.557   0.411   7.290  0.1999 -0.1898 -0.3195
 3213TIP3    H133834   2.644   0.396   7.328  0.3606  0.4329 -0.4282
 3213TIP3    H233835   2.574   0.449   7.204 -0.1722  0.3812 -0.1524
 3214TIP3   OH233836   2.801   7.026   9.539  0.2002 -0.4662  0.3377
 3214TIP3    H133837   2.773   7.003   9.627  0.8483  0.0257  0.6831
 3214TIP3    H233838   2.860   7.100   9.551 -0.3743  0.1619 -0.5853
 3215TIP3   OH233839   1.006   6.638   7.461 -0.1504 -0.4395  0.4904
 3215TIP3    H133840   0.970   6.597   7.382  0.9170 -1.8389  0.6998
 3215TIP3    H233841   0.950   6.607   7.532 -0.6192  0.1721  0.3944
 3216TIP3   OH233842   2.164   5.628   6.876  0.0153 -0.1406  0.2161
 3216TIP3    H133843   2.120   5.580   6.806  0.1348  2.0896 -1.5217
 3216TIP3    H233844   2.133   5.588   6.957 -0.3139 -2.6817 -1.0746
 3217TIP3   OH233845   4.908   7.235   7.331 -0.0001 -0.1628 -0.5337
 3217TIP3    H133846   4.964   7.312   7.331  0.0802 -0.2175 -1.1340
 3217TIP3    H233847   4.819   7.270   7.335 -0.0079  0.0076 -1.8671
 3218TIP3   OH233848   2.359   3.447   7.424 -0.0233 -0.2017 -0.4941
 3218TIP3    H133849   2.310   3.366   7.407  0.0797 -0.2023 -0.7887
 3218TIP3    H233850   2.343   3.465   7.517 -0.0421 -0.5635 -0.4233
 3219TIP3   OH233851   1.133   3.033   9.397  0.1548 -0.2721  0.3182
 3219TIP3    H133852   1.130   3.017   9.303 -1.4766 -1.0249  0.4660
 3219TIP3    H233853   1.218   2.999   9.425  0.7560  0.1716 -0.9032
 3220TIP3   OH233854   4.912   5.560   9.150  0.9384  0.0347 -0.2758
 3220TIP3    H133855   4.918   5.633   9.088 -0.0111 -1.2123 -1.9132
 3220TIP3    H233856   4.819   5.552   9.169  1.0055 -0.9000 -0.3042
 3221TIP3   OH233857   1.229   3.311   9.383 -0.1357 -0.6970 -0.6176
 3221TIP3    H133858   1.184   3.227   9.389  0.1485 -0.7636  1.1363
 3221TIP3    H233859   1.319   3.291   9.409 -0.1687  0.2306  0.2370
 3222TIP3   OH233860   3.662   4.180   7.845  0.3653  0.3731 -0.3609
 3222TIP3    H133861   3.610   4.259   7.830  1.3621  1.1347  0.0337
 3222TIP3    H233862   3.745   4.213   7.880  1.4454 -0.7398 -1.7558
 3223TIP3   OH233863   7.126   2.464   8.483 -0.2368  0.1387 -0.3897
 3223TIP3    H133864   7.187   2.419   8.541 -1.7666 -0.8307  0.5210
 3223TIP3    H233865   7.109   2.548   8.526 -0.0190  0.1576 -0.3406
 3224TIP3   OH233866   7.410   4.644   8.263  0.8225  0.1112 -0.0413
 3224TIP3    H133867   7.470   4.585   8.310 -0.9729 -3.0990 -1.4498
 3224TIP3    H233868   7.349   4.585   8.219 -1.8649  3.1302 -0.6993
 3225TIP3   OH233869   1.490   5.837   9.338 -0.0738  0.3216  0.3900
 3225TIP3    H133870   1.538   5.859   9.417 -1.1312  1.0036  0.8744
 3225TIP3    H233871   1.510   5.908   9.277 -0.8216  0.8723  0.7656
 3226TIP3   OH233872   5.245   6.206   8.703  0.8575  0.9168  0.5709
 3226TIP3    H133873   5.216   6.193   8.613  0.7543  1.5705  0.5066
 3226TIP3    H233874   5.169   6.186   8.757  0.3001  2.5331  0.4099
 3227TIP3   OH233875   3.316   5.045   6.547  0.3656  0.3866 -0.1809
 3227TIP3    H133876   3.369   5.014   6.473  2.1093  1.0368  0.7346
 3227TIP3    H233877   3.377   5.048   6.620 -1.3156 -0.2277  1.3175
 3228TIP3   OH233878   3.036   7.280   7.717  0.4219 -0.1600 -0.5999
 3228TIP3    H133879   3.077   7.197   7.742  0.0140 -0.8041 -1.9694
 3228TIP3    H233880   3.107   7.344   7.723  1.0430 -0.8252 -0.6632
 3229TIP3   OH233881   0.249   6.206   8.905  0.9590 -0.1982  0.4076
 3229TIP3    H133882   0.253   6.290   8.860  1.1083  0.3787  1.4665
 3229TIP3    H233883   0.253   6.141   8.835 -0.7763  0.6687 -0.5739
 3230TIP3   OH233884   4.915   4.598   9.285  0.3919  0.0662 -0.0268
 3230TIP3    H133885   4.869   4.536   9.228  1.8679 -0.8940 -0.2407
 3230TIP3    H233886   4.847   4.656   9.317 -0.9739 -1.3138 -0.2911
 3231TIP3   OH233887   4.194   2.110   7.466 -0.3204 -0.1029 -0.1315
 3231TIP3    H133888   4.232   2.185   7.512 -2.0475  1.5923 -1.3310
 3231TIP3    H233889   4.251   2.097   7.390 -1.8369  2.2762 -1.7978
 3232TIP3   OH233890   6.216   3.289   8.796 -0.5862 -0.0874 -0.7420
 3232TIP3    H133891   6.209   3.221   8.729  1.1120 -1.9411  0.8404
 3232TIP3    H233892   6.160   3.258   8.868  0.8135 -0.2763  0.3122
 3233TIP3   OH233893   4.147   6.768   7.655  0.0044  0.0851 -0.4172
 3233TIP3    H133894   4.162   6.854   7.694  2.1075 -0.7180  0.7373
 3233TIP3    H233895   4.201   6.768   7.576 -0.2019 -0.0816 -0.5584
 3234TIP3   OH233896   0.476   5.834   9.452  0.5060  0.4278  0.0751
 3234TIP3    H133897   0.557   5.883   9.464  0.8234  0.0256 -0.3759
 3234TIP3    H233898   0.408   5.888   9.492  0.9606  0.8842  0.2290
 3235TIP3   OH233899   2.338   3.300   6.898 -0.4560 -0.6743 -0.2726
 3235TIP3    H133900   2.429   3.271   6.896 -0.4154 -0.6505  0.7487
 3235TIP3    H233901   2.289   3.228   6.857  0.0287 -0.6168 -0.9670
 3236TIP3   OH233902   7.088   6.487   7.501 -0.3258  0.0842  0.4454
 3236TIP3    H133903   7.107   6.461   7.591  1.9764  1.9316  0.5979
 3236TIP3    H233904   7.170   6.472   7.454 -1.2321 -0.0415 -1.1873
 3237TIP3   OH233905   0.858   5.730   8.795  0.6788  0.6934 -0.0351
 3237TIP3    H133906   0.942   5.762   8.829  2.3464 -1.9933 -1.2735
 3237TIP3    H233907   0.854   5.639   8.823 -1.2470  0.4172 -1.0871
 3238TIP3   OH233908   0.506   3.269   6.867  0.0468  0.1607 -0.5649
 3238TIP3    H133909   0.583   3.223   6.836 -1.0020 -0.8274 -1.8070
 3238TIP3    H233910   0.541   3.340   6.921  1.7373 -1.9165  1.2648
 3239TIP3   OH233911   4.635   4.397   8.435  0.9233  0.1107 -0.1780
 3239TIP3    H133912   4.708   4.446   8.473  1.0761 -1.0375  1.0530
 3239TIP3    H233913   4.669   4.368   8.350  1.4474  0.6304 -0.1598
 3240TIP3   OH233914   6.321   5.137   8.993 -1.1814 -0.0630  0.4123
 3240TIP3    H133915   6.341   5.077   9.066  2.4416  2.0529  1.4204
 3240TIP3    H233916   6.270   5.207   9.033 -2.1368 -0.5725  0.1017
 3241TIP3   OH233917   4.831   2.770   8.698 -0.5127 -0.1259 -0.0024
 3241TIP3    H133918   4.856   2.694   8.751  1.6336 -0.7076 -1.6977
 3241TIP3    H233919   4.906   2.829   8.705 -1.0867  0.7081 -0.7304
 3242TIP3   OH233920   2.016   5.716   7.939 -0.5970 -0.8633  0.9380
 3242TIP3    H133921   2.081   5.677   7.880 -1.3127 -0.7544  0.0347
 3242TIP3    H233922   2.057   5.714   8.025  1.2245  0.6061  0.1803
 3243TIP3   OH233923   3.820   3.823   7.970 -0.1576  0.3289  0.1763
 3243TIP3    H133924   3.805   3.730   7.955 -0.5052  0.5548 -0.9204
 3243TIP3    H233925   3.879   3.850   7.900 -0.2635  0.9883  0.3322
 3244TIP3   OH233926   2.749   6.293   7.261  0.9631  0.3065  0.0535
 3244TIP3    H133927   2.723   6.375   7.219  0.2810 -0.1617 -0.4647
 3244TIP3    H233928   2.757   6.231   7.189  0.7600 -0.2649  0.5135
 3245TIP3   OH233929   1.387   7.354   7.587  0.4106  0.3527  0.1787
 3245TIP3    H133930   1.465   7.353   7.531  0.9625 -0.7884  0.9484
 3245TIP3    H233931   1.419   7.332   7.674 -0.9333 -1.3921  0.2771
 3246TIP3   OH233932   5.338   6.447   7.362 -0.1054 -0.1810  0.1024
 3246TIP3    H133933   5.380   6.366   7.332  0.5403  0.3790 -0.5093
 3246TIP3    H233934   5.351   6.509   7.291 -2.2478 -0.0653 -0.2493
 3247TIP3   OH233935   2.831   3.294   8.995 -0.2836 -0.0327 -0.2559
 3247TIP3    H133936   2.785   3.333   8.922  0.3084  1.4642  0.1240
 3247TIP3    H233937   2.762   3.256   9.050 -0.6804 -1.9734 -1.9561
 3248TIP3   OH233938   7.562   5.456   7.398  0.1900 -0.5626  0.8761
 3248TIP3    H133939   7.493   5.471   7.334  0.1135  0.3292  1.1529
 3248TIP3    H233940   7.638   5.430   7.346  0.4888  1.3510  0.2771
 3249TIP3   OH233941   6.892   3.565   8.509  0.2455 -0.0247 -0.0854
 3249TIP3    H133942   6.972   3.552   8.561 -1.3211 -2.7429  1.9148
 3249TIP3    H233943   6.908   3.516   8.428  0.3268 -1.3626  0.7053
 3250TIP3   OH233944   3.738   0.731   8.258 -0.0830  0.0013 -0.1653
 3250TIP3    H133945   3.816   0.784   8.241  0.5248 -1.0750 -0.9278
 3250TIP3    H233946   3.702   0.713   8.171 -1.1392  0.3935  0.1752
 3251TIP3   OH233947   5.544   7.280   8.855  0.2801 -0.6774  0.0226
 3251TIP3    H133948   5.468   7.249   8.903  0.3763  0.8327  1.2348
 3251TIP3    H233949   5.544   7.229   8.774 -2.9430  0.3538 -0.7847
 3252TIP3   OH233950   5.120   0.017   8.080 -0.3520  0.1236 -0.5734
 3252TIP3    H133951   5.202   0.063   8.065  0.9511 -1.6061  0.8605
 3252TIP3    H233952   5.081   0.060   8.156  0.7636 -0.9368  0.6378
 3253TIP3   OH233953   5.481   4.403   8.992  0.4047 -0.1920  0.0994
 3253TIP3    H133954   5.440   4.395   8.906 -1.4698 -0.2370  0.9453
 3253TIP3    H233955   5.569   4.435   8.974  0.6220 -1.6927 -1.9361
 3254TIP3   OH233956   1.470   1.590   7.096 -0.0483  0.0197 -0.0752
 3254TIP3    H133957   1.490   1.679   7.065  1.9440 -0.0776  0.8118
 3254TIP3    H233958   1.375   1.590   7.106 -0.1959  1.7476 -0.9943
 3255TIP3   OH233959   0.537   1.251   7.858  0.6148 -0.1975 -0.3376
 3255TIP3    H133960   0.513   1.237   7.767  1.6263 -2.5730 -0.3202
 3255TIP3    H233961   0.502   1.175   7.905  2.8051 -0.6781  0.6605
 3256TIP3   OH233962   1.417   6.856   6.932  0.4608  0.3145  0.2737
 3256TIP3    H133963   1.463   6.846   6.849 -0.3792 -2.6403  0.0642
 3256TIP3    H233964   1.477   6.905   6.988  1.5185  1.3423 -1.6782
 3257TIP3   OH233965   3.400   5.075   8.229  0.6777 -0.3887  0.4851
 3257TIP3    H133966   3.354   4.999   8.263 -0.4537 -1.3599 -2.8787
 3257TIP3    H233967   3.337   5.147   8.235 -0.3617 -1.0758 -1.5020
 3258TIP3   OH233968   6.544   7.639   9.207 -0.1468 -0.0485  0.1001
 3258TIP3    H133969   6.520   7.687   9.286  0.7019  0.6960 -0.0740
 3258TIP3    H233970   6.571   7.707   9.145  0.4713 -0.7001 -0.3675
 3259TIP3   OH233971   5.775   3.469   7.893  0.1628  0.0123 -0.3121
 3259TIP3    H133972   5.817   3.523   7.960 -1.5029  2.3001 -1.0005
 3259TIP3    H233973   5.744   3.392   7.941 -1.5502  1.8664  1.7904
 3260TIP3   OH233974   5.194   1.270   7.014 -0.5877 -0.5493  0.3733
 3260TIP3    H133975   5.151   1.200   6.965 -2.1239 -0.2945  1.2691
 3260TIP3    H233976   5.167   1.350   6.969 -1.0734 -0.3900  0.9265
 3261TIP3   OH233977   0.097   0.577   8.769  0.0420 -0.0740  0.1712
 3261TIP3    H133978   0.071   0.625   8.848  3.0513  1.4004  0.3980
 3261TIP3    H233979   0.167   0.518   8.800  1.1863  0.4450 -1.3127
 3262TIP3   OH233980   4.985   5.067   7.118  0.0848  0.5212 -0.2066
 3262TIP3    H133981   5.071   5.107   7.105 -0.2045  0.8338 -1.1931
 3262TIP3    H233982   4.947   5.115   7.192  1.0724 -0.1677  0.7884
 3263TIP3   OH233983   7.138   2.151   6.921 -0.0256 -0.0948 -0.0803
 3263TIP3    H133984   7.086   2.102   6.985  0.2867  0.6670  0.7914
 3263TIP3    H233985   7.107   2.241   6.930 -0.4671 -0.0779 -1.5201
 3264TIP3   OH233986   6.576   1.697   8.913 -0.1202 -0.2022  0.3971
 3264TIP3    H133987   6.589   1.641   8.837  0.0877  2.4438 -1.6624
 3264TIP3    H233988   6.493   1.740   8.898  1.7889  3.5060 -0.6244
 3265TIP3   OH233989   1.561   6.863   6.697  0.0127  0.2764 -0.0299
 3265TIP3    H133990   1.611   6.920   6.756 -0.0910 -0.8687  1.2124
 3265TIP3    H233991   1.600   6.776   6.709  1.7039  0.3571 -3.5925
 3266TIP3   OH233992   3.765   3.603   7.350  0.3332 -0.0180  0.0515
 3266TIP3    H133993   3.738   3.672   7.411 -2.0133 -0.6861 -0.1044
 3266TIP3    H233994   3.777   3.647   7.267 -1.1044  0.2506 -0.0358
 3267TIP3   OH233995   1.100   2.203   7.415  0.2721 -0.1855 -0.0173
 3267TIP3    H133996   1.006   2.206   7.395  0.4492  1.1978 -0.7650
 3267TIP3    H233997   1.124   2.111   7.404 -1.0482 -0.6107  0.4796
 3268TIP3   OH233998   5.351   5.381   7.949 -0.2538  0.5482 -0.0439
 3268TIP3    H133999   5.318   5.382   8.039  0.7285 -0.7819  0.3626
 3268TIP3    H234000   5.307   5.306   7.909 -1.2037  1.5304 -0.9090
 3269TIP3   OH234001   2.405   2.250   8.400 -0.2762  0.5768  0.3212
 3269TIP3    H134002   2.310   2.250   8.407 -0.3886 -0.5706 -0.9474
 3269TIP3    H234003   2.424   2.208   8.316  1.3095  2.2491 -0.2401
 3270TIP3   OH234004   0.842   2.705   8.977  0.1213  0.0052 -0.2524
 3270TIP3    H134005   0.887   2.711   8.893  0.6700 -2.3234 -0.2158
 3270TIP3    H234006   0.754   2.740   8.960  1.3643  3.1920 -0.7148
 3271TIP3   OH234007   6.968   5.892   7.776  0.4012 -0.0717 -0.4291
 3271TIP3    H134008   6.940   5.808   7.741 -0.7192  0.0298  0.1753
 3271TIP3    H234009   7.046   5.872   7.828 -0.0076 -0.7779 -0.0835
 3272TIP3   OH234010   5.238   7.316   9.418  0.4432  0.4665  0.2383
 3272TIP3    H134011   5.280   7.367   9.488  1.4784  0.4916 -0.3766
 3272TIP3    H234012   5.150   7.353   9.411 -0.2520 -0.5551  2.5752
 3273TIP3   OH234013   0.535   6.256   7.270 -0.2235  0.1164 -0.1889
 3273TIP3    H134014   0.452   6.237   7.315  0.9413 -1.2522  1.5455
 3273TIP3    H234015   0.585   6.308   7.333  1.9521 -2.8979  0.7870
 3274TIP3   OH234016   0.833   1.561   8.031 -0.2866 -0.2871  0.2219
 3274TIP3    H134017   0.923   1.580   8.005  0.6162 -2.6868  1.2633
 3274TIP3    H234018   0.812   1.479   7.988 -1.6968 -0.1781  0.6384
 3275TIP3   OH234019   2.058   4.829   8.944 -0.3565  0.4073  0.4016
 3275TIP3    H134020   2.089   4.738   8.947 -0.0599  0.2610 -2.8615
 3275TIP3    H234021   1.968   4.825   8.975 -1.0590 -1.4619 -1.6241
 3276TIP3   OH234022   7.500   1.522   8.173 -0.2723  0.2815 -0.1236
 3276TIP3    H134023   7.491   1.461   8.246 -3.1352 -0.1919 -0.7773
 3276TIP3    H234024   7.547   1.472   8.106 -0.1021 -0.2137  0.3557
 3277TIP3   OH234025   3.640   5.295   8.727  0.4868  0.0248  0.4503
 3277TIP3    H134026   3.683   5.379   8.743  0.6637 -0.1464  0.8884
 3277TIP3    H234027   3.621   5.261   8.815 -2.3633  1.0259  0.3133
 3278TIP3   OH234028   0.629   2.809   7.997 -0.1496 -0.4869 -0.3312
 3278TIP3    H134029   0.691   2.775   7.932 -2.4969 -0.9259 -2.4715
 3278TIP3    H234030   0.613   2.734   8.055  1.7578 -0.1694  0.7008
 3279TIP3   OH234031   3.571   0.098   9.433  0.0267 -0.1200  0.3067
 3279TIP3    H134032   3.621   0.064   9.359  0.9684  0.7709  0.5020
 3279TIP3    H234033   3.587   0.035   9.503 -0.2798 -0.5844 -0.0355
 3280TIP3   OH234034   7.275   7.090   7.007 -0.1648  0.2179  0.1488
 3280TIP3    H134035   7.234   7.118   6.925 -1.2579  0.1100  0.6408
 3280TIP3    H234036   7.278   6.994   7.001 -1.8901  0.0780  0.9595
 3281TIP3   OH234037   3.456   4.801   7.001 -0.1511 -0.6285  0.6983
 3281TIP3    H134038   3.400   4.874   7.028  0.6292 -0.2830  1.4387
 3281TIP3    H234039   3.407   4.758   6.931  0.4466  2.1281 -1.6072
 3282TIP3   OH234040   6.991   6.796   9.192  0.1417 -0.3077  0.6420
 3282TIP3    H134041   6.988   6.886   9.225 -1.3099  0.2195 -0.7521
 3282TIP3    H234042   6.902   6.780   9.160  0.9062 -1.4732 -1.0549
 3283TIP3   OH234043   0.058   3.214   6.879 -0.1586  0.1588  0.1215
 3283TIP3    H134044  -0.016   3.274   6.866  0.5388  0.8325 -0.8894
 3283TIP3    H234045   0.135   3.267   6.859  0.5331 -0.8320  0.1023
 3284TIP3   OH234046   3.601   0.056   6.984 -0.0167  0.0591 -0.7049
 3284TIP3    H134047   3.662   0.105   7.038 -0.5366 -1.0120  0.9160
 3284TIP3    H234048   3.634   0.067   6.895  1.8897  0.4013  0.0011
 3285TIP3   OH234049   5.440   1.665   9.442 -0.8935 -0.8507 -0.5546
 3285TIP3    H134050   5.504   1.703   9.502 -0.5765 -1.4924 -0.4713
 3285TIP3    H234051   5.455   1.711   9.359 -1.5676  0.2804 -0.0708
 3286TIP3   OH234052   6.175   4.881   6.572  0.3916 -0.0065 -0.5444
 3286TIP3    H134053   6.195   4.860   6.663  0.3794 -1.2817 -0.8142
 3286TIP3    H234054   6.147   4.797   6.534  0.2007  0.5479 -1.6669
 3287TIP3   OH234055   0.290   3.480   7.728  0.1347 -0.2534 -0.0549
 3287TIP3    H134056   0.347   3.480   7.651  0.8559  1.3099  0.4237
 3287TIP3    H234057   0.251   3.568   7.728 -3.9691 -1.8667 -1.5007
 3288TIP3   OH234058   6.901   0.375   7.885 -0.5113 -0.4277  1.0452
 3288TIP3    H134059   6.927   0.466   7.869  0.6158 -1.1393 -1.7374
 3288TIP3    H234060   6.827   0.361   7.826 -0.2780 -1.5039  1.0003
 3289TIP3   OH234061   2.638   4.660   7.106 -0.2748 -0.2402 -0.0512
 3289TIP3    H134062   2.626   4.753   7.087  1.9026  0.1938  0.4662
 3289TIP3    H234063   2.561   4.636   7.158  0.0355  1.7568  1.4572
 3290TIP3   OH234064   6.780   0.441   8.848 -0.1461 -0.2892  0.0035
 3290TIP3    H134065   6.781   0.404   8.936  0.0683 -0.9182 -0.2524
 3290TIP3    H234066   6.869   0.473   8.835 -0.2330 -0.0165  0.0933
 3291TIP3   OH234067   6.350   0.288   8.721 -0.2371  0.3591 -0.4099
 3291TIP3    H134068   6.272   0.327   8.681 -0.2855  0.3540 -0.3223
 3291TIP3    H234069   6.322   0.264   8.810 -0.3123 -0.2184 -0.5848
 3292TIP3   OH234070   0.982   0.026   7.722 -0.0778 -0.2298  0.1863
 3292TIP3    H134071   1.027   0.045   7.640  0.3466 -0.6166  0.3264
 3292TIP3    H234072   1.035  -0.043   7.763  0.2983  0.6683  1.2543
 3293TIP3   OH234073   2.904   6.124   9.250 -0.0893 -0.3023  0.2778
 3293TIP3    H134074   2.823   6.171   9.234  0.9489  1.4071 -0.1715
 3293TIP3    H234075   2.895   6.043   9.200 -1.7719 -0.4733  0.7900
 3294TIP3   OH234076   3.434   1.790   8.353 -0.4535 -0.3658  0.1783
 3294TIP3    H134077   3.487   1.752   8.283  0.2984  0.7060  0.1436
 3294TIP3    H234078   3.354   1.737   8.353 -0.4069 -0.4982 -1.3821
 3295TIP3   OH234079   3.351   0.348   7.989  0.1215 -0.4247 -0.7364
 3295TIP3    H134080   3.328   0.285   8.057  0.9713 -0.0823 -0.1048
 3295TIP3    H234081   3.352   0.433   8.035  0.2973 -0.1337 -1.2698
 3296TIP3   OH234082   6.993   7.233   7.631 -0.3093  0.3943  0.0932
 3296TIP3    H134083   6.917   7.176   7.647 -0.6785  0.3903 -1.4746
 3296TIP3    H234084   7.055   7.177   7.584 -0.0488  0.8540 -0.1225
 3297TIP3   OH234085   3.152   1.355   8.253 -0.7912  0.1103 -0.4383
 3297TIP3    H134086   3.215   1.292   8.289 -1.1185  0.8330  1.5557
 3297TIP3    H234087   3.121   1.315   8.173  0.7782 -1.1543 -0.4701
 3298TIP3   OH234088   1.765   7.134   7.993 -0.4337  0.2058 -0.1314
 3298TIP3    H134089   1.809   7.049   7.999 -1.7638 -0.6520 -1.7509
 3298TIP3    H234090   1.762   7.153   7.899 -1.8092  1.1383  0.0774
 3299TIP3   OH234091   1.669   6.040   9.237 -0.5597 -0.2475 -0.4172
 3299TIP3    H134092   1.679   6.003   9.150 -0.2083  1.3419 -1.0947
 3299TIP3    H234093   1.737   6.108   9.242 -2.8364  2.1568 -0.2830
 3300TIP3   OH234094   5.696   7.501   8.463  0.6640 -0.0768  0.2691
 3300TIP3    H134095   5.687   7.574   8.524 -0.5018 -0.0186  0.0587
 3300TIP3    H234096   5.762   7.444   8.502  2.7176  1.8085 -0.3083
 3301TIP3   OH234097   0.010   6.758   9.276 -0.1371  0.2333  0.2609
 3301TIP3    H134098   0.043   6.688   9.220  0.8253  0.4652  0.5283
 3301TIP3    H234099   0.085   6.816   9.288 -1.0567  1.6321 -0.4389
 3302TIP3   OH234100   4.466   5.474   8.439 -0.3168 -0.2976 -0.4150
 3302TIP3    H134101   4.471   5.532   8.362 -0.4574 -0.8043 -0.8156
 3302TIP3    H234102   4.428   5.529   8.507 -1.1571 -0.1192 -1.0021
 3303TIP3   OH234103   2.881   2.836   7.989 -0.2037  0.2411  0.1347
 3303TIP3    H134104   2.913   2.918   7.950 -0.0640 -0.4171 -1.1921
 3303TIP3    H234105   2.789   2.831   7.963 -0.2032 -0.0478  0.1875
 3304TIP3   OH234106   3.887   4.624   8.241  0.4543  0.0420  0.3939
 3304TIP3    H134107   3.865   4.715   8.221  2.5344  0.0604 -2.4506
 3304TIP3    H234108   3.910   4.625   8.334 -0.6040  2.1496  0.7155
 3305TIP3   OH234109   5.293   0.720   7.556  0.0622  0.1093  0.4847
 3305TIP3    H134110   5.370   0.728   7.499 -1.4905 -1.5879 -2.0248
 3305TIP3    H234111   5.328   0.682   7.637  1.8637 -0.8025 -0.6514
 3306TIP3   OH234112   2.500   6.402   7.616 -0.1603 -0.0826  0.0438
 3306TIP3    H134113   2.499   6.306   7.620  0.5423 -0.0683  1.2483
 3306TIP3    H234114   2.550   6.423   7.537  2.4426 -0.7695  1.3768
 3307TIP3   OH234115   2.409   0.119   8.487 -0.2093  0.0038  0.5096
 3307TIP3    H134116   2.344   0.078   8.544 -0.2213  0.3592  0.7519
 3307TIP3    H234117   2.460   0.046   8.452 -0.1174 -0.2076  1.0796
 3308TIP3   OH234118   1.868   4.279   8.942  0.3086  0.0895  0.1256
 3308TIP3    H134119   1.939   4.266   9.005 -0.0757  2.6780  1.2391
 3308TIP3    H234120   1.908   4.325   8.869  0.0557  0.3176  0.1271
 3309TIP3   OH234121   4.905   3.955   8.866 -0.4942  0.2134 -0.5383
 3309TIP3    H134122   4.954   4.004   8.932 -0.4917 -0.4450 -0.0502
 3309TIP3    H234123   4.815   3.989   8.872 -0.4050  0.4382 -0.4761
 3310TIP3   OH234124   0.968   1.215   6.723 -0.2767  0.3272 -0.2406
 3310TIP3    H134125   0.942   1.205   6.814 -1.8812  0.0648 -0.6942
 3310TIP3    H234126   0.990   1.126   6.694 -2.6157 -0.1321 -0.8668
 3311TIP3   OH234127   0.879   4.824   7.503 -0.3253  0.3660 -0.0130
 3311TIP3    H134128   0.827   4.749   7.534 -0.2431  0.8813  1.4243
 3311TIP3    H234129   0.922   4.791   7.424 -2.2935 -0.2902 -0.9059
 3312TIP3   OH234130   3.964   4.288   7.641  0.8484  0.1358 -0.2789
 3312TIP3    H134131   3.947   4.301   7.734 -0.4071  0.2443 -0.5052
 3312TIP3    H234132   3.979   4.376   7.606  0.8903  0.1342 -0.2654
 3313TIP3   OH234133   5.826   5.119   9.243 -0.0946 -0.2091  0.5191
 3313TIP3    H134134   5.771   5.053   9.284  0.6678  0.9807  3.7224
 3313TIP3    H234135   5.873   5.071   9.174 -1.1228 -2.4840  1.3029
 3314TIP3   OH234136   6.701   4.649   8.094 -0.1701 -0.6995  0.0458
 3314TIP3    H134137   6.687   4.554   8.095  0.4361 -0.7968  0.0203
 3314TIP3    H234138   6.658   4.681   8.172  2.0681 -1.3740  1.6582
 3315TIP3   OH234139   4.936   4.221   9.011 -0.5671 -0.2590  0.5738
 3315TIP3    H134140   4.922   4.192   9.101 -0.5776 -0.2082  0.5884
 3315TIP3    H234141   4.992   4.298   9.019 -0.5036 -0.3003  0.5315
 3316TIP3   OH234142   0.808   0.018   9.248  0.1660  0.1812 -0.1186
 3316TIP3    H134143   0.755  -0.056   9.279 -0.1542  0.4678  0.0131
 3316TIP3    H234144   0.895  -0.020   9.233 -0.8306 -1.1053 -3.5790
 3317TIP3   OH234145   4.187   1.010   6.936  0.0163 -0.3736  0.2020
 3317TIP3    H134146   4.136   0.972   7.008 -0.7110  0.2411  0.0341
 3317TIP3    H234147   4.133   0.994   6.858  0.4005 -0.2981 -0.0831
 3318TIP3   OH234148   1.332   0.690   7.805 -0.5419  0.1295 -0.0754
 3318TIP3    H134149   1.283   0.643   7.738 -2.4646 -0.1517  1.4260
 3318TIP3    H234150   1.415   0.645   7.811 -0.3759  0.0825 -2.1332
 3319TIP3   OH234151   3.238   5.731   7.798  0.2324 -0.0962  0.2902
 3319TIP3    H134152   3.195   5.761   7.718  0.1020  0.0434  0.4127
 3319TIP3    H234153   3.322   5.776   7.799 -0.0548  0.4414  0.5897
 3320TIP3   OH234154   3.192   6.479   9.004 -0.0762 -0.0928  0.6296
 3320TIP3    H134155   3.270   6.427   9.026  0.3890  0.6014  0.6592
 3320TIP3    H234156   3.130   6.458   9.074 -0.9898 -2.7869 -0.8595
 3321TIP3   OH234157   5.649   3.480   9.131 -0.6272  0.0407 -0.1406
 3321TIP3    H134158   5.703   3.468   9.209  0.6286 -0.8999 -1.1289
 3321TIP3    H234159   5.647   3.575   9.118  0.4240  0.1174  0.1552
 3322TIP3   OH234160   3.231   0.389   7.305 -0.5258  0.0811  0.2609
 3322TIP3    H134161   3.244   0.478   7.271  0.8336 -0.2915 -0.2135
 3322TIP3    H234162   3.247   0.397   7.399  0.0736  0.2389  0.1458
 3323TIP3   OH234163   2.924   5.586   7.649 -0.1133 -0.3116  0.3695
 3323TIP3    H134164   2.918   5.500   7.691 -1.3000  0.1441  1.1769
 3323TIP3    H234165   2.903   5.649   7.718  0.5599  0.6301 -0.2489
 3324TIP3   OH234166   3.347   6.337   7.403  0.3487  0.3725  0.0493
 3324TIP3    H134167   3.293   6.298   7.333  0.8595  0.9266 -0.6621
 3324TIP3    H234168   3.436   6.309   7.383  0.3061 -1.0347  1.5533
 3325TIP3   OH234169   3.749   1.946   9.660  0.3776  0.2282 -0.3993
 3325TIP3    H134170   3.791   1.903   9.585 -0.5755  1.6197 -1.8086
 3325TIP3    H234171   3.782   2.036   9.657 -1.0683  0.7948 -0.2984
 3326TIP3   OH234172   6.269   6.126   9.032  0.2049 -0.5684  0.2488
 3326TIP3    H134173   6.315   6.163   8.956  2.2923  0.9038  2.0970
 3326TIP3    H234174   6.270   6.196   9.097 -1.7373 -1.6964  1.5997
 3327TIP3   OH234175   4.781   7.027   7.642  0.2288  0.3113 -0.2573
 3327TIP3    H134176   4.698   6.981   7.629 -0.3362  1.1909  0.1066
 3327TIP3    H234177   4.819   7.032   7.554 -0.5353  0.6687 -0.5813
 3328TIP3   OH234178   2.951   2.052   8.560  0.2167 -0.1132 -0.6779
 3328TIP3    H134179   2.984   2.105   8.633  2.6558 -2.2280 -0.0899
 3328TIP3    H234180   2.905   1.979   8.601 -1.1925  0.3359 -1.3976
 3329TIP3   OH234181   1.945   6.774   8.187  0.0852  0.4099 -0.6674
 3329TIP3    H134182   1.994   6.699   8.221  0.5542  0.0899 -1.9957
 3329TIP3    H234183   1.864   6.775   8.239 -0.5712 -1.8674 -1.5213
 3330TIP3   OH234184   2.998   3.007   8.559  0.2041  0.2359 -0.3163
 3330TIP3    H134185   2.942   2.932   8.579 -0.0904  0.1778 -1.2978
 3330TIP3    H234186   2.973   3.074   8.623 -0.5677  0.0006 -0.3659
 3331TIP3   OH234187   3.489   4.354   9.013 -0.5045  0.0515  0.1490
 3331TIP3    H134188   3.567   4.311   9.050  0.5071  1.1441 -0.6495
 3331TIP3    H234189   3.505   4.356   8.919 -1.0496  1.1638  0.0706
 3332TIP3   OH234190   0.180   5.225   7.461 -0.1336 -0.6973 -0.0627
 3332TIP3    H134191   0.149   5.267   7.380  1.9481 -0.1251 -0.6294
 3332TIP3    H234192   0.209   5.298   7.516  2.6167 -1.2515 -0.6531
 3333TIP3   OH234193   1.254   1.373   7.735  0.1702 -0.1895  0.2410
 3333TIP3    H134194   1.274   1.283   7.761 -0.5312 -0.3060  0.4063
 3333TIP3    H234195   1.279   1.377   7.642  3.0123  0.3362  0.9529
 3334TIP3   OH234196   0.009   7.225   7.779 -0.5369  0.2528  0.0794
 3334TIP3    H134197   0.066   7.294   7.744 -1.9517  0.9241 -0.9714
 3334TIP3    H234198   0.011   7.239   7.874  0.6647  0.5450  0.0321
 3335TIP3   OH234199   5.769   0.576   7.514  0.0572 -0.0892 -0.3837
 3335TIP3    H134200   5.861   0.582   7.540 -0.2217  0.9183  0.4217
 3335TIP3    H234201   5.765   0.498   7.458  1.5679  0.3491 -1.1706
 3336TIP3   OH234202   4.960   3.710   8.719  0.2843  0.1666 -0.1338
 3336TIP3    H134203   4.913   3.791   8.741 -1.5974 -0.6654 -0.8561
 3336TIP3    H234204   4.968   3.663   8.802 -0.3045  0.2551 -0.0256
 3337TIP3   OH234205   2.679   2.679   8.456 -0.0298 -0.8077  0.0402
 3337TIP3    H134206   2.616   2.639   8.516 -1.1726 -1.3739 -1.4691
 3337TIP3    H234207   2.711   2.606   8.402 -1.3597  0.0616 -2.0552
 3338TIP3   OH234208   0.891   0.090   8.815  0.7753 -0.0120  0.7212
 3338TIP3    H134209   0.826   0.099   8.745 -0.4878 -1.7224  1.6156
 3338TIP3    H234210   0.866   0.157   8.879  0.4193 -0.0792  0.6561
 3339TIP3   OH234211   1.584   4.903   8.628  0.5140  0.0815 -0.0942
 3339TIP3    H134212   1.560   4.811   8.619  2.2244 -0.3201 -1.0606
 3339TIP3    H234213   1.508   4.944   8.669 -0.8297 -1.4918 -0.8949
 3340TIP3   OH234214   0.874   2.710   7.495  0.1614  0.6061 -0.2982
 3340TIP3    H134215   0.877   2.622   7.533  0.8226 -0.9515 -3.5569
 3340TIP3    H234216   0.786   2.717   7.459  1.0860 -0.2966 -3.0526
 3341TIP3   OH234217   6.929   0.202   7.475 -0.4472 -0.0349 -0.1935
 3341TIP3    H134218   6.963   0.222   7.388 -1.2837 -0.0276 -0.5356
 3341TIP3    H234219   6.945   0.282   7.526 -0.7743  0.3081 -0.6123
 3342TIP3   OH234220   5.169   4.045   8.581  0.2465 -0.7471 -0.7013
 3342TIP3    H134221   5.169   3.992   8.661  1.1303  0.8413  0.4000
 3342TIP3    H234222   5.246   4.016   8.533  0.4224 -0.8558 -0.3604
 3343TIP3   OH234223   0.484   4.139   7.563 -0.5049  0.6334 -0.3675
 3343TIP3    H134224   0.441   4.136   7.478 -1.5891  1.8558  0.0955
 3343TIP3    H234225   0.454   4.061   7.609 -0.3241  0.2420 -0.9183
 3344TIP3   OH234226   0.510   2.650   8.186  0.0854 -0.2461  0.6787
 3344TIP3    H134227   0.436   2.657   8.246  0.1156  1.0994  0.5764
 3344TIP3    H234228   0.501   2.563   8.147 -0.2634 -0.9057  2.1912
 3345TIP3   OH234229   3.737   5.007   7.995  0.3245  0.2439  0.0031
 3345TIP3    H134230   3.768   4.938   7.936  0.2187 -1.4056  1.7650
 3345TIP3    H234231   3.803   5.076   7.990  1.9397 -1.2248  0.2770
 3346TIP3   OH234232   7.123   0.834   9.393 -0.4105  0.2169  0.1743
 3346TIP3    H134233   7.068   0.755   9.401 -0.9502  0.7207  1.9137
 3346TIP3    H234234   7.208   0.808   9.428 -0.2549  0.1109 -0.2760
 3347TIP3   OH234235   5.399   4.206   8.803  0.1879  0.3633 -0.8896
 3347TIP3    H134236   5.322   4.209   8.860 -0.6482  3.1082 -2.0165
 3347TIP3    H234237   5.436   4.119   8.818  0.0275  0.8196  3.7567
 3348TIP3   OH234238   3.837   7.533   9.493  0.2086  0.2923  0.1425
 3348TIP3    H134239   3.929   7.556   9.509  0.6209 -1.0232 -0.2065
 3348TIP3    H234240   3.817   7.572   9.408  1.1546 -1.2633 -0.8461
 3349TIP3   OH234241   2.922   6.724   9.695 -0.5284  0.3715  0.0825
 3349TIP3    H134242   2.992   6.777   9.659 -0.4464 -0.5588 -1.1838
 3349TIP3    H234243   2.916   6.648   9.637 -1.2939 -0.5237  1.2702
 3350TIP3   OH234244   3.789   7.160   8.212 -0.4404  0.5716 -0.3496
 3350TIP3    H134245   3.737   7.086   8.181 -0.4903  0.3313  0.3011
 3350TIP3    H234246   3.754   7.180   8.298  2.7430 -1.8559  1.7623
 3351TIP3   OH234247   3.718   4.839   7.315 -0.3709 -0.1439  0.0722
 3351TIP3    H134248   3.710   4.893   7.237  0.7353  0.0092  0.0457
 3351TIP3    H234249   3.641   4.861   7.368  0.1822  1.7005  0.1973
 3352TIP3   OH234250   3.574   7.364   7.207 -0.0393 -0.4044  0.1222
 3352TIP3    H134251   3.595   7.366   7.300  1.6361 -0.5285 -0.2156
 3352TIP3    H234252   3.532   7.448   7.190  0.2541 -0.0988  0.8661
 3353TIP3   OH234253   1.460   0.284   9.274 -0.1235  0.3537 -0.1367
 3353TIP3    H134254   1.516   0.357   9.299  0.1719 -0.0994  0.5693
 3353TIP3    H234255   1.390   0.323   9.223  0.7072  0.9632 -0.8354
 3354TIP3   OH234256   0.434   5.951   7.324 -0.1415 -0.2080  0.1752
 3354TIP3    H134257   0.379   6.011   7.375 -1.4175  0.0585 -1.4258
 3354TIP3    H234258   0.373   5.909   7.264  1.2413 -0.8607 -0.8093
 3355TIP3   OH234259   0.030   0.635   7.768 -0.4421 -0.5077  0.9251
 3355TIP3    H134260   0.123   0.659   7.775 -0.4011 -0.8289  1.6062
 3355TIP3    H234261   0.028   0.562   7.706 -0.4652  0.6377 -0.4833
 3356TIP3   OH234262   3.759   4.518   9.351  0.0523  1.0343  0.0856
 3356TIP3    H134263   3.847   4.553   9.365 -0.2436  1.7249  0.2676
 3356TIP3    H234264   3.711   4.590   9.312 -0.2870  0.4756 -0.5533
 3357TIP3   OH234265   2.994   1.161   7.064 -0.0280 -0.0162  0.2744
 3357TIP3    H134266   2.917   1.108   7.044  0.2669 -0.6981  0.9405
 3357TIP3    H234267   2.972   1.206   7.145  1.2717 -2.2666  1.9618
 3358TIP3   OH234268   7.672   3.188   8.061  0.1463 -0.2200 -0.0125
 3358TIP3    H134269   7.602   3.252   8.059  1.3467  1.1394 -0.1534
 3358TIP3    H234270   7.639   3.113   8.012 -1.6747 -0.1488  1.0302
 3359TIP3   OH234271   4.437   1.893   8.351 -0.2465  1.1179 -0.0625
 3359TIP3    H134272   4.417   1.973   8.303 -0.9403 -0.2941 -2.3022
 3359TIP3    H234273   4.532   1.882   8.342 -0.4264  0.6313 -1.6045
 3360TIP3   OH234274   4.423   0.984   6.781  0.6806 -0.0677  0.4021
 3360TIP3    H134275   4.352   0.995   6.844 -0.2357  1.8588 -0.8729
 3360TIP3    H234276   4.379   0.976   6.696  1.9285  1.9558 -0.5194
 3361TIP3   OH234277   1.735   6.646   9.443 -0.6931 -0.3242  0.3509
 3361TIP3    H134278   1.769   6.558   9.427 -1.3328 -0.2501 -1.7424
 3361TIP3    H234279   1.642   6.640   9.420 -1.1267  0.5206  1.7746
 3362TIP3   OH234280   7.380   7.340   9.267 -0.1586 -0.5305 -0.2199
 3362TIP3    H134281   7.434   7.269   9.301  1.1459 -0.5790 -2.2226
 3362TIP3    H234282   7.316   7.297   9.211 -0.0055 -0.2268 -0.6408
 3363TIP3   OH234283   5.898   5.883   7.408 -0.2801 -0.1083 -0.7161
 3363TIP3    H134284   5.946   5.907   7.329 -0.5848 -1.2865 -1.2755
 3363TIP3    H234285   5.889   5.788   7.403  0.4072 -0.3254  1.1307
 3364TIP3   OH234286   2.063   2.576   7.495 -0.2624  0.6187  0.6135
 3364TIP3    H134287   2.104   2.497   7.462 -1.3685  0.5291 -0.6061
 3364TIP3    H234288   2.118   2.602   7.569  1.0625 -0.3542  0.0141
 3365TIP3   OH234289   2.119   6.721   7.126 -0.2392  0.5333  0.5992
 3365TIP3    H134290   2.048   6.670   7.166 -1.0017  0.8217 -0.3575
 3365TIP3    H234291   2.092   6.812   7.136  0.3532  0.6874  0.8622
 3366TIP3   OH234292   3.903   0.483   7.672 -0.1197  0.3196 -0.1250
 3366TIP3    H134293   3.955   0.513   7.746  1.2473  2.1204 -1.7215
 3366TIP3    H234294   3.816   0.521   7.688  0.0267  0.3276  0.7398
 3367TIP3   OH234295   6.978   1.883   8.103 -0.4957  0.4010  0.1673
 3367TIP3    H134296   7.012   1.842   8.182 -0.0032 -0.1580 -0.3312
 3367TIP3    H234297   6.887   1.902   8.123 -0.7089 -0.8475  0.4433
 3368TIP3   OH234298   2.883   4.906   9.092  0.2856 -0.3550 -0.0663
 3368TIP3    H134299   2.818   4.966   9.126 -0.4848 -0.9099 -0.5232
 3368TIP3    H234300   2.844   4.871   9.012  1.8923  0.6348 -1.3470
 3369TIP3   OH234301   3.637   6.998   8.723  0.3877 -0.8655 -0.3506
 3369TIP3    H134302   3.612   7.089   8.734 -1.8277 -1.2075 -2.0431
 3369TIP3    H234303   3.632   6.961   8.811  0.8822  0.5055  0.2765
 3370TIP3   OH234304   3.180   4.264   7.403 -0.2830  0.2670  0.2524
 3370TIP3    H134305   3.209   4.353   7.384 -0.5207  0.1100 -0.9121
 3370TIP3    H234306   3.146   4.232   7.320 -1.3930 -0.4621  0.9680
 3371TIP3   OH234307   6.307   2.932   7.888  0.2311 -0.2128 -0.2268
 3371TIP3    H134308   6.297   2.929   7.793 -2.3700 -1.2920 -0.0120
 3371TIP3    H234309   6.243   2.868   7.921  0.1364  1.0342  2.2824
 3372TIP3   OH234310   2.144   7.320   7.807  0.0474  0.0334  0.2687
 3372TIP3    H134311   2.100   7.288   7.886 -0.1822 -0.3222  0.0034
 3372TIP3    H234312   2.091   7.394   7.779  0.4688  0.5356  0.7765
 3373TIP3   OH234313   3.018   1.092   9.074 -0.0139  0.5599 -0.2457
 3373TIP3    H134314   3.070   1.160   9.029 -0.1656  0.3710 -0.7099
 3373TIP3    H234315   2.973   1.139   9.144 -1.5156  1.2937 -1.6580
 3374TIP3   OH234316   2.531   4.724   8.496  0.0856  0.0119 -0.1452
 3374TIP3    H134317   2.520   4.818   8.483  0.5366  0.5212  2.5335
 3374TIP3    H234318   2.447   4.686   8.472 -0.5817  1.2812  0.0929
 3375TIP3   OH234319   3.327   4.699   6.773 -0.1988 -0.0513  0.2876
 3375TIP3    H134320   3.348   4.684   6.681 -0.5350 -0.3982  0.2627
 3375TIP3    H234321   3.232   4.708   6.775 -0.3361 -1.3784  0.7642
 3376TIP3   OH234322   2.881   0.997   9.600  0.3715 -0.0854  0.0446
 3376TIP3    H134323   2.820   1.000   9.674 -0.4896 -0.8772 -0.6136
 3376TIP3    H234324   2.827   1.016   9.524  1.1201  0.0303 -0.4660
 3377TIP3   OH234325   2.826   1.606   6.959  0.0210 -0.0533 -0.2113
 3377TIP3    H134326   2.826   1.556   6.877  1.4507  0.0929 -0.3189
 3377TIP3    H234327   2.778   1.551   7.021  0.8784 -1.2007 -0.5337
 3378TIP3   OH234328   7.384   0.893   7.415 -0.1274  0.0286 -0.3459
 3378TIP3    H134329   7.322   0.853   7.353  1.8286 -1.3963 -1.4879
 3378TIP3    H234330   7.403   0.979   7.377 -0.4778 -0.0242 -0.6506
 3379TIP3   OH234331   3.024   2.446   8.355  0.6667  0.0344 -0.4732
 3379TIP3    H134332   3.080   2.437   8.277 -0.4519  1.1373 -1.4370
 3379TIP3    H234333   2.974   2.364   8.357 -0.6098  0.7129 -2.0258
 3380TIP3   OH234334   7.079   0.296   8.602  0.1104  0.3539  0.2129
 3380TIP3    H134335   7.100   0.205   8.582 -2.7966 -0.4227  0.1482
 3380TIP3    H234336   7.140   0.321   8.671  0.5543 -1.8588  0.6834
 3381TIP3   OH234337   5.175   3.536   7.936  0.6883  0.1820  0.7243
 3381TIP3    H134338   5.106   3.600   7.922  0.8782  0.3584  0.5860
 3381TIP3    H234339   5.253   3.574   7.895  1.3358  0.8392  2.4686
 3382TIP3   OH234340   4.024   3.023   9.434  1.0570  0.2874  0.2324
 3382TIP3    H134341   3.974   3.070   9.502  0.4460  1.3022 -0.8645
 3382TIP3    H234342   3.959   2.966   9.393  1.8386 -1.7290  1.6728
 3383TIP3   OH234343   1.319   6.777   8.607 -0.0157 -0.3136  0.5593
 3383TIP3    H134344   1.243   6.767   8.663 -0.4458  1.6182  0.3881
 3383TIP3    H234345   1.350   6.866   8.624  1.4844 -0.6380 -0.2612
 3384TIP3   OH234346   2.010   0.106   7.905 -0.2055  0.2430 -0.5279
 3384TIP3    H134347   2.085   0.165   7.894  0.2600 -0.3199 -0.4269
 3384TIP3    H234348   1.934   0.163   7.898  0.2449  0.9187 -0.0437
 3385TIP3   OH234349   7.638   0.728   7.456  0.5744 -0.2688  0.1862
 3385TIP3    H134350   7.566   0.785   7.427  1.9010  1.2676 -0.1917
 3385TIP3    H234351   7.682   0.777   7.525  2.0811 -0.5899 -0.5067
 3386TIP3   OH234352   4.936   6.057   9.236  0.2275  0.3212  0.0622
 3386TIP3    H134353   4.846   6.067   9.205  0.5945 -0.0638 -1.2056
 3386TIP3    H234354   4.928   6.051   9.331 -1.1631 -0.4515 -0.0641
 3387TIP3   OH234355   5.391   2.757   9.615  0.3673  0.0675  0.3261
 3387TIP3    H134356   5.326   2.686   9.619  0.6472 -0.1840  0.5034
 3387TIP3    H234357   5.475   2.713   9.628  0.5369  0.4441  0.5299
 3388TIP3   OH234358   3.740   3.127   8.464  0.0722  0.4931  0.4772
 3388TIP3    H134359   3.686   3.130   8.543  0.4681  1.4200  0.7182
 3388TIP3    H234360   3.680   3.148   8.393 -0.2014  0.0360  0.5663
 3389TIP3   OH234361   5.400   0.384   9.124  0.2336  0.0307  0.1589
 3389TIP3    H134362   5.467   0.326   9.159 -0.5543  0.4687  2.5200
 3389TIP3    H234363   5.345   0.327   9.070  1.7036 -0.5758 -0.7699
 3390TIP3   OH234364   7.147   3.808   8.354  0.2822 -0.2302 -0.4338
 3390TIP3    H134365   7.087   3.840   8.422  0.8846 -0.8709  0.4333
 3390TIP3    H234366   7.171   3.720   8.384  1.9368  0.1419 -0.5551
 3391TIP3   OH234367   1.646   4.251   9.454 -0.2832 -0.4210  0.1100
 3391TIP3    H134368   1.625   4.230   9.363  0.5028 -0.0799 -0.1638
 3391TIP3    H234369   1.562   4.268   9.495 -0.8179 -2.1972 -0.1324
 3392TIP3   OH234370   2.359   2.073   7.309  0.3012 -0.4550  0.1277
 3392TIP3    H134371   2.338   2.059   7.217  0.8818 -2.0914  0.2194
 3392TIP3    H234372   2.445   2.116   7.307 -1.2201  2.9136 -0.1317
 3393TIP3   OH234373   2.645   2.645   8.992  0.0666  0.5398  0.5955
 3393TIP3    H134374   2.604   2.719   8.948  0.5226 -0.6670 -2.0415
 3393TIP3    H234375   2.739   2.657   8.975  0.1325 -0.6573  0.0311
 3394TIP3   OH234376   1.889   0.196   8.626  0.2706  0.1159  0.0194
 3394TIP3    H134377   1.946   0.193   8.703  1.1975  2.0531 -0.5161
 3394TIP3    H234378   1.946   0.174   8.553 -0.4519 -1.0425 -0.2280
 3395TIP3   OH234379   5.983   1.687   8.955  0.2833 -0.0761 -0.3850
 3395TIP3    H134380   5.937   1.753   9.007  2.3309  0.8634  0.3191
 3395TIP3    H234381   5.992   1.726   8.868  0.9776  0.3510 -0.1288
 3396TIP3   OH234382   1.650   1.403   7.279 -0.5487  0.4151 -0.3602
 3396TIP3    H134383   1.630   1.489   7.243  1.4742  0.4334 -1.5649
 3396TIP3    H234384   1.661   1.347   7.202  0.6428 -0.3238  0.3301
 3397TIP3   OH234385   5.628   6.158   7.913 -0.2325  0.1738  0.0837
 3397TIP3    H134386   5.541   6.136   7.946  0.1135 -1.3502  0.0608
 3397TIP3    H234387   5.687   6.101   7.962  0.8056  1.4106  0.3287
 3398TIP3   OH234388   3.614   3.684   8.553 -0.5921 -0.3909  0.3664
 3398TIP3    H134389   3.587   3.701   8.643 -0.8487 -1.0910  0.4198
 3398TIP3    H234390   3.676   3.612   8.559 -0.2923 -0.1692  0.0204
 3399TIP3   OH234391   3.546   6.941   8.469  0.2135 -0.0961  0.1832
 3399TIP3    H134392   3.507   7.013   8.419 -2.0706 -1.5814 -0.3021
 3399TIP3    H234393   3.568   6.980   8.553  0.7257  1.5880 -0.6822
 3400TIP3   OH234394   4.604   3.902   8.857  0.4632 -0.0163  0.2358
 3400TIP3    H134395   4.631   3.857   8.937  1.9784  0.4862  0.0291
 3400TIP3    H234396   4.564   3.833   8.803 -3.1976  0.0782  2.4345
 3401TIP3   OH234397   1.812   4.029   6.897 -0.4411  0.2066 -0.4201
 3401TIP3    H134398   1.828   3.945   6.855  0.5584 -0.9586  2.0548
 3401TIP3    H234399   1.853   4.093   6.839 -0.4565 -1.0895 -1.9287
 3402TIP3   OH234400   1.565   2.983   7.295  0.1298 -0.0684 -0.1498
 3402TIP3    H134401   1.501   2.968   7.226  0.3320 -0.2514 -0.2980
 3402TIP3    H234402   1.631   2.915   7.282 -0.5321 -0.9876  1.0654
 3403TIP3   OH234403   7.442   2.966   7.445  0.2361  0.2145 -0.3482
 3403TIP3    H134404   7.420   3.017   7.367  1.4991  0.0795 -0.8266
 3403TIP3    H234405   7.481   2.885   7.411  1.2669  0.3683  0.4020
 3404TIP3   OH234406   1.338   1.313   7.476 -0.4547  0.0205  0.0712
 3404TIP3    H134407   1.425   1.273   7.469 -0.9103 -1.2503  1.1629
 3404TIP3    H234408   1.291   1.282   7.399  0.1411  0.9797 -0.6979
 3405TIP3   OH234409   3.072   5.535   8.264  0.1502 -0.5703 -0.2428
 3405TIP3    H134410   3.102   5.581   8.186 -0.4507  1.3473  0.5918
 3405TIP3    H234411   3.061   5.604   8.329 -2.0651 -1.7168  0.6951
 3406TIP3   OH234412   0.082   4.912   7.903  0.1371  0.4407 -0.1446
 3406TIP3    H134413   0.151   4.931   7.840 -0.7004  0.4710 -1.0750
 3406TIP3    H234414   0.077   4.816   7.904  0.0730  0.4438 -0.1994
 3407TIP3   OH234415   2.568   5.255   8.239  0.0964  0.0092  0.7466
 3407TIP3    H134416   2.659   5.226   8.249  0.2661  0.0102 -0.5448
 3407TIP3    H234417   2.574   5.329   8.178 -0.8810 -0.8341 -0.4238
 3408TIP3   OH234418   5.243   1.839   8.932  0.6189  0.3522 -0.3060
 3408TIP3    H134419   5.303   1.913   8.929 -0.4328  1.2223 -0.4652
 3408TIP3    H234420   5.170   1.865   8.875  0.9317 -1.4409 -1.6319
 3409TIP3   OH234421   0.485   1.177   9.150  0.5690 -0.5713 -0.1704
 3409TIP3    H134422   0.466   1.230   9.072 -0.2765 -0.1456  0.3069
 3409TIP3    H234423   0.578   1.156   9.142  0.9101  0.8849 -0.4546
 3410TIP3   OH234424   3.592   4.596   7.621  0.3551  0.9700 -0.3082
 3410TIP3    H134425   3.525   4.661   7.639  0.1855  0.3143  1.6206
 3410TIP3    H234426   3.611   4.556   7.706  1.0957 -0.8808 -1.2864
 3411TIP3   OH234427   2.978   3.445   7.898  0.4995  0.2758 -0.5864
 3411TIP3    H134428   3.040   3.516   7.885  1.7356 -0.1501  2.2050
 3411TIP3    H234429   2.931   3.468   7.978  1.4166 -2.2746  0.7942
 3412TIP3   OH234430   6.881   5.345   7.305 -0.4570  0.3773  0.2073
 3412TIP3    H134431   6.976   5.346   7.319 -0.4463 -0.8195  0.2884
 3412TIP3    H234432   6.864   5.263   7.259 -1.4006  0.8230 -0.2727
 3413TIP3   OH234433   1.647   0.545   8.586  0.8150 -0.3633  0.1627
 3413TIP3    H134434   1.553   0.526   8.586  0.9191 -1.2402  2.4169
 3413TIP3    H234435   1.679   0.510   8.503 -0.5536 -1.7729  0.1910
 3414TIP3   OH234436   5.181   6.929   7.535  0.7287 -0.1749  0.0458
 3414TIP3    H134437   5.249   6.969   7.481 -0.5786  1.4816 -0.4448
 3414TIP3    H234438   5.205   6.836   7.539  2.7454  0.2764 -0.4810
 3415TIP3   OH234439   5.470   0.165   8.868  0.4024  0.7568 -0.0975
 3415TIP3    H134440   5.408   0.210   8.811 -0.1930 -0.6254 -0.5879
 3415TIP3    H234441   5.459   0.072   8.847  0.9577  0.2949  1.4843
 3416TIP3   OH234442   5.676   6.044   8.561 -0.1718 -0.1356 -0.2089
 3416TIP3    H134443   5.768   6.035   8.587 -0.2024  1.9572  0.8794
 3416TIP3    H234444   5.641   6.109   8.622 -1.8621  0.5603 -1.8481
 3417TIP3   OH234445   7.283   6.302   7.452  0.4008 -0.2645  0.4306
 3417TIP3    H134446   7.324   6.274   7.369  3.2269  1.6621  1.0367
 3417TIP3    H234447   7.294   6.227   7.510  0.4267 -0.8209 -0.2729
 3418TIP3   OH234448   6.929   1.550   8.248 -0.3001 -0.2872 -0.1987
 3418TIP3    H134449   6.899   1.557   8.157  0.3116 -4.4111 -0.8932
 3418TIP3    H234450   7.014   1.507   8.242  0.1412  0.0898  2.3330
 3419TIP3   OH234451   6.364   0.850   8.330 -0.0935  0.0757  0.2050
 3419TIP3    H134452   6.402   0.805   8.255  0.6250 -0.8185  1.0858
 3419TIP3    H234453   6.382   0.793   8.405 -1.9413  0.3063  0.8821
 3420TIP3   OH234454   7.290   0.117   8.293 -0.1356 -0.3322 -0.2112
 3420TIP3    H134455   7.196   0.104   8.310  0.1539  0.1803  2.1216
 3420TIP3    H234456   7.293   0.155   8.205 -2.2253  0.9279  0.1786
 3421TIP3   OH234457   0.613   1.542   9.180 -0.3394 -0.1353 -0.8446
 3421TIP3    H134458   0.537   1.569   9.128  0.8553  0.4503 -2.3723
 3421TIP3    H234459   0.658   1.623   9.202  0.2869 -0.5209 -0.6711
 3422TIP3   OH234460   4.844   5.844   7.189 -0.0901  0.3215  0.3448
 3422TIP3    H134461   4.861   5.751   7.172  0.3641  0.0892  1.9069
 3422TIP3    H234462   4.753   5.847   7.217 -0.2489  0.4251 -0.1711
 3423TIP3   OH234463   1.445   6.155   8.681 -0.5409 -0.2240  0.0065
 3423TIP3    H134464   1.452   6.067   8.644  0.0066 -0.8764  1.5838
 3423TIP3    H234465   1.485   6.212   8.615 -1.1418 -1.0954 -1.1532
 3424TIP3   OH234466   6.118   6.341   8.052 -0.3337 -0.6885  0.0117
 3424TIP3    H134467   6.097   6.341   8.145 -2.1404 -1.9140 -0.3362
 3424TIP3    H234468   6.035   6.325   8.009  0.2448  1.1331 -1.9087
 3425TIP3   OH234469   6.376   1.038   8.546 -0.0606 -0.0884  0.4820
 3425TIP3    H134470   6.360   0.983   8.623  2.5680 -0.5545  0.7670
 3425TIP3    H234471   6.350   0.983   8.472  1.2692 -1.2456  0.8365
 3426TIP3   OH234472   2.126   2.892   8.558  0.7864 -0.9236 -0.4528
 3426TIP3    H134473   2.096   2.980   8.538  1.1963 -1.1061 -1.9997
 3426TIP3    H234474   2.057   2.835   8.525  0.1894 -1.1921  1.1692
 3427TIP3   OH234475   1.217   4.460   7.993  0.6265  0.3838  0.0892
 3427TIP3    H134476   1.237   4.487   7.903  1.4752  3.5519  1.0896
 3427TIP3    H234477   1.128   4.492   8.008  0.4412 -0.2464  0.3569
 3428TIP3   OH234478   6.868   3.978   7.521  0.2646  0.0064 -0.0393
 3428TIP3    H134479   6.789   3.929   7.541 -0.0435  0.2279 -0.6761
 3428TIP3    H234480   6.860   4.059   7.572  0.5109 -0.3551  0.5822
 3429TIP3   OH234481   7.488   3.670   9.249  0.2315 -0.4404  0.1692
 3429TIP3    H134482   7.555   3.609   9.218 -0.6567 -2.2029  1.5098
 3429TIP3    H234483   7.509   3.682   9.341 -1.1911 -0.9137  0.5687
 3430TIP3   OH234484   6.009   2.192   7.547 -0.8596  0.1301  0.0549
 3430TIP3    H134485   6.020   2.252   7.620 -0.9228 -0.1994  0.3391
 3430TIP3    H234486   5.943   2.234   7.492  0.2750  1.1142 -0.6079
 3431TIP3   OH234487   3.924   1.154   7.708  0.2617  0.2557 -0.1389
 3431TIP3    H134488   3.869   1.079   7.732 -0.5885  1.2621  1.2283
 3431TIP3    H234489   4.012   1.130   7.736  0.5601 -1.3315 -2.2385
 3432TIP3   OH234490   5.715   0.312   8.677  0.5845  0.0411 -0.1629
 3432TIP3    H134491   5.708   0.344   8.767  1.1202  0.8517 -0.3945
 3432TIP3    H234492   5.808   0.321   8.656  0.3254  0.7692 -1.1105
 3433TIP3   OH234493   4.396   4.594   8.737 -0.1644  0.4966  0.1026
 3433TIP3    H134494   4.311   4.553   8.756  0.2174 -0.4560 -0.1538
 3433TIP3    H234495   4.460   4.528   8.762  0.5544  1.6120  1.2954
 3434TIP3   OH234496   5.930   3.624   8.066 -0.1100 -0.5655  0.1597
 3434TIP3    H134497   5.985   3.631   8.145  1.2180  1.8200 -0.8818
 3434TIP3    H234498   5.886   3.709   8.060 -1.4887 -1.3029 -0.8258
 3435TIP3   OH234499   0.101   3.098   7.549 -0.4702  0.6579 -0.0893
 3435TIP3    H134500   0.056   3.019   7.518  0.7873 -0.3476  0.5402
 3435TIP3    H234501   0.071   3.109   7.640  0.1384  0.2936  0.1589
 3436TIP3   OH234502   7.254   3.717   7.829  0.2893  0.1230  0.1634
 3436TIP3    H134503   7.185   3.732   7.763 -0.7468  1.1338  1.4234
 3436TIP3    H234504   7.324   3.776   7.803  0.1421  0.0784 -0.3650
 3437TIP3   OH234505   4.400   2.305   7.855 -0.4172 -0.0474  0.2959
 3437TIP3    H134506   4.433   2.275   7.770  1.4439  3.5203 -0.4555
 3437TIP3    H234507   4.306   2.288   7.851 -0.1487 -1.5558 -1.7280
 3438TIP3   OH234508   6.789   6.340   7.765 -0.5121  0.0497 -0.0393
 3438TIP3    H134509   6.763   6.399   7.837 -1.2424 -0.0174 -0.2379
 3438TIP3    H234510   6.821   6.261   7.809 -0.0896  0.3568  0.2206
 3439TIP3   OH234511   0.544   1.540   7.764 -0.5379 -0.3359  0.4397
 3439TIP3    H134512   0.581   1.454   7.744  0.8654 -0.1475  2.0073
 3439TIP3    H234513   0.501   1.528   7.849 -1.0828  0.3140  0.2621
 3440TIP3   OH234514   2.027   0.626   9.182 -0.4115  0.0285 -0.4504
 3440TIP3    H134515   1.954   0.590   9.132  0.8977  0.6595 -2.9690
 3440TIP3    H234516   2.010   0.720   9.186 -0.7473 -0.0648  0.7917
 3441TIP3   OH234517   5.836   3.276   9.461 -0.6685  0.1530  0.5409
 3441TIP3    H134518   5.761   3.218   9.452 -0.2584 -0.0746 -2.2087
 3441TIP3    H234519   5.809   3.358   9.419 -0.0874  0.8272  1.4212
 3442TIP3   OH234520   7.581   6.219   8.202  0.3498 -0.3358 -0.0039
 3442TIP3    H134521   7.636   6.152   8.242 -1.1168 -1.8356 -0.3659
 3442TIP3    H234522   7.615   6.229   8.113 -0.7009 -2.2458 -0.6831
 3443TIP3   OH234523   3.838   4.322   8.901  0.8420 -0.1276  1.0773
 3443TIP3    H134524   3.763   4.333   8.842  3.2647  1.3577 -2.0288
 3443TIP3    H234525   3.798   4.305   8.987 -2.9675 -1.4287 -0.7020
 3444TIP3   OH234526   0.387   0.125   7.925 -0.1748 -0.3200  0.0668
 3444TIP3    H134527   0.414   0.144   8.015 -1.1912 -0.6224  0.4406
 3444TIP3    H234528   0.302   0.083   7.933  0.7847 -2.6309 -0.8829
 3445TIP3   OH234529   0.251   4.248   7.913 -0.5270  0.7635  0.2761
 3445TIP3    H134530   0.259   4.343   7.907 -0.0741  0.6467 -1.6838
 3445TIP3    H234531   0.235   4.220   7.823 -0.8346 -1.0108  0.8497
 3446TIP3   OH234532   4.280   2.727   7.801  0.0692  0.5053  0.1071
 3446TIP3    H134533   4.345   2.796   7.789 -0.4339  1.0987  0.6901
 3446TIP3    H234534   4.265   2.692   7.713  1.9509 -0.3809  0.0939
 3447TIP3   OH234535   2.153   1.053   9.506 -0.3174 -0.6408  0.3291
 3447TIP3    H134536   2.187   1.070   9.594 -0.8806  0.1320  0.4101
 3447TIP3    H234537   2.217   1.094   9.447 -2.0752  2.7735  0.5463
 3448TIP3   OH234538   6.362   5.236   7.061  0.1903  0.4729  0.1048
 3448TIP3    H134539   6.454   5.215   7.077 -0.4394 -1.6176  1.3731
 3448TIP3    H234540   6.360   5.271   6.972  2.0821 -0.3209 -0.2882
 3449TIP3   OH234541   2.998   1.998   7.307  0.6964  0.0237  0.5253
 3449TIP3    H134542   3.080   2.006   7.356  1.7132  1.2050 -1.2570
 3449TIP3    H234543   2.983   2.086   7.271  0.6133 -0.9884 -2.1289
 3450TIP3   OH234544   6.381   4.113   7.395 -0.9201 -0.1907  0.4647
 3450TIP3    H134545   6.412   4.178   7.332 -3.3553 -0.3755 -1.0955
 3450TIP3    H234546   6.290   4.138   7.412 -1.5992 -2.5489  0.6617
 3451TIP3   OH234547   3.504   1.625   8.766  0.2508  0.4537 -0.1371
 3451TIP3    H134548   3.447   1.700   8.747 -0.0729  0.9979  2.5316
 3451TIP3    H234549   3.590   1.651   8.732 -0.3644  0.9962 -1.3426
 3452TIP3   OH234550   3.489   5.605   9.687 -0.5061  0.3873  0.4770
 3452TIP3    H134551   3.569   5.630   9.733 -0.2552 -1.1093  0.9056
 3452TIP3    H234552   3.452   5.688   9.656  0.0412  1.3144  2.1793
 3453TIP3   OH234553   3.800   4.126   8.467  0.1546 -1.0057  0.0454
 3453TIP3    H134554   3.731   4.161   8.524 -0.6441 -0.3733 -1.2455
 3453TIP3    H234555   3.775   4.035   8.452 -0.5788 -0.7084 -0.6304
 3454TIP3   OH234556   5.426   3.174   9.148  0.0843  0.1219 -0.1539
 3454TIP3    H134557   5.443   3.165   9.054  1.9397 -0.5808  0.2223
 3454TIP3    H234558   5.348   3.119   9.163 -0.3032  0.3240 -1.2763
 3455TIP3   OH234559   5.502   1.105   9.519 -0.2331  0.1183  0.0756
 3455TIP3    H134560   5.592   1.136   9.531 -0.5908  1.7816 -1.0692
 3455TIP3    H234561   5.450   1.185   9.515 -1.4494 -0.6920 -1.5375
 3456TIP3   OH234562   5.763   7.406   8.988 -0.0106 -0.0416 -0.5426
 3456TIP3    H134563   5.707   7.379   8.914  1.3342  1.0596 -2.0370
 3456TIP3    H234564   5.733   7.494   9.010 -0.3429 -0.3325  0.1849
 3457TIP3   OH234565   4.229   6.705   9.227  0.2533  0.2582 -0.4582
 3457TIP3    H134566   4.230   6.649   9.150  2.5278  0.1959 -0.4505
 3457TIP3    H234567   4.182   6.784   9.200  1.3984  0.4257 -2.0837
 3458TIP3   OH234568   3.540   1.321   9.122 -0.1909 -0.3372  0.0107
 3458TIP3    H134569   3.612   1.316   9.059 -1.3937  2.4573 -1.7600
 3458TIP3    H234570   3.568   1.386   9.186 -0.5192 -0.4118  0.2339
 3459TIP3   OH234571   5.541   4.729   7.750 -0.2430  0.3943  0.2102
 3459TIP3    H134572   5.550   4.788   7.675 -0.0550  1.4191  1.0109
 3459TIP3    H234573   5.474   4.771   7.805 -0.2407 -0.2378  0.7027
 3460TIP3   OH234574   2.153   7.653   9.433 -0.1699 -0.2484  0.2990
 3460TIP3    H134575   2.077   7.711   9.431 -0.0113  0.4013  4.4167
 3460TIP3    H234576   2.118   7.567   9.456  0.1054 -0.4973 -0.2055
 3461TIP3   OH234577   2.816   3.762   9.042  0.2806  0.6406  0.5291
 3461TIP3    H134578   2.832   3.692   9.106  2.7293  3.2189  3.0466
 3461TIP3    H234579   2.833   3.721   8.957 -0.2673 -2.2289  1.6584
 3462TIP3   OH234580   2.014   5.762   7.176  0.3518  0.4744 -0.0625
 3462TIP3    H134581   2.031   5.669   7.161 -0.2224  0.4883 -0.8985
 3462TIP3    H234582   2.089   5.792   7.227 -0.6913 -1.0268  2.6164
 3463TIP3   OH234583   0.707   2.964   8.214 -0.4147 -0.5164  0.1853
 3463TIP3    H134584   0.657   2.915   8.279 -2.6512  1.8593  0.4180
 3463TIP3    H234585   0.677   2.931   8.130  0.5424 -1.7562  0.2971
 3464TIP3   OH234586   7.409   1.272   9.271 -0.4389  0.3140  0.0404
 3464TIP3    H134587   7.346   1.201   9.260  0.5346 -0.4971 -0.5352
 3464TIP3    H234588   7.402   1.297   9.363 -0.9621 -0.3763  0.1938
 3465TIP3   OH234589   1.673   0.210   7.690  0.2287 -0.0661 -0.1440
 3465TIP3    H134590   1.689   0.271   7.763  2.5130  0.2724 -0.8661
 3465TIP3    H234591   1.697   0.124   7.725 -2.5741 -0.6059  0.7305
 3466TIP3   OH234592   1.729   5.212   8.870 -0.4759  0.4578  0.1014
 3466TIP3    H134593   1.762   5.206   8.960 -1.4749  0.9500  0.5081
 3466TIP3    H234594   1.634   5.214   8.879 -0.6780 -1.3063 -1.0693
 3467TIP3   OH234595   7.336   1.712   8.379 -0.2040  0.5075  0.1057
 3467TIP3    H134596   7.389   1.785   8.349  0.1946  0.2918  0.2733
 3467TIP3    H234597   7.380   1.681   8.459  0.3147 -0.6433 -0.5951
 3468TIP3   OH234598   5.222   3.212   8.183 -0.3503 -0.1193 -0.4890
 3468TIP3    H134599   5.136   3.178   8.207 -0.9355  1.3389 -0.4779
 3468TIP3    H234600   5.282   3.169   8.244 -1.2281 -0.1226  0.3826
 3469TIP3   OH234601   3.986   2.839   8.820 -0.3104  0.3970 -1.3425
 3469TIP3    H134602   4.045   2.911   8.797  0.2818  0.0042 -1.0647
 3469TIP3    H234603   3.993   2.777   8.748  1.8989 -1.0541  0.0034
 3470TIP3   OH234604   5.784   2.503   7.516  0.4988 -0.0589  0.3076
 3470TIP3    H134605   5.719   2.514   7.447  0.7749 -0.3996 -0.0139
 3470TIP3    H234606   5.733   2.498   7.597  0.1528  0.0419  0.0978
 3471TIP3   OH234607   2.165   7.035   9.371  0.3535  0.1061  0.1280
 3471TIP3    H134608   2.253   7.071   9.363 -0.0553  0.9737 -0.6062
 3471TIP3    H234609   2.124   7.088   9.440  0.7591 -1.0694  1.3272
 3472TIP3   OH234610   0.228   4.311   6.806  0.1444 -0.1896  0.0058
 3472TIP3    H134611   0.203   4.254   6.879  1.2172 -1.3110 -0.4611
 3472TIP3    H234612   0.314   4.278   6.778  0.3240  1.0162 -0.9536
 3473TIP3   OH234613   3.135   1.152   6.819 -0.3769  0.6158  0.3706
 3473TIP3    H134614   3.227   1.143   6.846  0.1739 -1.2073 -1.8041
 3473TIP3    H234615   3.088   1.171   6.900  1.6327 -0.6269  1.9223
 3474TIP3   OH234616   1.808   4.044   8.679 -0.7140  0.0164  0.7050
 3474TIP3    H134617   1.773   4.051   8.767 -0.5598 -3.1149  1.1373
 3474TIP3    H234618   1.903   4.051   8.690 -0.6185 -1.3926  1.0014
 3475TIP3   OH234619   2.247   7.589   6.807 -0.2048 -0.1724  0.2509
 3475TIP3    H134620   2.214   7.518   6.751  0.2626 -0.1666 -0.0353
 3475TIP3    H234621   2.304   7.640   6.750  0.4479 -0.2835  0.7866
 3476TIP3   OH234622   4.125   4.044   6.955  0.2274  0.6950 -0.2167
 3476TIP3    H134623   4.106   3.968   6.900 -0.2365  1.1008 -0.6266
 3476TIP3    H234624   4.138   4.116   6.893  1.9699  0.6975  0.0949
 3477TIP3   OH234625   1.504   3.215   9.397 -0.5860  0.2689  0.3140
 3477TIP3    H134626   1.504   3.141   9.457 -0.0900  0.1214  0.1323
 3477TIP3    H234627   1.547   3.182   9.318 -0.2212  0.7945  0.2868
 3478TIP3   OH234628   6.857   6.024   8.917 -0.0033 -0.2779 -0.1702
 3478TIP3    H134629   6.815   5.971   8.849  0.2006 -0.2386 -0.3264
 3478TIP3    H234630   6.861   5.967   8.993  4.7747 -2.4021 -1.6391
 3479TIP3   OH234631   1.688   6.787   7.592 -0.1441 -0.2771 -0.2106
 3479TIP3    H134632   1.626   6.859   7.580  1.0241  1.0855  1.3960
 3479TIP3    H234633   1.764   6.812   7.540  0.3545 -0.2023  0.5350
 3480TIP3   OH234634   5.733   2.175   7.542  0.2250 -0.0047  0.2705
 3480TIP3    H134635   5.649   2.218   7.525 -0.6279 -1.9329 -0.6597
 3480TIP3    H234636   5.721   2.132   7.627  0.0820 -0.6463 -0.0644
 3481TIP3   OH234637   6.971   0.962   8.154 -0.0567 -0.3517 -0.0305
 3481TIP3    H134638   6.982   0.975   8.060 -0.0424  2.4335  0.2844
 3481TIP3    H234639   7.026   1.029   8.194 -3.4281  1.5036  1.8635
 3482TIP3   OH234640   5.945   3.750   9.163  0.6758 -0.0973  0.0751
 3482TIP3    H134641   5.951   3.834   9.209  0.4031 -0.5563  0.9741
 3482TIP3    H234642   5.899   3.692   9.224  2.5998 -1.4852  0.3180
 3483TIP3   OH234643   4.418   0.504   7.902 -0.0835 -0.2535  0.6262
 3483TIP3    H134644   4.514   0.496   7.900  0.0324  1.0472  0.6516
 3483TIP3    H234645   4.391   0.442   7.970  0.7089 -0.8626  0.4010
 3484TIP3   OH234646   6.074   3.071   8.950 -0.1707 -0.1174  0.1418
 3484TIP3    H134647   6.059   3.020   9.030  0.9540  0.3902  0.7053
 3484TIP3    H234648   6.004   3.137   8.951 -0.1517 -0.0968  0.7399
 3485TIP3   OH234649   2.511   1.938   8.956 -0.3312  0.3874  0.1363
 3485TIP3    H134650   2.497   2.002   9.025 -2.3067  2.5287 -2.0426
 3485TIP3    H234651   2.424   1.905   8.936  0.3153 -0.8833 -0.6832
 3486TIP3   OH234652   1.382   2.933   8.654 -0.2173  0.2711  0.3781
 3486TIP3    H134653   1.417   2.849   8.684 -0.2449  0.3763  0.7080
 3486TIP3    H234654   1.287   2.918   8.648 -0.5370  0.9684  2.7847
 3487TIP3   OH234655   3.169   3.138   8.314  0.1058 -0.0647 -0.4406
 3487TIP3    H134656   3.207   3.096   8.237  0.1323 -0.9519  0.0413
 3487TIP3    H234657   3.195   3.082   8.388 -1.2230 -0.1160  0.0240
 3488TIP3   OH234658   3.914   2.221   6.624 -0.2784 -0.3062 -0.0460
 3488TIP3    H134659   3.926   2.160   6.551 -1.1207 -1.6849  0.9315
 3488TIP3    H234660   3.904   2.165   6.701  0.1306  1.1055  1.0812
 3489TIP3   OH234661   3.922   1.122   8.275 -0.2736 -0.3020  0.4431
 3489TIP3    H134662   4.000   1.152   8.322 -0.1559  0.5189 -0.2552
 3489TIP3    H234663   3.932   1.027   8.272  0.0023 -0.3177  1.5659
 3490TIP3   OH234664   1.448   7.185   8.215  0.0647  0.3732  0.4635
 3490TIP3    H134665   1.514   7.244   8.178 -0.8512  1.1614  0.0665
 3490TIP3    H234666   1.390   7.164   8.142 -0.4787  0.1668  0.9479
 3491TIP3   OH234667   5.631   1.969   9.300  0.0742 -0.1789 -0.1136
 3491TIP3    H134668   5.535   1.970   9.299  0.0307  2.5573  0.7585
 3491TIP3    H234669   5.656   2.018   9.221  0.7975 -0.8352 -0.3123
 3492TIP3   OH234670   0.647   6.557   8.163  0.4997 -0.1993 -0.2098
 3492TIP3    H134671   0.557   6.585   8.179  0.6606 -0.7215  1.8179
 3492TIP3    H234672   0.639   6.464   8.141  0.4204  0.1806 -1.9867
 3493TIP3   OH234673   5.214   7.607   8.573 -0.4370 -0.5293 -0.6083
 3493TIP3    H134674   5.261   7.593   8.491 -0.6083 -0.9069 -0.6432
 3493TIP3    H234675   5.248   7.539   8.632  1.8585  1.5250  0.5910
 3494TIP3   OH234676   2.506   2.303   8.654  0.6209  0.2198  0.6652
 3494TIP3    H134677   2.486   2.270   8.566 -0.0409  1.5742  0.2834
 3494TIP3    H234678   2.454   2.248   8.712  0.2286  0.0064  0.1249
 3495TIP3   OH234679   3.723   4.268   9.178  0.5872  0.3146 -0.3097
 3495TIP3    H134680   3.726   4.344   9.236 -0.0878  0.8984 -1.0195
 3495TIP3    H234681   3.696   4.195   9.234  0.0924  0.8416  0.1420
 3496TIP3   OH234682   2.022   7.003   8.312  0.0789 -0.8057 -0.0980
 3496TIP3    H134683   1.944   7.012   8.368 -0.2030 -0.1847 -0.5854
 3496TIP3    H234684   2.008   6.920   8.266 -0.9008 -0.1194 -1.0898
 3497TIP3   OH234685   2.898   4.208   9.141  0.1996  0.6920  0.3709
 3497TIP3    H134686   2.875   4.153   9.066 -0.5408 -1.5401  2.1068
 3497TIP3    H234687   2.991   4.190   9.156 -0.5483 -2.2564  2.4133
 3498TIP3   OH234688   5.071   4.529   9.536 -0.7803 -0.1337 -0.2804
 3498TIP3    H134689   5.027   4.550   9.453 -0.4863 -0.8630 -0.6326
 3498TIP3    H234690   5.002   4.531   9.601 -0.8519  1.3781 -0.3795
 3499TIP3   OH234691   3.757   1.689   8.735 -0.2498 -0.2415  0.6975
 3499TIP3    H134692   3.765   1.696   8.830  0.8270  0.5157  0.5778
 3499TIP3    H234693   3.841   1.654   8.707 -0.4234 -0.1069 -0.0020
 3500TIP3   OH234694   6.027   4.824   7.980  0.2745  0.1278  0.6178
 3500TIP3    H134695   6.071   4.900   7.941 -0.5089 -0.4763 -1.5990
 3500TIP3    H234696   6.054   4.750   7.927 -1.4239 -0.6323  0.7285
 3501TIP3   OH234697   3.593   7.573   8.533  0.1615  0.2480 -0.3868
 3501TIP3    H134698   3.591   7.668   8.535  2.2621  0.3483 -0.4119
 3501TIP3    H234699   3.516   7.547   8.483 -0.5496  1.9109 -0.1990
 3502TIP3   OH234700   3.165   5.339   7.060 -0.7169 -0.3056  0.2147
 3502TIP3    H134701   3.106   5.296   6.998  0.9626 -1.6258 -0.5086
 3502TIP3    H234702   3.220   5.396   7.006  0.6897 -1.3893  0.4650
 3503TIP3   OH234703   5.862   2.376   7.897 -0.2284  0.5160  0.4317
 3503TIP3    H134704   5.886   2.284   7.909 -1.0793  0.2383  0.0470
 3503TIP3    H234705   5.940   2.416   7.857 -0.6388 -0.5412 -1.5455
 3504TIP3   OH234706   6.828   5.562   9.250  0.4530  0.5304  0.1476
 3504TIP3    H134707   6.920   5.577   9.228  1.7269 -2.4012  2.8468
 3504TIP3    H234708   6.815   5.607   9.334 -0.6652  1.0307 -0.2652
 3505TIP3   OH234709   5.754   6.195   7.681  0.3665 -0.8418  0.0119
 3505TIP3    H134710   5.705   6.176   7.761  0.6125  1.9898  0.9647
 3505TIP3    H234711   5.688   6.197   7.612 -0.8343  1.8608  1.1007
 3506TIP3   OH234712   5.880   2.259   8.899 -0.6408  0.1485  0.1398
 3506TIP3    H134713   5.971   2.278   8.921  0.2722 -2.3734 -1.0823
 3506TIP3    H234714   5.859   2.322   8.829  1.0385 -0.7728 -1.2802
 3507TIP3   OH234715   3.595   7.653   8.214 -0.0889  0.2587 -0.0195
 3507TIP3    H134716   3.651   7.641   8.291 -0.4103  0.5405  0.2590
 3507TIP3    H234717   3.540   7.576   8.212 -0.9578  0.8402  0.7728
 3508TIP3   OH234718   5.413   0.864   7.803  0.0081  0.3078 -0.0983
 3508TIP3    H134719   5.448   0.830   7.720 -0.1795 -0.1955  0.0199
 3508TIP3    H234720   5.484   0.854   7.865 -0.6028 -1.6296  0.3755
 3509TIP3   OH234721   2.831   4.118   6.964 -0.3079 -0.2307  0.1912
 3509TIP3    H134722   2.797   4.029   6.952 -0.8672 -0.0433  0.3886
 3509TIP3    H234723   2.760   4.175   6.936 -0.5832  0.1812  1.6700
 3510TIP3   OH234724   4.327   4.489   7.635 -0.0817 -0.0641 -0.2072
 3510TIP3    H134725   4.387   4.529   7.699 -1.1292  0.1985  0.6359
 3510TIP3    H234726   4.303   4.405   7.673 -0.4488 -0.0523 -0.4057
 3511TIP3   OH234727   3.955   2.043   6.397 -0.1872  0.2933  0.2082
 3511TIP3    H134728   3.990   2.094   6.324 -1.2682  0.2694 -0.3582
 3511TIP3    H234729   3.948   1.954   6.364  0.4887  0.0290  0.7654
 3512TIP3   OH234730   3.338   1.865   8.672 -1.0271  0.2661 -0.3160
 3512TIP3    H134731   3.362   1.957   8.686 -0.6302  0.3245 -1.3101
 3512TIP3    H234732   3.324   1.858   8.578  0.8253 -1.1074 -0.5492
 3513TIP3   OH234733   5.492   0.200   7.879 -0.1311  0.1133 -0.3390
 3513TIP3    H134734   5.561   0.261   7.855 -1.6613  1.3384 -1.8151
 3513TIP3    H234735   5.433   0.197   7.803 -2.6214  0.4420  1.4286
 3514TIP3   OH234736   6.404   1.031   9.524  0.0899 -0.0913  0.4957
 3514TIP3    H134737   6.425   0.942   9.553  1.9902  0.2498  0.3118
 3514TIP3    H234738   6.484   1.081   9.541  0.0213  0.9747 -1.8708
 3515TIP3   OH234739   3.758   7.251   8.469  0.3640  0.4563 -0.3899
 3515TIP3    H134740   3.722   7.198   8.540  2.5283 -1.9566 -0.9341
 3515TIP3    H234741   3.839   7.288   8.506  2.6598 -2.5166 -1.9894
 3516TIP3   OH234742   6.461   3.185   8.621  0.0012 -0.1221 -0.2411
 3516TIP3    H134743   6.533   3.190   8.684  0.0570  0.9536 -0.3613
 3516TIP3    H234744   6.436   3.277   8.607 -1.7592 -0.5009  0.1994
 3517TIP3   OH234745   1.929   2.247   7.243 -0.3509  0.1564  0.2237
 3517TIP3    H134746   1.920   2.200   7.326  1.8091 -1.1351 -0.2059
 3517TIP3    H234747   1.851   2.223   7.194 -1.5524  0.7577  1.7386
 3518TIP3   OH234748   2.671   7.117   8.143  0.0959  0.4236  0.4725
 3518TIP3    H134749   2.661   7.212   8.151 -0.2659  0.4390 -0.1491
 3518TIP3    H234750   2.754   7.098   8.187  0.6806  1.1527 -0.2995
 3519TIP3   OH234751   3.805   5.811   8.389 -0.4230 -0.0123 -0.2464
 3519TIP3    H134752   3.884   5.863   8.377 -0.0471 -0.4552  0.2585
 3519TIP3    H234753   3.786   5.814   8.482 -0.8957 -0.0681 -0.3334
 3520TIP3   OH234754   1.136   2.223   8.858 -0.5214 -1.0025 -0.0136
 3520TIP3    H134755   1.044   2.245   8.871 -0.2735 -0.4215  0.8388
 3520TIP3    H234756   1.141   2.191   8.768 -1.4118 -0.2840 -0.3247
 3521TIP3   OH234757   2.217   5.537   8.570  0.7524  0.9064 -0.0563
 3521TIP3    H134758   2.287   5.482   8.534 -0.2639  0.0504 -0.7779
 3521TIP3    H234759   2.248   5.627   8.558  2.0384  0.5287  0.2974
 3522TIP3   OH234760   4.761   3.630   9.412 -0.0483  0.3541  0.4384
 3522TIP3    H134761   4.667   3.647   9.411 -0.3147 -0.9814  1.1743
 3522TIP3    H234762   4.775   3.569   9.339  0.3271  0.8610  0.0748
 3523TIP3   OH234763   3.984   4.972   7.075 -0.3013  0.5248 -0.3514
 3523TIP3    H134764   3.960   4.897   7.020 -0.6206  0.8172 -0.6165
 3523TIP3    H234765   4.003   5.042   7.012 -0.1281  0.7026 -0.1020
 3524TIP3   OH234766   2.175   5.069   9.285 -0.3846 -0.0520  0.1126
 3524TIP3    H134767   2.245   5.034   9.341  0.2034  1.8453  0.6492
 3524TIP3    H234768   2.119   4.994   9.266  0.5223 -1.1549  1.5937
 3525TIP3   OH234769   2.529   4.334   7.771 -0.0894  0.2687 -0.0428
 3525TIP3    H134770   2.623   4.315   7.767  0.0400  1.0046 -0.7473
 3525TIP3    H234771   2.523   4.429   7.764 -0.9061  0.2032 -0.3495
 3526TIP3   OH234772   2.444   3.085   6.727 -0.1774  0.5518 -0.3025
 3526TIP3    H134773   2.501   3.094   6.803  0.3921  0.5006 -0.7186
 3526TIP3    H234774   2.406   2.998   6.736 -0.1056  0.5433 -0.0816
 3527TIP3   OH234775   1.445   4.003   7.180 -0.6879  0.6981  0.5582
 3527TIP3    H134776   1.520   4.037   7.131  1.0352 -1.8092  1.2825
 3527TIP3    H234777   1.373   4.002   7.116  0.3576  1.3941 -0.6848
 3528TIP3   OH234778   5.584   0.761   7.606  0.3119 -0.0926 -0.4577
 3528TIP3    H134779   5.636   0.682   7.587  1.9517  0.9548 -0.5840
 3528TIP3    H234780   5.623   0.828   7.549 -1.1635  0.7693 -0.4846
 3529TIP3   OH234781   3.393   2.524   9.173  0.2319  0.6452 -0.1910
 3529TIP3    H134782   3.433   2.516   9.087  0.2983 -1.5320 -0.0213
 3529TIP3    H234783   3.466   2.516   9.234 -0.0448  0.0313  0.0716
 3530TIP3   OH234784   1.239   6.420   8.173 -0.3271 -0.1009 -0.1704
 3530TIP3    H134785   1.304   6.376   8.119 -0.3545  0.4144 -0.6342
 3530TIP3    H234786   1.226   6.362   8.248 -1.4315 -1.5841 -1.4469
 3531TIP3   OH234787   1.654   3.214   8.365 -0.2904  0.0807 -0.1815
 3531TIP3    H134788   1.734   3.168   8.392  2.0605  3.1986 -1.1041
 3531TIP3    H234789   1.632   3.177   8.280  0.2544 -0.7324  0.0178
 3532TIP3   OH234790   1.770   0.819   8.690 -0.6255  0.5637  0.3528
 3532TIP3    H134791   1.831   0.892   8.680 -0.9324  0.7576 -0.1706
 3532TIP3    H234792   1.788   0.763   8.614  0.2773 -0.4185  1.2530
 3533TIP3   OH234793   5.354   1.423   6.542 -0.2617 -0.1096 -0.0761
 3533TIP3    H134794   5.448   1.433   6.557  0.4017 -0.2915 -3.3521
 3533TIP3    H234795   5.313   1.482   6.604  2.0789  0.7809  0.7188
 3534TIP3   OH234796   6.715   7.480   6.485 -0.4624  0.3663  0.4322
 3534TIP3    H134797   6.784   7.462   6.549  1.0049  0.0700 -1.1530
 3534TIP3    H234798   6.679   7.394   6.463 -0.3124  0.3661  0.1804
 3535TIP3   OH234799   2.263   0.625   8.852  0.4896 -0.1798 -0.0085
 3535TIP3    H134800   2.211   0.566   8.798  0.6682 -0.2840 -0.0661
 3535TIP3    H234801   2.286   0.574   8.929 -1.0638  0.4364  0.9078
 3536TIP3   OH234802   5.212   5.598   9.365  0.6262 -0.9615  0.1533
 3536TIP3    H134803   5.253   5.682   9.345  0.8347 -1.6348 -2.8070
 3536TIP3    H234804   5.135   5.620   9.417  2.1006  0.7558  1.7480
 3537TIP3   OH234805   6.844   1.740   9.437 -0.6155 -0.4196 -0.4992
 3537TIP3    H134806   6.756   1.767   9.464 -0.1271  0.8084 -0.0727
 3537TIP3    H234807   6.880   1.817   9.393  0.1028 -1.0520 -1.0463
 3538TIP3   OH234808   2.274   1.911   9.210 -0.1041  0.5585 -0.1430
 3538TIP3    H134809   2.262   1.840   9.147  0.7283  0.6080 -0.3701
 3538TIP3    H234810   2.343   1.880   9.269  1.1300  1.6331 -0.9632
 3539TIP3   OH234811   5.554   1.575   8.557 -0.7124 -0.2305 -0.6857
 3539TIP3    H134812   5.521   1.661   8.531  0.9949  0.5718 -0.3595
 3539TIP3    H234813   5.477   1.518   8.555 -2.4723  1.8496  1.6868
 3540TIP3   OH234814   1.541   4.528   8.113 -0.2291 -0.2182  0.0910
 3540TIP3    H134815   1.565   4.458   8.173  0.6360  0.9760  1.2082
 3540TIP3    H234816   1.485   4.486   8.047 -0.3912 -1.7638  1.1654
 3541TIP3   OH234817   7.468   2.877   9.319  0.2837 -0.3629 -0.0200
 3541TIP3    H134818   7.544   2.916   9.363 -0.0679 -0.3573  0.5963
 3541TIP3    H234819   7.432   2.817   9.384  0.8826 -1.8256 -0.9930
 3542TIP3   OH234820   5.999   7.079   7.074 -0.1397 -0.0351 -0.0395
 3542TIP3    H134821   6.027   7.168   7.052  1.1172 -0.2623  0.5698
 3542TIP3    H234822   5.974   7.040   6.990  1.4899  0.1623 -0.6555
 3543TIP3   OH234823   6.405   0.105   8.218 -0.1744  0.3014  0.3108
 3543TIP3    H134824   6.436   0.016   8.201  2.1084  0.7879  1.5804
 3543TIP3    H234825   6.317   0.093   8.254  0.6250 -1.5616  1.8049
 3544TIP3   OH234826   0.802   2.594   8.241 -0.1043 -0.2587  0.5023
 3544TIP3    H134827   0.726   2.651   8.249 -0.3497 -0.5768  0.4816
 3544TIP3    H234828   0.788   2.547   8.158  1.3290  1.4319 -0.7493
 3545TIP3   OH234829   1.796   0.477   8.370 -0.8609 -0.3070 -0.8428
 3545TIP3    H134830   1.711   0.443   8.342 -0.8648  0.2168 -1.4928
 3545TIP3    H234831   1.845   0.488   8.289 -1.3123  2.4595 -0.8345
 3546TIP3   OH234832   7.046   3.167   7.092  0.4240 -0.4917  0.8432
 3546TIP3    H134833   6.993   3.097   7.054  1.4293 -1.7030  1.5476
 3546TIP3    H234834   6.985   3.218   7.144 -0.5796 -0.0376 -0.7154
 3547TIP3   OH234835   1.566   3.786   7.338  0.1551  0.5233  0.2149
 3547TIP3    H134836   1.525   3.857   7.288  0.8235  0.2119 -0.8004
 3547TIP3    H234837   1.524   3.707   7.304  1.7760  0.1671 -1.0780
 3548TIP3   OH234838   4.336   2.797   8.641  0.1193 -0.3960  0.0005
 3548TIP3    H134839   4.429   2.798   8.618  1.0841 -0.3274  3.3958
 3548TIP3    H234840   4.309   2.705   8.631  0.5084 -0.4202 -0.9599
 3549TIP3   OH234841   6.395   6.519   8.650  0.1216 -0.1662 -0.2330
 3549TIP3    H134842   6.456   6.494   8.580  0.9985  1.5444 -0.1228
 3549TIP3    H234843   6.413   6.612   8.666 -2.1594  0.2601  0.1776
 3550TIP3   OH234844   6.870   0.465   7.587 -0.2371 -0.1327 -0.6685
 3550TIP3    H134845   6.790   0.424   7.620 -0.3765 -1.3338 -2.4173
 3550TIP3    H234846   6.852   0.559   7.594 -2.0713 -0.3640 -1.5628
 3551TIP3   OH234847   1.447   0.070   8.084  0.0253 -0.2123 -0.0820
 3551TIP3    H134848   1.517   0.135   8.088  0.6241 -0.7136 -1.8056
 3551TIP3    H234849   1.478  -0.002   8.139  0.4298 -0.0431 -0.0871
 3552TIP3   OH234850   1.172   5.340   7.853 -0.5619  0.6708 -0.3264
 3552TIP3    H134851   1.088   5.358   7.812 -1.6968 -0.0379  1.5857
 3552TIP3    H234852   1.208   5.427   7.872 -1.0527  0.9738 -0.7515
 3553TIP3   OH234853   0.520   0.618   7.648 -0.1225 -0.5741 -0.1541
 3553TIP3    H134854   0.594   0.558   7.637  0.0192 -0.6030  0.8397
 3553TIP3    H234855   0.455   0.588   7.585 -0.0041 -1.7070  0.2281
 3554TIP3   OH234856   1.309   0.414   8.094  0.2359 -0.4558  0.2907
 3554TIP3    H134857   1.227   0.457   8.070  0.2121 -0.6642 -0.0156
 3554TIP3    H234858   1.296   0.384   8.184  0.4370  0.6125  0.6865
 3555TIP3   OH234859   6.490   7.040   8.548 -0.5900  0.2035  0.0047
 3555TIP3    H134860   6.564   6.998   8.505 -0.7222 -0.6653  0.6005
 3555TIP3    H234861   6.529   7.104   8.607 -0.3829  0.8437 -0.8108
 3556TIP3   OH234862   7.381   7.270   8.353 -0.0470 -0.6001 -0.4270
 3556TIP3    H134863   7.415   7.355   8.381 -0.8046 -1.1908  2.6968
 3556TIP3    H234864   7.287   7.283   8.346  0.0947 -0.4375 -3.3035
 3557TIP3   OH234865   2.585   1.932   8.625  0.4698 -0.1465 -0.3634
 3557TIP3    H134866   2.596   1.839   8.646 -0.2107 -0.3000 -0.6655
 3557TIP3    H234867   2.584   1.935   8.529 -1.4340 -0.0773 -0.3647
 3558TIP3   OH234868   2.052   4.399   9.288 -0.8078 -0.6631 -0.1716
 3558TIP3    H134869   2.111   4.416   9.362 -1.2424 -3.1248  0.8129
 3558TIP3    H234870   1.965   4.396   9.328 -1.3617  0.3817 -1.2225
 3559TIP3   OH234871   0.291   6.457   8.788 -0.2711  0.1845 -0.0478
 3559TIP3    H134872   0.225   6.503   8.737  0.0839 -1.1522 -1.8254
 3559TIP3    H234873   0.360   6.522   8.803 -0.6507  0.7729 -0.7980
 3560TIP3   OH234874   2.801   6.685   8.776  0.3129  0.1796  0.0016
 3560TIP3    H134875   2.788   6.777   8.799 -1.5780 -0.1193  0.2828
 3560TIP3    H234876   2.808   6.685   8.680 -1.5089  0.4684 -0.1632
 3561TIP3   OH234877   3.316   1.984   7.992  0.3774  0.3773  0.2559
 3561TIP3    H134878   3.318   2.075   7.963  0.6935  0.2093 -0.2636
 3561TIP3    H234879   3.400   1.948   7.964  0.7600  0.2374  1.5076
 3562TIP3   OH234880   5.391   0.091   8.210  0.6216 -0.2901 -0.4941
 3562TIP3    H134881   5.480   0.083   8.243  1.0750 -0.3505 -1.6608
 3562TIP3    H234882   5.347   0.011   8.239  0.9155 -0.2032  0.1866
 3563TIP3   OH234883   3.551   1.270   7.781  0.0655  0.3874 -0.0566
 3563TIP3    H134884   3.487   1.287   7.712 -1.0718  0.2315  0.9147
 3563TIP3    H234885   3.590   1.186   7.757  0.5146  0.8764 -1.0919
 3564TIP3   OH234886   7.306   2.425   7.905  0.2227 -0.2411  0.2659
 3564TIP3    H134887   7.212   2.442   7.892  0.8552  1.8776 -2.4990
 3564TIP3    H234888   7.330   2.369   7.832  1.1185 -0.9110  1.0535
 3565TIP3   OH234889   2.807   5.032   7.959  0.1575 -0.2367  0.5306
 3565TIP3    H134890   2.794   5.059   7.868  3.8339 -2.6660 -0.9281
 3565TIP3    H234891   2.735   4.972   7.977  0.5622 -1.4632 -1.6423
 3566TIP3   OH234892   0.958   6.776   8.570  0.4955 -0.7942  0.0321
 3566TIP3    H134893   0.972   6.853   8.514  2.1281 -0.7174  0.4741
 3566TIP3    H234894   0.893   6.723   8.524  1.0854 -0.2657 -1.4553
 3567TIP3   OH234895   4.148   0.088   8.061  0.2860  0.1163 -0.3287
 3567TIP3    H134896   4.072   0.041   8.027  0.4795 -1.6907  1.5430
 3567TIP3    H234897   4.118   0.126   8.143  0.9790  0.7813 -0.3683
 3568TIP3   OH234898   7.163   5.744   7.927  0.1875  0.4397 -0.2121
 3568TIP3    H134899   7.167   5.676   7.993  0.4321  1.5119  0.9269
 3568TIP3    H234900   7.188   5.701   7.845  0.1429 -0.8526  0.4380
 3569TIP3   OH234901   2.006   3.139   8.798  0.0458  0.1774 -0.3802
 3569TIP3    H134902   1.970   3.171   8.881  0.5155 -1.2149  0.4003
 3569TIP3    H234903   2.007   3.216   8.741  0.5073  1.3822  1.1762
 3570TIP3   OH234904   0.763   4.932   8.877  0.0082 -0.1453  0.0364
 3570TIP3    H134905   0.685   4.980   8.903 -1.0318 -0.7592 -1.7937
 3570TIP3    H234906   0.734   4.874   8.807  1.8561 -1.2842  0.1423
 3571TIP3   OH234907   2.133   4.214   9.065 -0.0504  0.0987 -0.2560
 3571TIP3    H134908   2.134   4.269   9.143  0.3990 -1.2913  0.7741
 3571TIP3    H234909   2.130   4.124   9.099 -2.0826 -0.5180 -1.8608
 3572TIP3   OH234910   4.646   0.380   7.615 -0.5506  0.1165 -0.0960
 3572TIP3    H134911   4.720   0.357   7.559 -1.5016  1.9324 -2.2739
 3572TIP3    H234912   4.641   0.310   7.679  2.2940 -0.6737 -0.6247
 3573TIP3   OH234913   4.782   1.908   6.797  0.1618  0.1432  0.6098
 3573TIP3    H134914   4.689   1.891   6.808 -0.4681  2.2757 -0.9248
 3573TIP3    H234915   4.823   1.821   6.802 -1.8490 -0.8202  1.3972
 3574TIP3   OH234916   0.982   2.488   9.178 -0.0002  0.0846 -0.1729
 3574TIP3    H134917   0.918   2.545   9.135  1.4128  2.3855  0.6122
 3574TIP3    H234918   0.962   2.494   9.271  0.5774 -0.1716 -0.0271
 3575TIP3   OH234919   6.851   6.605   7.333 -0.2985  0.1152  0.6656
 3575TIP3    H134920   6.831   6.532   7.392  2.1584 -1.1109  0.0915
 3575TIP3    H234921   6.934   6.582   7.293  0.7489  3.3992  0.6589
 3576TIP3   OH234922   6.308   6.064   8.393 -0.0044  0.4285 -0.2234
 3576TIP3    H134923   6.218   6.071   8.425 -0.1762  0.9275 -0.7914
 3576TIP3    H234924   6.361   6.064   8.473 -0.5268 -0.4499  0.1409
 3577TIP3   OH234925   5.180   0.440   9.289  0.5701  0.0459 -0.4417
 3577TIP3    H134926   5.203   0.489   9.367  1.5367 -0.5647 -0.3138
 3577TIP3    H234927   5.263   0.432   9.241  0.2916 -0.8298 -0.7979
 3578TIP3   OH234928   1.018   3.635   8.983 -0.1952 -0.2760  1.1176
 3578TIP3    H134929   0.945   3.601   8.932  0.4172  1.3024 -0.9286
 3578TIP3    H234930   0.985   3.638   9.073 -1.1163 -3.7036  1.0275
 3579TIP3   OH234931   6.522   5.767   6.874 -0.1152 -0.1921 -0.4552
 3579TIP3    H134932   6.512   5.747   6.780 -1.0607 -1.9973 -0.0165
 3579TIP3    H234933   6.433   5.771   6.907  0.2244 -0.3571  0.5166
 3580TIP3   OH234934   1.991   1.286   7.434  0.1317  0.5620 -0.0641
 3580TIP3    H134935   1.921   1.339   7.472 -0.6636  0.4386 -1.3150
 3580TIP3    H234936   1.947   1.210   7.398  0.5158  1.6787 -3.1329
 3581TIP3   OH234937   4.573   4.987   9.158 -0.2427 -0.1571  0.1709
 3581TIP3    H134938   4.642   4.927   9.186 -0.5261 -0.7256 -0.3331
 3581TIP3    H234939   4.548   4.957   9.071 -0.2385  0.8302 -0.1861
 3582TIP3   OH234940   3.108   6.986   8.470  0.9176 -0.8482  0.2671
 3582TIP3    H134941   3.147   7.008   8.555 -0.0676  2.3445  0.0309
 3582TIP3    H234942   3.032   7.043   8.462  0.1845 -1.9948 -2.2284
 3583TIP3   OH234943   6.836   1.617   8.495 -0.0788 -0.0905  0.4750
 3583TIP3    H134944   6.864   1.580   8.412 -1.1237 -0.6532  0.3598
 3583TIP3    H234945   6.777   1.552   8.533  0.8029 -0.0999  1.9332
 3584TIP3   OH234946   4.313   2.260   9.204  0.2159  0.2132 -0.1420
 3584TIP3    H134947   4.402   2.289   9.183  0.0498  0.1388 -1.0107
 3584TIP3    H234948   4.260   2.339   9.195  0.2064  0.2747  0.4588
 3585TIP3   OH234949   2.588   0.254   7.609  0.5991  0.0642  0.3372
 3585TIP3    H134950   2.646   0.326   7.631 -2.0543  2.6262 -0.3997
 3585TIP3    H234951   2.585   0.200   7.688  2.3957  0.9305  1.0416
 3586TIP3   OH234952   7.004   7.012   6.863  0.4681 -0.2795  0.5657
 3586TIP3    H134953   6.929   7.070   6.845  0.9821  0.5272  0.9897
 3586TIP3    H234954   6.966   6.924   6.860  0.0836 -0.1150 -2.3163
 3587TIP3   OH234955   1.441   6.033   7.899 -0.7017 -0.1488 -0.6182
 3587TIP3    H134956   1.351   6.000   7.890 -1.1024  0.1993  1.4683
 3587TIP3    H234957   1.495   5.955   7.906 -0.5877 -0.3964 -3.3168
 3588TIP3   OH234958   7.239   0.675   7.572 -0.1599 -0.2311 -0.0605
 3588TIP3    H134959   7.167   0.737   7.565  0.1443  0.1126 -0.1725
 3588TIP3    H234960   7.313   0.719   7.531  0.0051 -0.7543 -0.3293
 3589TIP3   OH234961   6.781   0.426   9.178  0.4220  0.2892 -0.2294
 3589TIP3    H134962   6.838   0.349   9.173 -0.7259 -0.5769 -0.2901
 3589TIP3    H234963   6.714   0.402   9.241 -0.8191  0.6415 -1.3685
 3590TIP3   OH234964   4.583   5.400   8.698 -0.3036  0.0576 -0.5793
 3590TIP3    H134965   4.552   5.340   8.630 -1.0184 -0.1494 -0.0846
 3590TIP3    H234966   4.654   5.449   8.657 -0.1598 -0.6589 -1.2039
 3591TIP3   OH234967   6.656   5.988   7.522 -0.0798  0.2103  0.6693
 3591TIP3    H134968   6.677   6.070   7.568 -2.9673  0.5953  1.4968
 3591TIP3    H234969   6.602   5.939   7.583 -1.2487 -0.7838 -1.0635
 3592TIP3   OH234970   6.833   3.432   9.521  1.1191 -0.2251 -0.3437
 3592TIP3    H134971   6.885   3.512   9.511 -0.4002  0.8801  0.2125
 3592TIP3    H234972   6.846   3.405   9.612 -0.0170  0.6385  0.1052
 3593TIP3   OH234973   3.548   3.109   8.654 -0.1401 -0.2082 -0.3498
 3593TIP3    H134974   3.596   3.052   8.715  0.3208 -1.3019 -1.6869
 3593TIP3    H234975   3.456   3.098   8.678  0.0707 -0.1722  0.5069
 3594TIP3   OH234976   5.709   5.149   8.867 -0.0868  0.2248 -0.0519
 3594TIP3    H134977   5.642   5.152   8.934 -1.6733  0.6000 -1.5763
 3594TIP3    H234978   5.749   5.236   8.868 -0.6063  0.4696 -0.0492
 3595TIP3   OH234979   3.185   0.046   9.461 -0.1788  0.2462  0.0917
 3595TIP3    H134980   3.244   0.121   9.459 -0.9331  0.8785  0.9094
 3595TIP3    H234981   3.187   0.012   9.371  0.7543  0.7730 -0.0997
 3596TIP3   OH234982   0.026   1.384   9.524 -0.0921  0.6059 -0.5914
 3596TIP3    H134983   0.023   1.479   9.515 -0.8626  0.5840 -0.6164
 3596TIP3    H234984  -0.005   1.350   9.440  1.5946  0.3048 -1.1190
 3597TIP3   OH234985   3.268   6.952   8.125  0.1333  0.6223 -0.0032
 3597TIP3    H134986   3.270   6.967   8.030  0.7253 -0.4930 -0.1793
 3597TIP3    H234987   3.230   6.865   8.134  2.3957 -0.3643  0.6287
 3598TIP3   OH234988   7.088   5.104   7.949  0.2117 -0.4781 -0.1501
 3598TIP3    H134989   7.034   5.065   7.881 -0.0595 -0.1205 -0.1393
 3598TIP3    H234990   7.130   5.180   7.908 -0.2211 -0.0575  0.1702
 3599TIP3   OH234991   3.182   2.147   7.634 -0.1134 -0.1637  0.4790
 3599TIP3    H134992   3.161   2.226   7.584  0.9836 -0.3123 -0.2558
 3599TIP3    H234993   3.238   2.177   7.705 -1.5529  0.0246  1.5840
 3600TIP3   OH234994   3.825   7.280   8.888 -0.1823 -0.2809 -0.1185
 3600TIP3    H134995   3.860   7.363   8.919 -0.1357  0.6849 -2.5764
 3600TIP3    H234996   3.736   7.299   8.860 -0.2559 -1.1045 -0.4907
 3601TIP3   OH234997   2.187   2.537   8.496  0.1932 -0.1726  0.6616
 3601TIP3    H134998   2.279   2.561   8.504  0.6798 -1.4030 -0.6910
 3601TIP3    H234999   2.154   2.537   8.586  2.1580 -2.0478  1.4763
 3602TIP3   OH235000   3.509   6.645   9.005  0.2908  0.2298  0.0326
 3602TIP3    H135001   3.415   6.644   8.984  0.6854  1.5944 -2.1352
 3602TIP3    H235002   3.513   6.620   9.097 -2.2242  0.4477  0.2804
 3603TIP3   OH235003   5.782   1.166   8.878  0.5052  0.3541  0.2617
 3603TIP3    H135004   5.875   1.147   8.864  0.9497  1.2475  1.7551
 3603TIP3    H235005   5.776   1.261   8.876 -0.2538  0.3272  0.8423
 3604TIP3   OH235006   0.317   5.728   9.070 -0.2322  0.3037 -0.2895
 3604TIP3    H135007   0.285   5.785   9.140 -1.2850  0.7309 -1.0906
 3604TIP3    H235008   0.376   5.783   9.019 -0.2656  0.2984 -0.3339
 3605TIP3   OH235009   5.674   0.965   8.236 -0.1828 -0.1032  0.0291
 3605TIP3    H135010   5.644   1.056   8.228  2.6874  0.8307 -1.2789
 3605TIP3    H235011   5.713   0.945   8.151  2.3284 -1.3186  1.3547
 3606TIP3   OH235012   1.796   2.317   8.172 -0.4894  0.0960  0.9723
 3606TIP3    H135013   1.861   2.334   8.240 -1.1019  1.6025  1.2274
 3606TIP3    H235014   1.805   2.390   8.111 -1.8156  0.2774  0.9431
 3607TIP3   OH235015   3.471   4.843   8.942 -0.1471  0.4305  0.1697
 3607TIP3    H135016   3.375   4.844   8.945 -0.1545 -0.2030  0.3525
 3607TIP3    H235017   3.492   4.849   8.849 -0.3649  0.5560  0.1280
 3608TIP3   OH235018   0.855   5.791   9.129 -1.0557 -0.0568 -0.1410
 3608TIP3    H135019   0.927   5.792   9.191 -0.3736 -1.3697 -0.8753
 3608TIP3    H235020   0.889   5.835   9.051 -1.6022  0.7505  0.0566
 3609TIP3   OH235021   1.039   6.804   8.147  0.1021  0.3578 -0.2579
 3609TIP3    H135022   1.129   6.774   8.156 -0.1877 -2.1636 -3.8894
 3609TIP3    H235023   0.986   6.733   8.184 -0.4885  1.1118  0.3957
 3610TIP3   OH235024   2.555   0.545   8.829  0.1225 -0.2165  0.0623
 3610TIP3    H135025   2.552   0.626   8.779 -1.0880 -0.0056  0.4629
 3610TIP3    H235026   2.510   0.481   8.775 -1.2863  0.0368  0.8967
 3611TIP3   OH235027   1.487   6.902   8.227  0.3107  0.2176 -0.0680
 3611TIP3    H135028   1.443   6.987   8.228 -0.3190 -0.1040  0.3608
 3611TIP3    H235029   1.420   6.841   8.195  0.8788 -0.0527 -0.7400
 3612TIP3   OH235030   0.169   4.765   9.345  0.5947  0.0342 -0.3875
 3612TIP3    H135031   0.238   4.824   9.315  0.8951  1.3229  2.5190
 3612TIP3    H235032   0.215   4.695   9.391  0.0784 -0.8395 -1.1694
 3613TIP3   OH235033   6.912   0.812   8.866 -0.0616 -0.0760 -0.1444
 3613TIP3    H135034   6.872   0.781   8.947 -2.7665 -0.8838 -1.6279
 3613TIP3    H235035   6.943   0.732   8.823  1.2077  0.3252 -0.0030
 3614TIP3   OH235036   0.152   1.596   7.752  0.3842 -0.2334 -0.2295
 3614TIP3    H135037   0.181   1.505   7.765  3.2490  0.7362  0.9641
 3614TIP3    H235038   0.114   1.621   7.837 -2.1935 -0.8028 -1.1237
 3615TIP3   OH235039   4.035   6.956   8.484  0.1400 -0.1914 -0.6970
 3615TIP3    H135040   4.004   7.015   8.553 -0.9047 -3.0963  1.5518
 3615TIP3    H235041   3.977   6.880   8.490  1.3836 -1.4934 -3.4116
 3616TIP3   OH235042   7.306   7.385   6.806 -0.0951 -0.5699 -0.1215
 3616TIP3    H135043   7.290   7.292   6.793 -0.3843 -0.6464  0.7922
 3616TIP3    H235044   7.357   7.390   6.887  1.2333 -0.0435 -0.9448
 3617TIP3   OH235045   3.511   3.637   7.121  0.0354  0.0035  0.3470
 3617TIP3    H135046   3.473   3.681   7.046 -0.9236 -1.5506 -0.1181
 3617TIP3    H235047   3.515   3.704   7.189 -0.6663  0.9902 -0.5638
 3618TIP3   OH235048   5.401   5.926   6.551 -0.0020 -0.2107 -0.4494
 3618TIP3    H135049   5.488   5.907   6.587 -1.0400  0.5020  2.6746
 3618TIP3    H235050   5.393   6.021   6.559 -1.0119 -0.2512 -0.9036
 3619TIP3   OH235051   4.011   3.337   8.143  0.2788 -0.8431 -0.0648
 3619TIP3    H135052   3.979   3.253   8.109 -1.0460 -0.7617  0.8911
 3619TIP3    H235053   4.103   3.321   8.164 -0.1588 -2.3459  0.8962
 3620TIP3   OH235054   0.876   7.325   7.923  0.0254 -0.5304  0.0526
 3620TIP3    H135055   0.815   7.374   7.978  0.5400  0.4344 -0.2350
 3620TIP3    H235056   0.819   7.265   7.874 -0.4583 -1.2996  1.4915
 3621TIP3   OH235057   2.460   7.403   6.731  0.3350  0.7387 -0.2683
 3621TIP3    H135058   2.476   7.318   6.689 -1.4220  0.9203 -1.4146
 3621TIP3    H235059   2.413   7.381   6.811  0.6725  0.5850 -0.1092
 3622TIP3   OH235060   3.624   5.297   7.662 -0.1673  0.2658  0.1315
 3622TIP3    H135061   3.655   5.212   7.631 -0.5670  0.2913 -0.3594
 3622TIP3    H235062   3.615   5.286   7.756 -1.0692 -0.5253 -0.0293
 3623TIP3   OH235063   7.089   5.033   8.564 -0.0465  0.1296  0.4611
 3623TIP3    H135064   7.019   5.085   8.603 -1.6275  0.0090 -2.0275
 3623TIP3    H235065   7.115   4.973   8.634 -2.4565  0.1559  1.4963
 3624TIP3   OH235066   2.118   6.960   8.890  0.7611  0.0435  0.0981
 3624TIP3    H135067   2.052   7.009   8.841  0.6233  0.5889  0.8132
 3624TIP3    H235068   2.165   6.910   8.823 -0.2644 -0.2345 -0.4415
 3625TIP3   OH235069   0.774   1.362   9.340  0.0314  0.3581  0.4305
 3625TIP3    H135070   0.709   1.419   9.299 -0.6551 -0.0428  0.9292
 3625TIP3    H235071   0.858   1.399   9.316 -0.3945  1.1723  0.1697
 3626TIP3   OH235072   4.881   4.653   7.239 -0.3110 -0.1996  0.0347
 3626TIP3    H135073   4.835   4.660   7.155  2.1064 -2.8191 -1.6905
 3626TIP3    H235074   4.844   4.574   7.279  0.6697 -0.7201 -0.0626
 3627TIP3   OH235075   2.649   4.105   8.101  0.0885 -0.1402  0.0787
 3627TIP3    H135076   2.650   4.192   8.061 -0.3145 -0.3663 -0.4342
 3627TIP3    H235077   2.620   4.120   8.191 -0.4199  0.2027 -0.1408
 3628TIP3   OH235078   1.804   1.660   7.064 -0.1389  0.3989  0.2838
 3628TIP3    H135079   1.708   1.661   7.064 -0.1465  0.6254 -0.6227
 3628TIP3    H235080   1.828   1.750   7.041  0.3482  1.2933  3.7926
 3629TIP3   OH235081   1.372   7.123   7.755  0.3927 -0.3676  0.2796
 3629TIP3    H135082   1.410   7.085   7.676 -2.3733  1.8636 -2.3692
 3629TIP3    H235083   1.443   7.175   7.793  1.5104 -0.5787 -1.4138
 3630TIP3   OH235084   5.453   0.010   9.407  0.4130  0.3696 -0.1200
 3630TIP3    H135085   5.368   0.046   9.385  2.4415  4.6767 -2.1764
 3630TIP3    H235086   5.476  -0.047   9.333 -0.0024  0.4884 -0.3380
 3631TIP3   OH235087   3.461   3.933   8.956  0.6590 -0.4487 -0.3301
 3631TIP3    H135088   3.462   3.878   9.035 -1.9990  1.0004  0.8485
 3631TIP3    H235089   3.525   4.001   8.973  0.1453 -0.1823  0.5874
 3632TIP3   OH235090   4.157   6.524   8.498  0.3738  0.3961 -0.7485
 3632TIP3    H135091   4.252   6.535   8.499  0.3929  0.2003 -0.3857
 3632TIP3    H235092   4.130   6.530   8.589  0.3870 -2.4068 -0.4547
 3633TIP3   OH235093   2.695   2.599   7.318 -0.3301 -0.6465  0.0134
 3633TIP3    H135094   2.788   2.622   7.310 -0.2057 -1.6118 -1.6842
 3633TIP3    H235095   2.686   2.569   7.408  1.4065 -2.1526 -0.2512
 3634TIP3   OH235096   2.174   5.192   9.039  0.1427  0.0910  0.2038
 3634TIP3    H135097   2.241   5.259   9.056  0.2449 -0.0243  0.2550
 3634TIP3    H235098   2.185   5.129   9.110  1.0848 -0.8093 -0.7106
 3635TIP3   OH235099   0.861   7.301   6.916 -0.4797  0.2396 -0.3300
 3635TIP3    H135100   0.862   7.396   6.901 -1.1626  0.4531  0.7925
 3635TIP3    H235101   0.810   7.291   6.997 -0.1562 -1.0654 -0.2703
 3636TIP3   OH235102   5.672   3.973   8.611  0.7755  0.3006  0.0098
 3636TIP3    H135103   5.757   3.966   8.569 -0.1777  0.0182 -1.9892
 3636TIP3    H235104   5.644   4.063   8.594  0.0535 -0.0399 -0.6720
 3637TIP3   OH235105   6.594   5.516   6.646 -0.2238  0.0087  0.3803
 3637TIP3    H135106   6.579   5.422   6.655  0.1691 -0.2607 -1.4207
 3637TIP3    H235107   6.687   5.528   6.665 -0.6876  0.3834  2.6991
 3638TIP3   OH235108   7.452   5.131   8.494  0.4963 -0.1920 -0.0427
 3638TIP3    H135109   7.463   5.057   8.434  1.0306 -0.9501  0.9684
 3638TIP3    H235110   7.451   5.092   8.581 -1.2602  0.7723  0.4274
 3639TIP3   OH235111   0.122   4.639   7.819  0.3581  0.0326  0.6829
 3639TIP3    H135112   0.175   4.652   7.740  1.7284 -0.0661  1.5659
 3639TIP3    H235113   0.185   4.614   7.886 -0.6414  1.1848  2.1028
 3640TIP3   OH235114   5.890   7.168   9.035 -0.6387 -0.1223 -0.4726
 3640TIP3    H135115   5.854   7.248   8.996  1.5688  1.1783 -0.0468
 3640TIP3    H235116   5.970   7.152   8.986  0.4871 -0.3500  1.3492
 3641TIP3   OH235117   5.692   7.471   9.428  0.3145  0.7594 -0.0594
 3641TIP3    H135118   5.730   7.510   9.350 -0.2206  1.3032 -0.0587
 3641TIP3    H235119   5.641   7.396   9.396 -0.8293  1.6460 -0.3807
 3642TIP3   OH235120   4.175   0.847   8.455  0.1679  0.4683 -0.2166
 3642TIP3    H135121   4.220   0.865   8.538 -0.2863 -0.2287  0.1875
 3642TIP3    H235122   4.216   0.907   8.392  1.2140  0.2944  0.2827
 3643TIP3   OH235123   7.341   7.219   7.463 -0.0174 -0.2308 -0.1628
 3643TIP3    H135124   7.278   7.148   7.450  0.7948 -0.7298 -1.5282
 3643TIP3    H235125   7.425   7.175   7.476  0.5347  0.4672 -1.2382
 3644TIP3   OH235126   2.813   1.705   9.062 -0.4973 -0.1557 -0.1693
 3644TIP3    H135127   2.791   1.719   8.970 -0.7816 -1.1934 -0.2716
 3644TIP3    H235128   2.811   1.793   9.101 -0.1102  0.3190 -1.1999
 3645TIP3   OH235129   1.158   1.140   8.478  0.7046  0.0800 -0.6176
 3645TIP3    H135130   1.222   1.094   8.423 -1.1196 -1.0225 -1.9389
 3645TIP3    H235131   1.152   1.088   8.558 -0.2911 -1.2476 -1.5167
 3646TIP3   OH235132   0.484   6.655   8.735 -0.2323  0.0300  0.2586
 3646TIP3    H135133   0.575   6.674   8.760  0.9816 -1.7283 -2.3229
 3646TIP3    H235134   0.458   6.729   8.681  0.3789 -0.2632 -0.4704
 3647TIP3   OH235135   5.657   2.143   9.090 -0.2760  0.5584  0.4240
 3647TIP3    H135136   5.705   2.213   9.046  0.3478 -0.2416 -0.2032
 3647TIP3    H235137   5.572   2.142   9.046  0.5269 -0.5839 -1.1964
 3648TIP3   OH235138   1.767   6.239   8.416 -0.1830 -0.4273  0.0383
 3648TIP3    H135139   1.675   6.257   8.432 -0.1257 -0.2559  0.1716
 3648TIP3    H235140   1.785   6.280   8.331 -0.1182 -0.0767  0.2189
 3649TIP3   OH235141   2.160   6.372   7.430 -0.3293 -0.4852 -0.0147
 3649TIP3    H135142   2.067   6.351   7.438 -0.4528  0.6879  3.0775
 3649TIP3    H235143   2.204   6.288   7.442 -0.9712 -0.5313  2.4892
 3650TIP3   OH235144   2.274   6.591   7.654  0.0320  0.1580  0.2222
 3650TIP3    H135145   2.214   6.571   7.582 -0.4404  2.5819 -0.1381
 3650TIP3    H235146   2.353   6.540   7.634 -0.5301 -0.1402 -1.3700
 3651TIP3   OH235147   1.920   3.369   8.667 -0.1768  0.1604 -0.5303
 3651TIP3    H135148   1.826   3.380   8.653 -0.2179 -0.5665 -0.8798
 3651TIP3    H235149   1.953   3.336   8.583 -0.1677 -2.8744  0.5316
 3652TIP3   OH235150   2.094   5.515   7.109 -0.0571  0.6061 -0.1962
 3652TIP3    H135151   2.005   5.487   7.129 -0.6728  0.0630 -3.1432
 3652TIP3    H235152   2.143   5.434   7.096  0.4293  0.8967 -0.2179
 3653TIP3   OH235153   2.845   4.340   7.355  0.0653  0.0067 -0.3615
 3653TIP3    H135154   2.878   4.355   7.267  0.1547  1.5728 -0.0903
 3653TIP3    H235155   2.842   4.245   7.364 -0.2204 -0.1811 -2.1453
 3654TIP3   OH235156   6.812   5.282   7.651  0.1024 -0.2197 -0.5646
 3654TIP3    H135157   6.819   5.197   7.695 -1.3289  0.1719  0.5091
 3654TIP3    H235158   6.829   5.346   7.720  1.7248  0.3897 -1.4860
 3655TIP3   OH235159   3.624   4.761   8.475  0.3962  0.0063  0.4417
 3655TIP3    H135160   3.575   4.812   8.410  0.6877  0.2591  0.4188
 3655TIP3    H235161   3.673   4.827   8.525  1.2060 -0.2934  0.0569
 3656TIP3   OH235162   4.558   7.316   8.114  0.0323 -0.0796 -0.3917
 3656TIP3    H135163   4.645   7.293   8.080  0.6070  0.6746  0.4985
 3656TIP3    H235164   4.498   7.254   8.073  0.7597  0.4488 -2.3359
 3657TIP3   OH235165   7.659   5.972   7.907  0.4602 -0.3152  0.3811
 3657TIP3    H135166   7.667   6.067   7.908 -0.6545 -0.0790 -2.3779
 3657TIP3    H235167   7.568   5.955   7.931  0.2654 -0.5508 -0.4748
 3658TIP3   OH235168   3.559   6.951   7.534  0.0806  0.3747  0.4268
 3658TIP3    H135169   3.496   6.884   7.562  0.0170  0.8086  1.3586
 3658TIP3    H235170   3.552   7.019   7.600  1.1806  0.6540  0.2727
 3659TIP3   OH235171   5.487   7.364   8.379 -0.0423 -0.8047  0.4775
 3659TIP3    H135172   5.554   7.417   8.423 -0.1565  1.5247 -1.8673
 3659TIP3    H235173   5.535   7.317   8.311 -0.6170  0.5499 -0.9367
 3660TIP3   OH235174   1.867   3.054   8.453 -0.0411 -0.3725  0.6591
 3660TIP3    H135175   1.882   2.994   8.380  0.1039  1.2142 -0.6930
 3660TIP3    H235176   1.943   3.112   8.451 -0.8043  0.6698  1.0666
 3661TIP3   OH235177   3.064   1.909   7.638  0.3503 -0.0959 -0.4966
 3661TIP3    H135178   2.975   1.923   7.606 -0.6777  1.1219  2.5900
 3661TIP3    H235179   3.102   1.997   7.643  0.7270 -0.3120  0.8063
 3662TIP3   OH235180   0.015   2.030   9.564 -0.0923  0.1467  0.1395
 3662TIP3    H135181   0.009   2.109   9.618 -2.5228  0.4932 -0.5504
 3662TIP3    H235182   0.058   2.059   9.484 -1.7909  1.0457 -0.4927
 3663TIP3   OH235183   6.992   4.467   7.895  0.1232  0.1927 -0.1822
 3663TIP3    H135184   6.906   4.446   7.931  0.1504  0.2108 -0.1077
 3663TIP3    H235185   6.987   4.560   7.875 -0.4909 -0.1628 -1.8556
 3664TIP3   OH235186   5.599   6.369   9.052  0.6569 -0.0524 -0.7570
 3664TIP3    H135187   5.628   6.453   9.087  1.4029 -0.5654 -0.1018
 3664TIP3    H235188   5.529   6.391   8.990  0.5927  1.0100 -0.3224
 3665TIP3   OH235189   7.570   7.597   6.598  0.2385  0.2571  0.3935
 3665TIP3    H135190   7.551   7.684   6.632  1.0027 -0.6994  3.6852
 3665TIP3    H235191   7.663   7.584   6.616  0.1482 -1.2125 -0.0699
 3666TIP3   OH235192   5.965   0.753   7.652  0.0453 -0.2310  0.3344
 3666TIP3    H135193   5.946   0.845   7.670 -0.2634  0.1200 -1.5430
 3666TIP3    H235194   6.052   0.753   7.611  0.0248 -0.7606  0.2734
 3667TIP3   OH235195   3.456   2.346   7.241  0.2864 -0.1362 -0.0567
 3667TIP3    H135196   3.437   2.277   7.177  0.1216  0.4153 -0.6057
 3667TIP3    H235197   3.371   2.385   7.261  0.2765 -0.5588  0.8127
 3668TIP3   OH235198   6.117   2.921   9.312  0.5380  0.0388  0.0291
 3668TIP3    H135199   6.024   2.903   9.296  0.7894 -2.0063  0.5371
 3668TIP3    H235200   6.163   2.867   9.248  1.3882 -1.1457  1.5521
 3669TIP3   OH235201   6.597   6.296   9.056  0.3639 -0.0034  0.5384
 3669TIP3    H135202   6.595   6.210   9.099 -1.4110 -0.0679  0.3954
 3669TIP3    H235203   6.594   6.359   9.128  0.8650 -0.0572  0.6125
 3670TIP3   OH235204   1.631   2.179   9.233  0.5187  0.2041 -0.5730
 3670TIP3    H135205   1.699   2.146   9.292 -0.3974 -0.4061  0.1636
 3670TIP3    H235206   1.651   2.138   9.149  0.4498 -0.8321 -0.1019
 3671TIP3   OH235207   0.129   3.436   8.139 -0.2540 -0.3123  0.3669
 3671TIP3    H135208   0.051   3.491   8.130  1.1743  1.8570  0.5804
 3671TIP3    H235209   0.116   3.367   8.074 -1.5027  1.0488 -0.9415
 3672TIP3   OH235210   7.638   0.515   6.794 -0.3020 -0.1235  0.3875
 3672TIP3    H135211   7.667   0.561   6.716  1.2995 -0.5018  0.7312
 3672TIP3    H235212   7.715   0.469   6.825 -0.2574  1.6514  3.3447
 3673TIP3   OH235213   4.803   3.510   7.358 -0.7522 -0.0535 -0.3446
 3673TIP3    H135214   4.856   3.445   7.311 -0.6478 -0.6828  0.6105
 3673TIP3    H235215   4.792   3.472   7.445 -2.1743  0.4104 -0.3047
 3674TIP3   OH235216   6.507   5.876   8.978 -0.2042 -0.2825  0.2071
 3674TIP3    H135217   6.525   5.907   9.067 -0.8288 -0.4067  0.3854
 3674TIP3    H235218   6.497   5.955   8.926  0.3723 -0.2097  0.2003
 3675TIP3   OH235219   4.652   1.168   8.375  0.1447  0.7298  0.3119
 3675TIP3    H135220   4.621   1.115   8.303 -1.5680  2.2270 -0.1378
 3675TIP3    H235221   4.748   1.167   8.367  0.3499 -3.4224  1.2643
 3676TIP3   OH235222   2.418   7.310   9.012 -0.2392  0.4663 -0.2226
 3676TIP3    H135223   2.335   7.281   9.051  0.5207 -2.8662 -0.7646
 3676TIP3    H235224   2.461   7.360   9.081 -1.5246 -0.0794  1.0181
 3677TIP3   OH235225   2.031   0.227   8.856 -0.5959 -0.0441  0.5717
 3677TIP3    H135226   1.966   0.200   8.921 -1.7278 -1.3226 -1.0092
 3677TIP3    H235227   2.111   0.183   8.882 -1.0741 -0.6745  1.0147
 3678TIP3   OH235228   4.350   6.053   6.942  0.7168  0.3201  0.9929
 3678TIP3    H135229   4.438   6.052   6.904  0.5256  1.7038  0.4932
 3678TIP3    H235230   4.308   5.975   6.905  0.9621  0.9197 -0.6453
 3679TIP3   OH235231   3.770   2.345   7.952  0.4393  0.0184 -0.0250
 3679TIP3    H135232   3.793   2.257   7.980 -2.3743 -0.7106  0.2025
 3679TIP3    H235233   3.784   2.399   8.030  2.0653 -0.1841 -0.1343
 3680TIP3   OH235234   4.635   1.738   8.935 -0.1289 -0.3485  0.5492
 3680TIP3    H135235   4.588   1.814   8.969 -1.5969 -1.1145  0.3343
 3680TIP3    H235236   4.663   1.690   9.013  1.2503  0.6319  0.6968
 3681TIP3   OH235237   2.609   6.139   7.075 -0.0631  0.4953 -0.4080
 3681TIP3    H135238   2.595   6.047   7.054 -1.6981  1.1639 -2.6889
 3681TIP3    H235239   2.569   6.151   7.161  0.4360 -0.9644  0.0453
 3682TIP3   OH235240   4.164   0.195   6.338 -0.0010 -0.5023 -0.1248
 3682TIP3    H135241   4.253   0.181   6.371 -0.1279  1.2725  1.1083
 3682TIP3    H235242   4.112   0.214   6.416 -0.6263  2.3274 -1.1169
 3683TIP3   OH235243   5.800   1.815   7.914  0.1365 -0.3415  0.2039
 3683TIP3    H135244   5.757   1.772   7.988 -1.9074 -0.7943 -1.1594
 3683TIP3    H235245   5.887   1.776   7.910 -0.0565 -0.9885  1.7735
 3684TIP3   OH235246   6.813   1.167   7.279 -0.1262  0.2444 -0.4535
 3684TIP3    H135247   6.763   1.166   7.197  1.0430 -1.5816 -1.2108
 3684TIP3    H235248   6.904   1.166   7.251  0.3193  0.8806  0.8959
 3685TIP3   OH235249   4.211   0.341   6.110  0.1929 -0.7290 -0.5653
 3685TIP3    H135250   4.127   0.313   6.074 -0.4239 -0.4023  0.5534
 3685TIP3    H235251   4.220   0.291   6.191  0.8766 -0.4597 -0.4671
 3686TIP3   OH235252   3.178   1.312   8.927 -0.2968  0.2667 -0.1347
 3686TIP3    H135253   3.271   1.333   8.927 -0.3251  0.3889 -0.2865
 3686TIP3    H235254   3.150   1.324   8.837 -0.6875  1.2176  0.1024
 3687TIP3   OH235255   4.026   2.086   9.193  0.1425  0.1379 -0.0093
 3687TIP3    H135256   4.043   1.996   9.222 -0.2176 -0.7336 -2.3339
 3687TIP3    H235257   4.110   2.132   9.207  0.8567 -1.0077 -0.4069
 3688TIP3   OH235258   2.585   6.326   9.222 -0.2159 -0.7250 -0.3282
 3688TIP3    H135259   2.545   6.413   9.221 -0.2588 -0.7425 -0.1404
 3688TIP3    H235260   2.624   6.317   9.135 -3.0878 -1.8802 -1.6171
 3689TIP3   OH235261   6.943   4.732   7.957 -0.4593  0.6022  1.0960
 3689TIP3    H135262   6.942   4.828   7.967 -2.0418  0.6311  0.9902
 3689TIP3    H235263   6.851   4.709   7.945 -0.0723 -0.9235  0.8894
 3690TIP3   OH235264   1.394   4.326   7.182 -0.9702 -0.1151 -0.5387
 3690TIP3    H135265   1.471   4.282   7.219 -0.0643  1.6002 -0.3134
 3690TIP3    H235266   1.430   4.393   7.125 -2.3027  0.8070 -0.3390
 3691TIP3   OH235267   1.100   4.809   9.448 -0.2046  0.3000  0.2065
 3691TIP3    H135268   1.018   4.807   9.497 -0.5127 -1.6224 -0.3112
 3691TIP3    H235269   1.093   4.887   9.393 -1.1340  0.8328  1.0426
 3692TIP3   OH235270   1.826   7.496   9.200 -0.1534  0.2074 -0.3216
 3692TIP3    H135271   1.743   7.530   9.166  0.6914  0.0780 -2.7564
 3692TIP3    H235272   1.811   7.484   9.294 -2.8936  0.1490 -0.6825
 3693TIP3   OH235273   3.125   7.093   6.977 -0.1383 -0.4041  0.1295
 3693TIP3    H135274   3.033   7.096   7.005 -0.3147 -0.5509 -0.4139
 3693TIP3    H235275   3.136   7.170   6.922  0.2355 -0.0574  0.6812
 3694TIP3   OH235276   5.458   6.658   8.104 -0.5012 -0.3380 -0.7601
 3694TIP3    H135277   5.536   6.701   8.140 -1.1566  0.7486 -0.5927
 3694TIP3    H235278   5.400   6.645   8.179 -0.6143 -0.8555 -0.9324
 3695TIP3   OH235279   2.906   6.219   9.521 -0.2312 -0.6799 -0.3299
 3695TIP3    H135280   2.888   6.183   9.434 -0.9062  0.0011 -0.4905
 3695TIP3    H235281   2.887   6.148   9.582 -1.3235 -0.6842 -0.6493
 3696TIP3   OH235282   0.398   2.107   7.917 -0.3589 -0.0602  0.3879
 3696TIP3    H135283   0.361   2.186   7.878 -0.5989  0.3818  1.4661
 3696TIP3    H235284   0.324   2.066   7.963  0.2539  0.3382  1.7865
 3697TIP3   OH235285   4.223   2.670   9.593  0.5296  0.0858  0.3957
 3697TIP3    H135286   4.142   2.718   9.611  0.8228  0.3822  0.9510
 3697TIP3    H235287   4.267   2.663   9.678  0.7402 -0.7146  0.2293
 3698TIP3   OH235288   3.098   1.155   8.038  0.0166 -0.6240  0.8244
 3698TIP3    H135289   3.003   1.152   8.029  0.0646 -2.3539  0.5483
 3698TIP3    H235290   3.123   1.064   8.056  1.9585 -0.9503 -2.7210
 3699TIP3   OH235291   4.806   1.689   8.722  0.3439  0.2801 -0.4572
 3699TIP3    H135292   4.753   1.713   8.799  1.0068 -0.4879  0.2583
 3699TIP3    H235293   4.820   1.594   8.731  1.8677  0.4669 -0.6069
 3700TIP3   OH235294   3.479   1.537   6.362  0.3709  0.1792  0.7070
 3700TIP3    H135295   3.438   1.450   6.360  3.0306 -1.3278  3.3551
 3700TIP3    H235296   3.429   1.585   6.428 -1.1460  0.7678 -0.8038
 3701TIP3   OH235297   0.726   3.560   9.272  0.0397 -0.3438  0.4305
 3701TIP3    H135298   0.735   3.647   9.311 -0.3872 -0.7697  1.5226
 3701TIP3    H235299   0.809   3.516   9.291 -0.3289 -0.6989  1.2702
 3702TIP3   OH235300   1.551   2.790   7.593  0.4455  0.0522 -0.4528
 3702TIP3    H135301   1.496   2.846   7.539 -0.3743 -0.3668 -0.0723
 3702TIP3    H235302   1.618   2.758   7.533 -1.0980 -1.3155 -1.5590
 3703TIP3   OH235303   1.701   0.325   7.979  0.7329 -0.0299  0.2677
 3703TIP3    H135304   1.686   0.274   8.059  1.2608 -1.9884 -0.8216
 3703TIP3    H235305   1.618   0.369   7.962  0.2748 -0.4720  1.2876
 3704TIP3   OH235306   7.221   3.061   8.154  0.6914  0.1278  0.1481
 3704TIP3    H135307   7.253   2.980   8.194 -0.1644 -0.0958  0.4109
 3704TIP3    H235308   7.291   3.089   8.095  0.9516 -0.8595 -0.0243
 3705TIP3   OH235309   5.880   7.045   7.323 -0.0965 -0.0218 -0.2140
 3705TIP3    H135310   5.836   6.963   7.296  0.2745 -0.3166  0.0682
 3705TIP3    H235311   5.920   7.078   7.243  0.1839 -0.3882 -0.2273
 3706TIP3   OH235312   5.365   1.221   8.742 -0.0314 -0.5003  0.2058
 3706TIP3    H135313   5.398   1.131   8.745 -0.4921 -0.6908 -0.3673
 3706TIP3    H235314   5.365   1.249   8.833 -2.3709 -1.9898  0.7255
 3707TIP3   OH235315   3.680   0.123   6.730  0.4150 -0.2181  0.2505
 3707TIP3    H135316   3.606   0.158   6.680  0.9348  0.6391  0.0531
 3707TIP3    H235317   3.694   0.036   6.694 -1.6948 -1.1755  1.5907
 3708TIP3   OH235318   1.253   5.586   7.914 -0.2008 -0.1130 -0.2576
 3708TIP3    H135319   1.232   5.652   7.848 -2.5498 -0.9330 -0.4303
 3708TIP3    H235320   1.347   5.595   7.928  0.0255  1.4054 -2.2699
 3709TIP3   OH235321   0.311   6.062   7.587 -0.1006 -0.4807 -0.1235
 3709TIP3    H135322   0.227   6.069   7.631  0.5789  0.3928  1.0984
 3709TIP3    H235323   0.300   6.111   7.506 -1.4399 -2.3071 -1.1330
 3710TIP3   OH235324   7.333   4.341   7.552  0.3296 -0.0980 -0.3179
 3710TIP3    H135325   7.272   4.389   7.608  1.8163 -1.2387  2.4823
 3710TIP3    H235326   7.394   4.407   7.521 -0.4564  0.5438 -0.5474
 3711TIP3   OH235327   2.927   6.498   9.532 -0.2936 -0.1381  0.2864
 3711TIP3    H135328   2.895   6.408   9.544  0.2855 -0.1515  1.9702
 3711TIP3    H235329   3.020   6.487   9.512 -0.3593  0.0740 -0.1427
 3712TIP3   OH235330   4.631   0.150   9.608 -0.3727 -0.3724  0.1435
 3712TIP3    H135331   4.688   0.165   9.532  0.7130  0.1419  1.0196
 3712TIP3    H235332   4.544   0.178   9.580  0.0758  0.0984 -0.8111
 3713TIP3   OH235333   2.593   4.268   8.713 -0.1065  0.3164  0.0822
 3713TIP3    H135334   2.566   4.246   8.803  2.6727  1.4805  1.3150
 3713TIP3    H235335   2.664   4.332   8.724  0.4392  0.3766 -2.9607
 3714TIP3   OH235336   0.335   6.578   7.276 -0.7229 -0.4298  0.0593
 3714TIP3    H135337   0.303   6.490   7.256 -1.0985 -0.4764  0.8324
 3714TIP3    H235338   0.258   6.634   7.267 -0.6936 -0.3188  0.4686
 3715TIP3   OH235339   1.093   3.689   8.532 -0.6906 -0.2219  0.0055
 3715TIP3    H135340   1.123   3.602   8.503  2.1791  1.3091 -2.2022
 3715TIP3    H235341   1.156   3.714   8.600 -0.9169  0.5021 -0.0427
 3716TIP3   OH235342   1.481   7.001   7.519  0.2922 -0.4305  0.2782
 3716TIP3    H135343   1.478   7.034   7.430  0.2244  1.7354  1.0094
 3716TIP3    H235344   1.400   6.951   7.530 -0.2290  0.2284 -0.5337
 3717TIP3   OH235345   0.848   4.856   7.858  0.2374  0.0390  0.2339
 3717TIP3    H135346   0.764   4.895   7.834  0.8179  1.8783  0.9592
 3717TIP3    H235347   0.851   4.861   7.953  0.9472 -0.4851  0.2495
 3718TIP3   OH235348   0.408   5.343   9.182 -0.3560  0.1957 -0.7738
 3718TIP3    H135349   0.492   5.299   9.169 -1.1230 -1.1643 -1.4182
 3718TIP3    H235350   0.428   5.416   9.240  1.1793 -0.3926 -0.5006
 3719TIP3   OH235351   6.001   6.064   7.645 -0.3561  0.2650 -0.1229
 3719TIP3    H135352   5.929   6.127   7.642 -0.0164  0.6907  0.5698
 3719TIP3    H235353   6.015   6.039   7.554 -2.3321 -0.9088 -0.1795
 3720TIP3   OH235354   2.301   1.905   8.318 -0.0835  0.0064 -0.2203
 3720TIP3    H135355   2.300   1.836   8.384 -1.0650  1.7783  1.7193
 3720TIP3    H235356   2.234   1.878   8.254 -0.2558 -0.9619  0.3506
 3721TIP3   OH235357   2.364   6.505   8.430  0.4118  0.3252  0.1442
 3721TIP3    H135358   2.445   6.477   8.472  1.4906  0.4014 -1.7543
 3721TIP3    H235359   2.296   6.492   8.496  2.1023  1.2610  2.1653
 3722TIP3   OH235360   0.523   5.657   7.324 -0.0393 -0.0980 -0.6347
 3722TIP3    H135361   0.511   5.568   7.358 -0.3026  0.4773  0.8581
 3722TIP3    H235362   0.612   5.658   7.290  0.2408 -0.7221  0.0560
 3723TIP3   OH235363   5.415   3.867   7.588  0.0514  0.3917 -0.0659
 3723TIP3    H135364   5.438   3.878   7.496  1.5501 -0.0479  0.2403
 3723TIP3    H235365   5.499   3.860   7.634 -0.5864  2.3155  1.5704
 3724TIP3   OH235366   1.244   1.061   8.210  0.0973  0.5719 -0.2155
 3724TIP3    H135367   1.234   1.004   8.133  0.7905  1.1801 -0.7795
 3724TIP3    H235368   1.332   1.041   8.242 -0.1528  0.3949  0.3687
 3725TIP3   OH235369   5.979   1.927   6.966  0.2853  0.1469  0.1575
 3725TIP3    H135370   5.895   1.900   6.929  0.3530  0.5525 -0.3031
 3725TIP3    H235371   5.966   1.921   7.061 -0.3028  0.3340  0.0940
 3726TIP3   OH235372   6.707   2.595   8.016 -0.3151  0.5285  0.5584
 3726TIP3    H135373   6.616   2.602   7.987  0.0283 -0.6121 -0.9621
 3726TIP3    H235374   6.719   2.502   8.036  0.1809  0.8738  2.0413
 3727TIP3   OH235375   4.656   5.089   8.261 -0.2405  0.2205 -0.1080
 3727TIP3    H135376   4.731   5.066   8.315 -0.6490  0.4449  0.5680
 3727TIP3    H235377   4.683   5.066   8.172  1.3909  2.1588 -0.1703
 3728TIP3   OH235378   3.610   0.427   7.464  0.6032 -0.0254 -0.2212
 3728TIP3    H135379   3.655   0.437   7.548  2.3099 -0.6041 -1.0333
 3728TIP3    H235380   3.636   0.341   7.432  0.5496  0.4611 -1.6727
 3729TIP3   OH235381   4.646   5.544   9.235  0.4443 -0.0191  0.1379
 3729TIP3    H135382   4.618   5.631   9.265 -0.6256 -0.5108  0.5991
 3729TIP3    H235383   4.566   5.502   9.204  0.7753 -1.2025  0.8337
 3730TIP3   OH235384   0.274   2.524   9.029 -0.3522  0.3209 -0.0621
 3730TIP3    H135385   0.216   2.487   8.963 -1.6107  0.3105  0.9984
 3730TIP3    H235386   0.342   2.457   9.041 -2.5430 -1.7876  1.7688
 3731TIP3   OH235387   6.140   0.466   7.210  0.4585 -0.1875 -0.7676
 3731TIP3    H135388   6.171   0.398   7.150  3.3850  2.4884 -2.5897
 3731TIP3    H235389   6.073   0.513   7.160 -0.7497 -0.9937  0.0591
 3732TIP3   OH235390   3.800   7.615   7.694  0.6934  0.2456  0.0468
 3732TIP3    H135391   3.779   7.540   7.750 -3.5685  1.8889  0.9871
 3732TIP3    H235392   3.777   7.586   7.606 -2.1571  0.6843  0.5563
 3733TIP3   OH235393   7.491   4.924   6.850  0.2533  0.1390  0.4989
 3733TIP3    H135394   7.525   4.854   6.906  1.2698 -0.6870 -1.0644
 3733TIP3    H235395   7.563   4.987   6.843 -0.5333  1.1975  1.6058
 3734TIP3   OH235396   0.823   1.320   7.882  0.0267  0.8249 -0.8408
 3734TIP3    H135397   0.881   1.311   7.807  0.2276  0.6412 -0.6647
 3734TIP3    H235398   0.735   1.314   7.846  0.1298  0.1410 -0.9815
 3735TIP3   OH235399   3.450   7.180   9.599 -0.2421 -0.4843  0.5137
 3735TIP3    H135400   3.396   7.253   9.630 -0.0618  0.0177 -0.3044
 3735TIP3    H235401   3.536   7.218   9.586  0.0939 -1.0742  0.9654
 3736TIP3   OH235402   5.826   5.768   8.282 -0.1941  0.5672  0.1418
 3736TIP3    H135403   5.807   5.721   8.201  0.2863 -0.4371  0.5859
 3736TIP3    H235404   5.751   5.751   8.338 -0.0050  0.2733  0.3144
 3737TIP3   OH235405   2.209   0.468   8.465  0.8756 -0.5101 -0.2375
 3737TIP3    H135406   2.223   0.557   8.433 -0.6325  0.6658  2.0619
 3737TIP3    H235407   2.159   0.424   8.396  0.7696  0.7380 -0.9786
 3738TIP3   OH235408   1.259   7.333   7.929 -0.2130 -0.0567  0.0361
 3738TIP3    H135409   1.260   7.253   7.982  0.0845  0.6334  1.1066
 3738TIP3    H235410   1.212   7.397   7.982 -1.5937  0.1340 -1.3620
 3739TIP3   OH235411   5.321   1.425   8.547  0.1463  0.5698  0.6009
 3739TIP3    H135412   5.243   1.464   8.586 -1.3953 -0.8109 -0.9240
 3739TIP3    H235413   5.351   1.361   8.611 -2.3474 -1.6693 -0.2689
 3740TIP3   OH235414   0.232   2.254   9.144 -0.2556  0.2530  0.3168
 3740TIP3    H135415   0.250   2.231   9.053 -2.8352 -0.1926 -0.1625
 3740TIP3    H235416   0.310   2.302   9.173  1.2972 -0.9634 -1.5941
 3741TIP3   OH235417   3.661   1.872   8.563 -0.0265  0.6772 -0.7586
 3741TIP3    H135418   3.594   1.828   8.509  0.5633 -0.0337 -0.9240
 3741TIP3    H235419   3.698   1.802   8.616 -1.1434  1.4983  1.1977
 3742TIP3   OH235420   3.195   6.746   9.201 -0.2453 -0.1139 -0.2792
 3742TIP3    H135421   3.209   6.678   9.266 -0.8447 -0.6969 -0.7385
 3742TIP3    H235422   3.134   6.707   9.139  0.1070  0.5268 -1.0454
 3743TIP3   OH235423   2.438   3.609   8.525 -0.4054  0.1465 -0.0055
 3743TIP3    H135424   2.396   3.523   8.524 -1.3003  0.5593  0.6834
 3743TIP3    H235425   2.383   3.662   8.583 -0.9225  1.7121 -1.8188
 3744TIP3   OH235426   0.546   6.386   8.627  0.2015  0.1161  0.1243
 3744TIP3    H135427   0.559   6.473   8.664  0.7434 -0.5455  1.5786
 3744TIP3    H235428   0.465   6.354   8.666  0.4266 -0.3421  0.2307
 3745TIP3   OH235429   3.637   6.715   7.133  0.2872  0.2845  0.2932
 3745TIP3    H135430   3.614   6.623   7.141 -0.3661  0.3899 -0.2972
 3745TIP3    H235431   3.717   6.715   7.079  0.2285  0.0767  0.2054
 3746TIP3   OH235432   4.041   1.043   7.975 -0.7866 -0.3106  0.4687
 3746TIP3    H135433   4.133   1.043   7.949 -0.5762 -2.8055  0.9534
 3746TIP3    H235434   4.039   1.092   8.057  0.2770 -0.9597  0.9013
 3747TIP3   OH235435   6.032   2.104   8.452 -0.3996 -0.0738 -0.1494
 3747TIP3    H135436   6.081   2.049   8.514 -1.4512 -0.9832 -0.0919
 3747TIP3    H235437   5.962   2.047   8.420  0.1705  0.3454 -2.2723
 3748TIP3   OH235438   2.065   1.733   8.876  0.2455 -0.0768  0.1086
 3748TIP3    H135439   2.034   1.822   8.890  0.1281  0.0988 -1.2128
 3748TIP3    H235440   2.054   1.690   8.961 -0.8001  0.8337  0.4413
 3749TIP3   OH235441   0.994   2.273   7.886  0.5773 -0.2852 -0.8554
 3749TIP3    H135442   1.064   2.267   7.951  1.8406  2.5774 -1.7723
 3749TIP3    H235443   0.967   2.183   7.872  1.6091 -1.2026  2.1276
 3750TIP3   OH235444   4.354   2.222   9.536  0.1905 -0.0416 -0.2409
 3750TIP3    H135445   4.378   2.254   9.449  0.1309 -0.0343 -0.2546
 3750TIP3    H235446   4.367   2.127   9.531 -0.2882 -0.1032 -0.4150
 3751TIP3   OH235447   4.748   2.526   8.352 -0.3061  0.1038  0.6255
 3751TIP3    H135448   4.713   2.582   8.421 -0.2313  0.2817  0.5201
 3751TIP3    H235449   4.800   2.585   8.297 -1.5601  0.2858 -0.4275
 3752TIP3   OH235450   6.744   1.291   8.175 -0.4762 -0.3523  0.9415
 3752TIP3    H135451   6.746   1.215   8.117 -0.8245  0.8947 -0.8323
 3752TIP3    H235452   6.834   1.302   8.204 -0.1482 -0.6385  0.0684
 3753TIP3   OH235453   2.743   1.279   9.564  0.1324 -0.3979  0.2726
 3753TIP3    H135454   2.682   1.255   9.635  0.8545 -1.5028  0.5375
 3753TIP3    H235455   2.761   1.372   9.578 -0.7693 -0.2843  0.7420
 3754TIP3   OH235456   1.841   0.762   9.468 -0.0292 -0.2369  0.1740
 3754TIP3    H135457   1.811   0.770   9.378 -1.1789  0.0741  0.5800
 3754TIP3    H235458   1.870   0.671   9.475 -1.4461 -0.7315 -0.0714
 3755TIP3   OH235459   6.169   1.734   7.579  0.5554 -0.8648 -0.3375
 3755TIP3    H135460   6.210   1.712   7.495 -0.0603 -1.2725 -0.5362
 3755TIP3    H235461   6.209   1.675   7.642  0.9223 -0.6503 -0.3685
 3756TIP3   OH235462   1.826   1.796   9.216  0.5994 -0.0959  0.5019
 3756TIP3    H135463   1.902   1.737   9.214 -0.2435 -1.1850  0.0381
 3756TIP3    H235464   1.760   1.749   9.265 -0.4944 -0.0518 -0.8657
 3757TIP3   OH235465   2.355   2.927   7.031  0.0693  0.2647 -0.2466
 3757TIP3    H135466   2.448   2.947   7.029 -0.1928  1.7260  0.4562
 3757TIP3    H235467   2.342   2.864   6.960  1.7338 -0.7407  0.2690
 3758TIP3   OH235468   1.205   6.624   9.204 -0.2502  0.3662 -0.2224
 3758TIP3    H135469   1.164   6.680   9.270  0.3881 -0.3222  0.7879
 3758TIP3    H235470   1.195   6.672   9.122 -0.4388  1.5698  0.4879
 3759TIP3   OH235471   6.237   3.340   8.141 -0.6364  0.6498 -0.4834
 3759TIP3    H135472   6.222   3.335   8.235  0.7085 -1.0760 -0.3001
 3759TIP3    H235473   6.198   3.423   8.114 -2.4630  0.4348  1.2983
 3760TIP3   OH235474   1.233   3.497   8.305 -0.5304  0.6292  0.0870
 3760TIP3    H135475   1.300   3.438   8.341 -0.6627 -0.1246 -0.8416
 3760TIP3    H235476   1.157   3.440   8.289 -2.1050  1.8019  2.8387
 3761TIP3   OH235477   3.660   3.187   8.976  0.5055 -0.0494 -0.5183
 3761TIP3    H135478   3.605   3.247   8.925  1.4914 -0.2825 -1.8974
 3761TIP3    H235479   3.597   3.130   9.021 -0.3984  0.0683 -1.5842
 3762TIP3   OH235480   2.345   7.546   8.697  0.3894 -0.5029  0.4812
 3762TIP3    H135481   2.315   7.616   8.755 -0.5606  0.3310 -0.9592
 3762TIP3    H235482   2.296   7.469   8.726  0.5293 -0.3040  1.2852
 3763TIP3   OH235483   6.275   6.685   7.474  0.6629  0.2897  0.3022
 3763TIP3    H135484   6.290   6.641   7.558 -0.3923  1.2687  1.0251
 3763TIP3    H235485   6.207   6.749   7.492  0.1876  0.3030 -1.3906
 3764TIP3   OH235486   3.832   6.621   7.364  0.4147 -0.2056  1.1130
 3764TIP3    H135487   3.809   6.560   7.434  1.4342 -0.4076  1.2783
 3764TIP3    H235488   3.815   6.708   7.402  0.0943 -0.3437  1.2872
 3765TIP3   OH235489   7.170   5.520   8.104  0.5765 -0.0822  0.2972
 3765TIP3    H135490   7.086   5.507   8.149  0.4905  3.2922  1.4101
 3765TIP3    H235491   7.236   5.502   8.171  0.6798 -0.7551  0.0185
 3766TIP3   OH235492   2.001   3.286   7.851  0.6320 -0.5818  0.1568
 3766TIP3    H135493   1.947   3.290   7.930  1.0640 -1.5349  0.5152
 3766TIP3    H235494   1.997   3.375   7.815 -0.5816 -0.4487  0.5606
 3767TIP3   OH235495   4.385   5.447   7.649 -0.2111  0.5022  0.0205
 3767TIP3    H135496   4.324   5.435   7.723 -2.0714  0.1818 -1.4828
 3767TIP3    H235497   4.330   5.481   7.579  1.0206 -1.3324 -1.9314
 3768TIP3   OH235498   2.061   7.183   8.045 -0.3305  0.3562  0.4703
 3768TIP3    H135499   2.156   7.173   8.051 -0.3860 -1.1963 -0.6134
 3768TIP3    H235500   2.026   7.105   8.087 -1.1216  0.7234  0.5036
 3769TIP3   OH235501   2.315   6.891   8.723  0.0880  0.6527 -0.0775
 3769TIP3    H135502   2.274   6.869   8.639 -0.7149  2.0670 -0.0903
 3769TIP3    H235503   2.400   6.848   8.720 -0.2810 -0.0406 -1.2468
 3770TIP3   OH235504   4.950   3.185   9.098 -0.1169  0.9704 -0.4553
 3770TIP3    H135505   4.894   3.163   9.023  1.2638  2.1222 -1.9119
 3770TIP3    H235506   4.889   3.201   9.170 -1.4071 -3.2576 -0.3231
 3771TIP3   OH235507   3.392   4.390   7.255 -0.1223  0.3323  0.4904
 3771TIP3    H135508   3.481   4.417   7.277  0.2359  0.5458 -1.1576
 3771TIP3    H235509   3.342   4.471   7.256 -0.2717  0.2430  1.1788
 3772TIP3   OH235510   7.213   1.064   8.260 -0.6349 -0.5073 -0.7959
 3772TIP3    H135511   7.289   1.046   8.204 -0.5438  1.1051 -1.2602
 3772TIP3    H235512   7.209   0.990   8.320  0.9535 -0.9184 -1.1452
 3773TIP3   OH235513   3.355   1.119   8.748 -0.1650 -0.9511  0.1409
 3773TIP3    H135514   3.298   1.141   8.675  2.7838 -1.7436 -2.6226
 3773TIP3    H235515   3.359   1.199   8.800 -0.4110  0.5517 -2.0138
 3774TIP3   OH235516   6.015   5.306   9.396  0.5941  0.2167 -0.3868
 3774TIP3    H135517   5.944   5.241   9.400  2.4675 -1.9631  3.8358
 3774TIP3    H235518   5.983   5.379   9.448  1.3651 -0.8315  1.6487
 3775TIP3   OH235519   1.107   4.560   8.472  0.4054 -0.9913 -0.4370
 3775TIP3    H135520   1.081   4.485   8.526  0.9304 -0.4679  0.5826
 3775TIP3    H235521   1.139   4.522   8.390 -0.4973 -1.8036 -0.4275
 3776TIP3   OH235522   1.071   1.875   8.447 -0.1930  0.1603 -0.4703
 3776TIP3    H135523   0.990   1.901   8.401 -0.3496  1.6923  0.5989
 3776TIP3    H235524   1.043   1.855   8.536  0.5080 -0.0417 -0.2896
 3777TIP3   OH235525   1.226   4.204   8.877 -0.4631 -0.0326 -0.2232
 3777TIP3    H135526   1.166   4.272   8.908 -0.0406  0.4981 -0.5397
 3777TIP3    H235527   1.284   4.187   8.951 -1.5140 -1.1561  0.3686
 3778TIP3   OH235528   5.646   2.956   8.027  0.1997 -0.0598 -0.0657
 3778TIP3    H135529   5.592   2.879   8.047  0.8295 -1.1570 -2.2164
 3778TIP3    H235530   5.701   2.967   8.104 -0.4868 -1.2677  0.6370
 3779TIP3   OH235531   7.081   7.503   6.750  0.2522 -0.9117 -0.7674
 3779TIP3    H135532   7.161   7.459   6.781 -0.7528 -1.5282  1.1100
 3779TIP3    H235533   7.099   7.596   6.760  0.5446 -1.0632  0.2043
 3780TIP3   OH235534   2.991   4.793   7.419 -0.5244  0.0246  0.1456
 3780TIP3    H135535   2.903   4.767   7.391 -0.4935  0.1563 -0.0775
 3780TIP3    H235536   2.991   4.780   7.514 -0.4796 -0.8763  0.0275
 3781TIP3   OH235537   3.667   5.211   7.322 -1.3308  0.0440 -0.2171
 3781TIP3    H135538   3.715   5.154   7.263 -1.0381 -0.4129  0.4465
 3781TIP3    H235539   3.576   5.183   7.315 -1.4786  0.7170 -1.2566
 3782TIP3   OH235540   0.957   2.280   8.243  0.6599  0.3759 -0.1078
 3782TIP3    H135541   0.873   2.235   8.232  0.0281  1.2422  0.9670
 3782TIP3    H235542   0.985   2.256   8.331  0.2776  2.0717  0.5189
 3783TIP3   OH235543   3.128   4.900   6.725 -0.0248 -0.1284 -0.1618
 3783TIP3    H135544   3.199   4.908   6.662  0.2799 -1.4911 -0.0126
 3783TIP3    H235545   3.068   4.971   6.702  0.4074 -0.1803 -1.5438
 3784TIP3   OH235546   6.212   4.981   7.039 -0.1140 -0.1186 -0.1235
 3784TIP3    H135547   6.223   4.955   7.131 -0.1357  0.1818 -0.0348
 3784TIP3    H235548   6.258   5.065   7.033 -1.3691  0.6012 -0.0289
 3785TIP3   OH235549   4.970   3.404   9.286 -0.1242  0.8671  0.2444
 3785TIP3    H135550   4.917   3.426   9.363 -1.9783  2.0964 -1.3084
 3785TIP3    H235551   5.027   3.480   9.274  2.3715 -0.5377  2.0430
 3786TIP3   OH235552   6.385   0.899   7.804 -0.3197 -0.0048  0.1872
 3786TIP3    H135553   6.337   0.830   7.851 -0.4308 -0.0515  0.0039
 3786TIP3    H235554   6.335   0.979   7.819 -0.3170 -0.0066  0.2061
 3787TIP3   OH235555   4.005   2.331   7.417  0.2200 -0.4165  0.0478
 3787TIP3    H135556   3.974   2.353   7.505  0.5256  1.5153 -0.2640
 3787TIP3    H235557   3.927   2.304   7.369  0.0726 -1.5831  0.9370
 3788TIP3   OH235558   5.968   2.663   7.726  0.1447  0.2157 -0.4599
 3788TIP3    H135559   6.014   2.747   7.720  0.6292  0.0981  1.1196
 3788TIP3    H235560   5.912   2.672   7.804 -0.2508 -0.7121 -0.6277
 3789TIP3   OH235561   5.086   2.190   8.705 -0.2092 -0.2042 -0.1565
 3789TIP3    H135562   5.039   2.157   8.628  0.8134 -0.3543 -0.7386
 3789TIP3    H235563   5.081   2.118   8.767  1.0878 -1.0886 -1.0266
 3790TIP3   OH235564   7.072   6.229   8.412  0.2635  0.0224  0.0896
 3790TIP3    H135565   7.113   6.189   8.335  0.1907 -1.8147  0.9434
 3790TIP3    H235566   7.042   6.155   8.464 -0.8245  1.2507  1.2923
 3791TIP3   OH235567   4.929   7.295   6.736  0.4178 -0.0898 -0.0687
 3791TIP3    H135568   4.859   7.360   6.746  0.7295  0.0512  1.5231
 3791TIP3    H235569   4.883   7.211   6.736  0.2158  0.0094  0.8024
 3792TIP3   OH235570   6.817   7.344   8.508 -0.0341 -0.1024 -0.6962
 3792TIP3    H135571   6.779   7.306   8.429 -1.6908  2.7534 -1.4286
 3792TIP3    H235572   6.780   7.432   8.512 -0.0427 -0.1073  3.3141
 3793TIP3   OH235573   0.721   0.627   9.241  0.5133 -0.4550  0.9839
 3793TIP3    H135574   0.666   0.666   9.309  0.2608 -1.3970  1.3365
 3793TIP3    H235575   0.771   0.701   9.206 -1.4343  0.5482  0.1856
 3794TIP3   OH235576   2.071   6.445   8.536 -0.0393 -0.0950 -0.0271
 3794TIP3    H135577   1.992   6.490   8.567  0.3768  1.7292 -1.4357
 3794TIP3    H235578   2.080   6.473   8.444  2.8203  0.6196  0.3742
 3795TIP3   OH235579   4.355   3.077   7.140 -0.7282  0.1519 -0.0672
 3795TIP3    H135580   4.298   3.004   7.162 -0.4310 -0.1585 -0.3100
 3795TIP3    H235581   4.387   3.057   7.052 -1.5473  1.1496 -0.6172
 3796TIP3   OH235582   3.365   5.334   7.523  0.1195  0.1473 -0.4758
 3796TIP3    H135583   3.459   5.345   7.537 -0.2791  0.8397  2.1200
 3796TIP3    H235584   3.330   5.315   7.609 -1.8922 -2.3467 -1.7385
 3797TIP3   OH235585   0.767   1.791   9.281 -0.1342  0.2424  0.3689
 3797TIP3    H135586   0.858   1.816   9.295  0.4058 -1.3470 -0.0968
 3797TIP3    H235587   0.717   1.869   9.307  1.1844  0.3085  3.0840
 3798TIP3   OH235588   4.740   3.201   9.280 -0.5287  0.0092 -0.0167
 3798TIP3    H135589   4.745   3.188   9.375  0.4565 -0.0427 -0.0642
 3798TIP3    H235590   4.704   3.118   9.247  0.6176 -0.5799  0.1750
 3799TIP3   OH235591   0.116   2.884   8.382  0.8298 -0.3637 -0.6382
 3799TIP3    H135592   0.115   2.795   8.349  1.3140 -0.0130 -1.6469
 3799TIP3    H235593   0.131   2.938   8.305 -1.9775  0.7960 -0.4885
 3800TIP3   OH235594   1.076   4.020   8.715 -0.2213  0.2025 -0.7558
 3800TIP3    H135595   1.141   3.950   8.729 -1.2845 -0.6479  0.1010
 3800TIP3    H235596   1.109   4.093   8.766 -0.6482 -0.7049  0.8825
 3801TIP3   OH235597   3.145   4.434   8.641 -0.3346 -0.0584  0.1911
 3801TIP3    H135598   3.209   4.486   8.689  1.3738 -1.2869 -0.6522
 3801TIP3    H235599   3.172   4.442   8.550 -0.2838 -2.0079 -0.0049
 3802TIP3   OH235600   3.329   0.789   6.708 -0.3238 -0.6627 -0.0471
 3802TIP3    H135601   3.370   0.706   6.683 -0.2422 -0.7922  0.5158
 3802TIP3    H235602   3.327   0.787   6.803  0.9256  0.5688  0.0437
 3803TIP3   OH235603   3.933   3.214   8.994 -0.0904  0.7026 -0.2874
 3803TIP3    H135604   3.839   3.206   9.008 -0.4283  2.7250 -1.0586
 3803TIP3    H235605   3.963   3.267   9.068  0.9441 -1.9260  1.3233
 3804TIP3   OH235606   7.670   6.898   8.401 -0.4173  0.5013  0.3635
 3804TIP3    H135607   7.669   6.985   8.442 -0.5563  1.2147 -1.0924
 3804TIP3    H235608   7.579   6.880   8.378 -0.3324  0.1610  0.2849
 3805TIP3   OH235609   6.120   1.130   7.596 -0.2630  0.3804  0.3747
 3805TIP3    H135610   6.173   1.094   7.525 -0.7589 -0.0460  0.2210
 3805TIP3    H235611   6.055   1.062   7.615 -0.7649  0.9059  0.5575
 3806TIP3   OH235612   6.206   3.825   8.538 -0.1936 -0.0158 -0.0370
 3806TIP3    H135613   6.278   3.860   8.485 -0.8876  0.0653 -0.9384
 3806TIP3    H235614   6.248   3.761   8.596  0.3577 -1.3171 -1.7898
 3807TIP3   OH235615   5.972   7.505   7.452 -0.2010  0.1202 -0.1840
 3807TIP3    H135616   5.989   7.450   7.375  1.2597  0.1193  0.1161
 3807TIP3    H235617   5.974   7.444   7.526 -1.0354  0.2120 -0.0737
 3808TIP3   OH235618   0.095   7.180   9.247 -0.4701 -0.0358 -0.1037
 3808TIP3    H135619   0.009   7.188   9.287 -0.9127 -2.1434 -0.4694
 3808TIP3    H235620   0.081   7.119   9.174  1.2915 -0.3151 -0.2547
 3809TIP3   OH235621   6.406   2.616   7.413 -0.4532  0.0169 -0.0648
 3809TIP3    H135622   6.362   2.645   7.333  0.1458  0.7283 -0.1446
 3809TIP3    H235623   6.491   2.659   7.410 -0.1930 -0.4335  0.6622
 3810TIP3   OH235624   5.464   5.213   7.521  0.2804  0.2391  0.1350
 3810TIP3    H135625   5.471   5.164   7.439  1.6710  0.4556  0.1009
 3810TIP3    H235626   5.413   5.157   7.579 -1.2667  0.3531 -1.0652
 3811TIP3   OH235627   6.352   3.612   9.429  0.0954  0.2464  0.4760
 3811TIP3    H135628   6.391   3.697   9.406  0.0225  0.1981  0.1685
 3811TIP3    H235629   6.426   3.557   9.452  0.1848  0.2502  0.2032
 3812TIP3   OH235630   4.001   0.313   8.554 -0.3458  0.3519  0.7912
 3812TIP3    H135631   3.927   0.365   8.524  0.2020  0.1890 -0.9122
 3812TIP3    H235632   4.061   0.377   8.592 -1.4295  0.4552  2.4856
 3813TIP3   OH235633   3.855   1.298   7.480  0.2945 -0.5501 -0.2601
 3813TIP3    H135634   3.905   1.273   7.557 -0.0749  0.5578  0.3554
 3813TIP3    H235635   3.771   1.253   7.489  0.6365 -1.2646 -0.5681
 3814TIP3   OH235636   4.702   0.940   6.855  0.7623 -0.1244  0.1111
 3814TIP3    H135637   4.719   0.852   6.821 -0.3216 -0.5287  0.5726
 3814TIP3    H235638   4.645   0.981   6.790 -1.0286 -0.7767  1.1793
 3815TIP3   OH235639   1.657   6.650   8.096  0.1144 -0.8353 -0.1988
 3815TIP3    H135640   1.598   6.671   8.169 -0.6354 -1.4371 -0.6216
 3815TIP3    H235641   1.743   6.678   8.127 -0.3864  0.0677  0.4235
 3816TIP3   OH235642   6.973   7.417   7.848  0.1771 -0.0188  0.5842
 3816TIP3    H135643   6.973   7.349   7.915  0.9450 -0.0448  0.5648
 3816TIP3    H235644   6.984   7.370   7.766  0.0854  0.0776  0.5172
 3817TIP3   OH235645   2.843   3.477   7.657 -0.0523 -0.1867  0.0040
 3817TIP3    H135646   2.757   3.480   7.698 -0.3997  0.0705 -0.7365
 3817TIP3    H235647   2.903   3.458   7.729 -0.6451  0.3189  0.6385
 3818TIP3   OH235648   0.393   5.426   8.445 -0.3609  0.2638  0.6527
 3818TIP3    H135649   0.480   5.466   8.454 -0.0997 -0.0409 -0.3450
 3818TIP3    H235650   0.337   5.478   8.502  0.4985  0.3972  1.4066
 3819TIP3   OH235651   6.492   1.993   9.801 -0.3583  0.2083  0.0039
 3819TIP3    H135652   6.406   1.953   9.810  1.3338 -3.4980  1.7347
 3819TIP3    H235653   6.506   2.038   9.885  0.1314 -0.8587  0.5006
 3820TIP3   OH235654   7.551   0.457   7.540  0.1545  0.0325 -0.8908
 3820TIP3    H135655   7.625   0.418   7.493 -0.8980  0.1441 -2.7407
 3820TIP3    H235656   7.560   0.551   7.523  0.9335  0.3225  0.9425
 3821TIP3   OH235657   3.244   2.572   7.344 -0.1004  0.1633  0.0613
 3821TIP3    H135658   3.268   2.651   7.393  0.2369 -0.0074  0.1722
 3821TIP3    H235659   3.246   2.599   7.252  0.9646  0.0431  0.0321
 3822TIP3   OH235660   5.980   5.431   7.801  0.0695  0.2890  0.2777
 3822TIP3    H135661   5.991   5.457   7.710  1.4219 -1.8700 -0.2471
 3822TIP3    H235662   6.012   5.506   7.852  0.8423  0.8757 -1.0351
 3823TIP3   OH235663   0.506   7.260   7.651 -0.4952  0.2720 -0.1133
 3823TIP3    H135664   0.458   7.178   7.639  3.3195 -1.7986 -3.7846
 3823TIP3    H235665   0.565   7.243   7.724 -1.6453  0.9503  1.0263
 3824TIP3   OH235666   4.392   7.515   8.180  0.1869 -0.3839  0.7727
 3824TIP3    H135667   4.474   7.467   8.167 -0.7295 -1.9393  0.5179
 3824TIP3    H235668   4.324   7.458   8.144 -0.9686  1.1097  0.4723
 3825TIP3   OH235669   3.680   2.435   8.279  0.1636  0.6273  0.5078
 3825TIP3    H135670   3.756   2.476   8.238 -0.4040  0.5720 -0.6537
 3825TIP3    H235671   3.717   2.370   8.338  1.0325 -0.5026 -1.1931
 3826TIP3   OH235672   3.116   2.825   8.828 -0.1658 -0.2941 -0.4569
 3826TIP3    H135673   3.109   2.766   8.753 -0.7476  0.3615 -0.9312
 3826TIP3    H235674   3.194   2.877   8.809 -0.8843  0.5679 -1.1310
 3827TIP3   OH235675   4.126   4.559   8.774  0.2855 -0.0549  0.5508
 3827TIP3    H135676   4.127   4.620   8.848  1.4771 -0.5037  0.9273
 3827TIP3    H235677   4.053   4.499   8.793 -0.1961  0.5769  0.7243
 3828TIP3   OH235678   5.961   6.579   8.620 -0.5113  0.2487 -0.6875
 3828TIP3    H135679   5.900   6.637   8.574 -3.8800 -3.9486 -2.2217
 3828TIP3    H235680   5.948   6.599   8.713 -4.5251 -0.4779 -0.9353
 3829TIP3   OH235681   6.892   7.475   8.219  0.5244  0.2296  0.6722
 3829TIP3    H135682   6.811   7.491   8.268 -1.4732 -0.7432 -2.0584
 3829TIP3    H235683   6.882   7.386   8.185  1.9781  0.7036 -1.1304
 3830TIP3   OH235684   3.026   0.764   8.832 -0.1769  0.5388  0.0097
 3830TIP3    H135685   2.962   0.693   8.840 -1.8372  1.9938  0.1713
 3830TIP3    H235686   3.066   0.770   8.919 -1.0208  0.6994  0.3890
 3831TIP3   OH235687   3.091   4.127   6.814  0.0119  0.6124 -0.5453
 3831TIP3    H135688   3.007   4.125   6.860  1.1912 -0.6528  1.7115
 3831TIP3    H235689   3.132   4.209   6.841 -0.7916  1.7072 -2.3965
 3832TIP3   OH235690   5.326   5.493   7.538  0.7810  0.0331 -0.2789
 3832TIP3    H135691   5.375   5.412   7.548 -3.2114 -2.7052 -0.4278
 3832TIP3    H235692   5.306   5.498   7.445 -0.0712  0.4280 -0.0889
 3833TIP3   OH235693   6.910   5.522   8.208  0.1529  0.2591  0.0056
 3833TIP3    H135694   6.840   5.578   8.175  0.2127  1.8234  2.2462
 3833TIP3    H235695   6.880   5.433   8.191 -1.3868  0.9207 -0.9593
 3834TIP3   OH235696   3.535   3.868   7.298  0.0626 -0.5068 -0.7537
 3834TIP3    H135697   3.494   3.946   7.337 -1.3121 -1.1744 -0.7986
 3834TIP3    H235698   3.575   3.822   7.373 -1.7008 -1.2655 -0.2271
 3835TIP3   OH235699   0.922   4.609   8.876  0.2149 -0.1843  0.2343
 3835TIP3    H135700   0.856   4.629   8.809  0.4572 -2.4786 -0.7862
 3835TIP3    H235701   1.004   4.644   8.840  0.5697 -2.4329 -1.3426
 3836TIP3   OH235702   3.524   4.334   8.716 -0.1166 -0.2089  0.8397
 3836TIP3    H135703   3.508   4.397   8.646  0.0361  0.6190  1.5239
 3836TIP3    H235704   3.504   4.249   8.678  0.3283  0.1899 -0.3169
 3837TIP3   OH235705   1.177   5.294   7.390  0.8090  0.1119 -0.1870
 3837TIP3    H135706   1.210   5.383   7.402  1.2064 -0.0258 -0.2387
 3837TIP3    H235707   1.219   5.244   7.461 -1.1860  0.4124  1.2919
 3838TIP3   OH235708   5.017   2.342   8.152 -0.0045 -0.3668 -0.1069
 3838TIP3    H135709   5.059   2.413   8.105  1.0672 -0.8381  0.1121
 3838TIP3    H235710   4.935   2.327   8.105 -0.9248  1.8913  0.6327
 3839TIP3   OH235711   4.541   4.264   7.720  0.0478  0.1205  0.5596
 3839TIP3    H135712   4.512   4.333   7.779 -0.1938  0.4142  0.1080
 3839TIP3    H235713   4.568   4.192   7.777  0.0605  0.4960  1.0259
 3840TIP3   OH235714   5.831   1.370   7.893 -0.5350 -0.5655  0.1256
 3840TIP3    H135715   5.850   1.366   7.800  0.1228  0.5637  0.1943
 3840TIP3    H235716   5.756   1.429   7.901 -0.9553 -1.0988  0.2851
 3841TIP3   OH235717   5.105   5.882   7.656 -0.4241  0.6890  0.3272
 3841TIP3    H135718   5.077   5.826   7.583  0.0244  0.2096  0.5140
 3841TIP3    H235719   5.200   5.870   7.660 -0.4468  0.6919  1.0047
 3842TIP3   OH235720   3.999   0.591   7.894  0.2863 -0.0060  0.3254
 3842TIP3    H135721   4.043   0.664   7.938 -2.4200  1.3789  0.9333
 3842TIP3    H235722   4.017   0.516   7.950 -1.2435  1.2979  2.7713
 3843TIP3   OH235723   1.547   3.678   7.598 -0.0894  0.0550  0.6486
 3843TIP3    H135724   1.556   3.682   7.503 -1.5347  0.7435  0.5146
 3843TIP3    H235725   1.604   3.749   7.630 -1.3891  1.3905  0.1233
 3844TIP3   OH235726   6.868   0.681   7.849  0.5483  0.7018  0.0476
 3844TIP3    H135727   6.957   0.711   7.868  0.6131  1.2624 -1.0600
 3844TIP3    H235728   6.834   0.653   7.933  1.5549  1.0839  0.6011
 3845TIP3   OH235729   0.989   1.317   7.644 -0.2811 -0.7254 -0.9357
 3845TIP3    H135730   1.073   1.341   7.683 -0.9216 -0.8312  0.5449
 3845TIP3    H235731   0.998   1.343   7.552  1.3199 -0.6262 -0.7841
 3846TIP3   OH235732   1.792   6.918   9.488  0.7223  0.2024  0.0765
 3846TIP3    H135733   1.700   6.932   9.511  0.9974 -0.1554  1.5107
 3846TIP3    H235734   1.803   6.823   9.486  1.1318  0.2402  0.2609
 3847TIP3   OH235735   2.868   3.802   8.513 -0.0958 -0.1912  0.0745
 3847TIP3    H135736   2.863   3.880   8.458 -1.1768 -0.3156 -0.0276
 3847TIP3    H235737   2.853   3.729   8.453  1.5805 -0.5484  0.0489
 3848TIP3   OH235738   2.132   4.971   7.271  0.3519 -0.1622  0.0939
 3848TIP3    H135739   2.070   5.031   7.229  0.8098  1.5501  1.7331
 3848TIP3    H235740   2.077   4.907   7.315 -0.1947 -0.1027 -0.4922
 3849TIP3   OH235741   3.308   5.465   7.276 -0.0875  0.6373  0.6946
 3849TIP3    H135742   3.253   5.423   7.211  1.8586 -0.3651 -0.3927
 3849TIP3    H235743   3.306   5.406   7.352 -1.0220  0.9637  0.9402
 3850TIP3   OH235744   1.155   1.802   8.198 -0.6235 -0.1985 -0.5976
 3850TIP3    H135745   1.097   1.855   8.144  0.8357  0.7848 -1.2683
 3850TIP3    H235746   1.132   1.825   8.288 -2.7215 -1.4669 -0.7349
 3851TIP3   OH235747   0.626   0.688   8.165  0.2048 -0.2246  0.4233
 3851TIP3    H135748   0.553   0.627   8.177  1.2782 -1.7436 -0.3655
 3851TIP3    H235749   0.621   0.714   8.073  0.3042  0.1405  0.5195
 3852TIP3   OH235750   1.276   5.812   8.271 -0.4427  0.0063  0.3225
 3852TIP3    H135751   1.370   5.800   8.284 -0.3669 -0.9917 -0.9879
 3852TIP3    H235752   1.238   5.725   8.284 -1.3447  0.5967  1.9065
 3853TIP3   OH235753   1.552   5.668   8.665 -0.2460 -0.0394  0.4568
 3853TIP3    H135754   1.531   5.578   8.639 -0.9941 -0.3509  1.9891
 3853TIP3    H235755   1.622   5.695   8.606  0.5575 -1.9319  0.4934
 3854TIP3   OH235756   2.391   2.647   7.114  0.6022  0.1820  0.6699
 3854TIP3    H135757   2.458   2.596   7.069  0.6309  1.7428 -1.1733
 3854TIP3    H235758   2.414   2.738   7.096 -0.8749  0.8073  1.7200
 3855TIP3   OH235759   0.169   0.469   8.171  0.9323  0.6233 -0.1964
 3855TIP3    H135760   0.206   0.529   8.106  0.3741 -0.4571 -1.5765
 3855TIP3    H235761   0.167   0.384   8.127  0.6425 -0.1825  1.2961
 3856TIP3   OH235762   2.352   4.233   8.257 -0.0429  0.1450  0.6479
 3856TIP3    H135763   2.349   4.145   8.292 -1.1210 -0.3862 -0.6852
 3856TIP3    H235764   2.279   4.279   8.299  1.2399  0.8091  2.2572
 3857TIP3   OH235765   0.405   3.545   7.990 -0.2412  0.5473  0.5314
 3857TIP3    H135766   0.345   3.482   8.031 -0.0431 -0.7449 -1.0477
 3857TIP3    H235767   0.365   3.630   8.007 -0.5420  0.0345  2.7068
 3858TIP3   OH235768   1.669   2.693   8.555 -0.1073 -0.1872 -0.4866
 3858TIP3    H135769   1.734   2.757   8.525  1.3497 -0.7780  1.2485
 3858TIP3    H235770   1.644   2.723   8.642 -0.7520 -1.0285 -0.3677
 3859TIP3   OH235771   5.409   5.967   8.880 -0.0671  0.7608 -0.2079
 3859TIP3    H135772   5.455   6.033   8.827  0.8329  1.3419  1.2359
 3859TIP3    H235773   5.424   5.995   8.971 -2.2336  0.2437  0.3578
 3860TIP3   OH235774   0.232   2.338   9.714 -0.1933  0.5664 -0.0368
 3860TIP3    H135775   0.292   2.396   9.666  1.0420  0.3192  1.1433
 3860TIP3    H235776   0.288   2.266   9.745 -1.1913  0.0898  0.7092
 3861TIP3   OH235777   7.131   7.056   7.449 -0.1372  0.0451  0.2950
 3861TIP3    H135778   7.087   7.084   7.368 -0.3535 -0.0131  0.3908
 3861TIP3    H235779   7.132   6.961   7.443 -0.4040  0.0274  0.4888
 3862TIP3   OH235780   7.613   4.371   7.208  0.1075  0.1377  0.2936
 3862TIP3    H135781   7.554   4.311   7.162  0.7419  1.1048 -1.9178
 3862TIP3    H235782   7.559   4.447   7.230  0.6462  1.6242 -2.9306
 3863TIP3   OH235783   4.304   6.061   8.387 -0.9356  0.1228 -0.5119
 3863TIP3    H135784   4.397   6.050   8.371 -0.9333 -1.4682  0.4135
 3863TIP3    H235785   4.299   6.129   8.454 -0.3467 -0.6458  0.3354
 3864TIP3   OH235786   7.370   6.478   8.236 -0.1218 -0.1065  0.7065
 3864TIP3    H135787   7.421   6.558   8.244 -0.2544  0.6164 -3.3953
 3864TIP3    H235788   7.435   6.408   8.238  0.4154  0.3940  0.9164
 3865TIP3   OH235789   2.294   0.628   7.328 -0.7545  0.0451 -0.0819
 3865TIP3    H135790   2.326   0.562   7.389 -2.1611  1.2146  2.0468
 3865TIP3    H235791   2.301   0.586   7.242  0.3593 -2.0484  0.9445
 3866TIP3   OH235792   0.305   5.025   7.738  0.6828  0.1835  0.3215
 3866TIP3    H135793   0.381   4.975   7.769 -0.3290 -0.9654  1.0177
 3866TIP3    H235794   0.293   4.995   7.648 -0.4588 -1.5871  1.0044
 3867TIP3   OH235795   6.253   0.528   7.648 -0.3137 -0.3320 -0.0774
 3867TIP3    H135796   6.304   0.463   7.600  0.2583  0.6825 -0.9119
 3867TIP3    H235797   6.249   0.603   7.588 -0.2980  0.6760  1.1472
 3868TIP3   OH235798   6.234   1.286   9.409 -0.2604 -0.0055 -0.5479
 3868TIP3    H135799   6.277   1.362   9.370  1.2723 -0.9250 -0.7185
 3868TIP3    H235800   6.304   1.238   9.453 -1.2074 -1.2835 -0.3752
 3869TIP3   OH235801   5.773   7.490   8.046  0.3366  0.2557 -0.0253
 3869TIP3    H135802   5.682   7.505   8.071  0.8776  1.5225  1.3743
 3869TIP3    H235803   5.773   7.404   8.006 -1.5398  0.3852 -0.4017
 3870TIP3   OH235804   1.639   5.378   7.406 -0.0076 -0.4328 -0.5119
 3870TIP3    H135805   1.584   5.405   7.333 -1.5181 -0.5248  0.5261
 3870TIP3    H235806   1.686   5.301   7.374  1.5046  1.1501 -2.2623
 3871TIP3   OH235807   6.660   6.606   8.270  0.0762  0.2118 -0.4253
 3871TIP3    H135808   6.622   6.681   8.225 -1.9249 -0.1472  0.5831
 3871TIP3    H235809   6.754   6.625   8.273 -0.0720  1.5183 -2.2772
 3872TIP3   OH235810   4.139   1.126   9.219  0.3085  0.2205  0.1935
 3872TIP3    H135811   4.129   1.100   9.127 -1.0042 -1.4438  0.7539
 3872TIP3    H235812   4.126   1.220   9.219 -1.2065  0.0586 -1.1563
 3873TIP3   OH235813   0.836   6.533   6.969  0.1086  0.2226  0.3270
 3873TIP3    H135814   0.754   6.525   7.018  0.9777  2.7293  2.4032
 3873TIP3    H235815   0.838   6.624   6.940  2.1331  0.2153  0.2969
 3874TIP3   OH235816   4.267   7.551   9.458 -0.0127 -0.7039  0.2436
 3874TIP3    H135817   4.235   7.642   9.459  0.4458 -0.5093  2.4182
 3874TIP3    H235818   4.310   7.540   9.543 -0.3300 -3.0743  0.1585
 3875TIP3   OH235819   3.587   2.577   6.875 -0.3648 -0.1439 -0.8503
 3875TIP3    H135820   3.555   2.516   6.941  1.6532  0.8502  1.1739
 3875TIP3    H235821   3.665   2.535   6.839  0.2846  0.6387 -0.3833
 3876TIP3   OH235822   0.446   6.852   7.198 -0.2036  0.5507 -0.4566
 3876TIP3    H135823   0.369   6.895   7.235 -0.5768 -1.5118  1.3308
 3876TIP3    H235824   0.518   6.876   7.256 -0.1265 -0.0698 -0.2944
 3877TIP3   OH235825   5.929   2.371   8.488 -0.3573 -0.0040  0.2402
 3877TIP3    H135826   6.008   2.416   8.457 -0.7378 -1.4127 -3.1791
 3877TIP3    H235827   5.956   2.280   8.499 -1.2856 -0.3167 -0.0108
 3878TIP3   OH235828   6.747   7.422   9.212  0.1220 -0.2999 -0.3332
 3878TIP3    H135829   6.701   7.477   9.149  0.4598 -0.5951 -0.8460
 3878TIP3    H235830   6.678   7.389   9.270 -0.0713  0.7351  0.0465
 3879TIP3   OH235831   0.220   3.786   6.875 -0.6933  0.1315 -0.4967
 3879TIP3    H135832   0.141   3.786   6.821 -0.6382  0.7239 -0.5820
 3879TIP3    H235833   0.230   3.876   6.904 -0.3953 -0.0643  0.0318
 3880TIP3   OH235834   7.602   7.157   7.539 -0.3453 -0.0461  0.5467
 3880TIP3    H135835   7.616   7.063   7.528  1.4771  0.0342  1.7354
 3880TIP3    H235836   7.616   7.172   7.633  0.0391  1.5136  0.2615
 3881TIP3   OH235837   2.583   0.985   8.906 -0.3114 -0.1026  0.3180
 3881TIP3    H135838   2.652   0.931   8.945 -0.3329 -1.1725 -1.0518
 3881TIP3    H235839   2.630   1.055   8.861 -0.0790 -0.9531 -0.7967
 3882TIP3   OH235840   7.162   6.469   8.525 -0.7014  0.2770  0.1371
 3882TIP3    H135841   7.077   6.507   8.504 -1.8522 -0.2547  3.3555
 3882TIP3    H235842   7.158   6.380   8.489 -0.6967  0.8671 -1.3933
 3883TIP3   OH235843   1.523   0.213   7.094  0.0238  0.2063 -0.2256
 3883TIP3    H135844   1.448   0.270   7.079 -1.8440 -1.6360  1.3020
 3883TIP3    H235845   1.543   0.175   7.009  0.2346  1.8556 -0.9345
 3884TIP3   OH235846   0.469   3.528   9.340 -0.5081 -0.1859  0.0516
 3884TIP3    H135847   0.468   3.582   9.419 -1.0281 -0.0843 -0.0213
 3884TIP3    H235848   0.551   3.552   9.297  1.7443 -2.9860  2.4040
 3885TIP3   OH235849   3.783   6.185   9.745 -0.5331  0.0382 -0.3806
 3885TIP3    H135850   3.814   6.099   9.713  2.3943  1.6121 -2.2875
 3885TIP3    H235851   3.812   6.189   9.836  0.4040 -0.5685 -0.6347
 3886TIP3   OH235852   2.899   1.674   8.179  0.3673  0.4399 -0.3365
 3886TIP3    H135853   2.990   1.656   8.155 -0.2406 -1.4809 -1.3259
 3886TIP3    H235854   2.895   1.653   8.273  1.3216  2.2766  0.1755
 3887TIP3   OH235855   6.639   3.704   8.507 -0.0896  0.5396  0.8051
 3887TIP3    H135856   6.677   3.632   8.558 -0.1631 -0.6828 -0.7725
 3887TIP3    H235857   6.708   3.728   8.445 -0.6620  0.6696  0.2056
 3888TIP3   OH235858   7.662   4.403   9.449 -0.4723 -0.1741 -0.6369
 3888TIP3    H135859   7.737   4.373   9.397 -0.4593  1.0877 -1.4030
 3888TIP3    H235860   7.638   4.328   9.502  0.4397 -1.0591 -1.4279
 3889TIP3   OH235861   4.304   2.931   8.890 -0.3207 -0.2201  0.8684
 3889TIP3    H135862   4.306   2.868   8.818 -2.2225  1.1585 -0.4960
 3889TIP3    H235863   4.355   2.890   8.960  0.0392 -2.4245 -0.6032
 3890TIP3   OH235864   1.003   0.952   6.646 -0.5904 -0.1008  0.0603
 3890TIP3    H135865   1.011   0.877   6.705 -0.1564  0.1379  0.3143
 3890TIP3    H235866   1.026   0.918   6.560 -1.3679 -0.4856 -0.0030
 3891TIP3   OH235867   6.111   0.388   8.668  1.0042 -0.3112  0.1045
 3891TIP3    H135868   6.027   0.342   8.672  0.6029  0.4602  1.0705
 3891TIP3    H235869   6.090   0.479   8.687  1.8186  0.2615 -1.5550
 3892TIP3   OH235870   2.308   5.894   6.813  0.0631 -0.2987  0.1967
 3892TIP3    H135871   2.231   5.924   6.765 -0.3843 -0.1867  0.9776
 3892TIP3    H235872   2.286   5.805   6.840  0.6365 -0.6614 -0.4795
 3893TIP3   OH235873   3.843   6.745   6.953  0.0847  0.1464 -0.1427
 3893TIP3    H135874   3.793   6.822   6.927 -0.2164  0.2696  0.7679
 3893TIP3    H235875   3.935   6.769   6.938 -0.1066 -0.0690 -1.7954
 3894TIP3   OH235876   2.471   4.185   9.264 -0.4954  0.1966  0.2408
 3894TIP3    H135877   2.538   4.195   9.331  0.3667 -0.7546 -0.4586
 3894TIP3    H235878   2.480   4.263   9.209 -0.3711  0.3594  0.4878
 3895TIP3   OH235879   6.827   6.612   7.985 -0.1350 -0.1468 -0.0339
 3895TIP3    H135880   6.856   6.621   7.894 -0.8215 -0.6531 -0.3038
 3895TIP3    H235881   6.840   6.520   8.006 -0.2783 -0.0951  0.2875
 3896TIP3   OH235882   1.317   5.427   7.021 -0.0502 -0.0729 -0.5552
 3896TIP3    H135883   1.224   5.445   7.037  0.3094  0.8702  0.6768
 3896TIP3    H235884   1.320   5.388   6.934 -1.4708  1.0395 -1.1289
 3897TIP3   OH235885   2.247   5.142   6.809 -0.3890 -0.2995 -0.1063
 3897TIP3    H135886   2.332   5.109   6.779  0.0257  0.3892  0.2958
 3897TIP3    H235887   2.192   5.064   6.812 -0.0933 -0.5922 -1.4243
 3898TIP3   OH235888   4.748   5.263   9.164  0.2112  0.0196  0.1059
 3898TIP3    H135889   4.710   5.338   9.210  0.4631  0.8885 -1.0523
 3898TIP3    H235890   4.684   5.193   9.176 -0.6791  0.8080  0.1092
 3899TIP3   OH235891   1.503   1.844   9.006  0.2353  0.2038  0.0695
 3899TIP3    H135892   1.530   1.908   9.072 -1.2110 -0.0428  0.9610
 3899TIP3    H235893   1.582   1.793   8.988  0.8140  0.6567  1.1996
 3900TIP3   OH235894   5.667   6.889   7.246  0.0977  0.0217  0.5885
 3900TIP3    H135895   5.626   6.871   7.161  0.9397 -0.8041  0.3488
 3900TIP3    H235896   5.599   6.867   7.310 -0.8948  1.5627  0.1385
 3901TIP3   OH235897   0.236   0.596   9.261  0.2665  0.1955 -0.2409
 3901TIP3    H135898   0.299   0.588   9.333  1.4481  1.9205 -1.0147
 3901TIP3    H235899   0.223   0.691   9.252 -2.7249 -0.0865  0.0967
 3902TIP3   OH235900   7.625   7.617   7.577 -0.7484  0.0531  0.2112
 3902TIP3    H135901   7.559   7.687   7.572 -0.6935  0.1308  0.5331
 3902TIP3    H235902   7.579   7.544   7.618 -0.9824 -0.3155 -0.6977
 3903TIP3   OH235903   5.771   1.659   7.605 -0.4579 -0.3723 -0.5586
 3903TIP3    H135904   5.783   1.631   7.514  0.7716 -0.2024 -0.4694
 3903TIP3    H235905   5.810   1.746   7.609 -0.8388 -0.2216  0.0513
 3904TIP3   OH235906   5.197   5.315   8.463 -0.6962 -0.0890 -0.1039
 3904TIP3    H135907   5.172   5.399   8.503  0.0054  0.1491 -0.1585
 3904TIP3    H235908   5.127   5.255   8.490 -1.3184  0.5545 -0.2372
 3905TIP3   OH235909   1.571   2.736   8.182 -0.1860 -0.0034  0.2746
 3905TIP3    H135910   1.479   2.721   8.204 -0.2342  0.8497  0.7222
 3905TIP3    H235911   1.568   2.799   8.110  0.0188  3.1042  2.7361
 3906TIP3   OH235912   5.174   0.541   6.924 -0.2237 -0.0130 -0.3916
 3906TIP3    H135913   5.246   0.598   6.949 -1.0046  0.4320  0.9384
 3906TIP3    H235914   5.211   0.453   6.928  0.3641  0.2383 -0.1415
 3907TIP3   OH235915   3.836   0.043   9.272 -0.3394 -0.3987  0.0009
 3907TIP3    H135916   3.841   0.045   9.177 -1.5835  2.4235 -0.1007
 3907TIP3    H235917   3.919   0.080   9.301  0.1735 -1.5547  0.0711
 3908TIP3   OH235918   7.070   7.474   7.470 -0.1640 -0.2086 -0.0985
 3908TIP3    H135919   7.164   7.491   7.459 -0.3107 -0.7249 -2.8270
 3908TIP3    H235920   7.066   7.395   7.524  0.9460 -0.1671  0.0759
 3909TIP3   OH235921   1.476   4.513   7.800  0.0455 -0.3377 -0.6442
 3909TIP3    H135922   1.533   4.447   7.839  1.0617 -0.2053 -1.8356
 3909TIP3    H235923   1.523   4.596   7.811  0.0482 -0.2106 -1.5394
 3910TIP3   OH235924   4.200   6.448   8.091  0.5424 -0.3181 -0.3597
 3910TIP3    H135925   4.170   6.504   8.019  0.4783 -1.8343 -1.5571
 3910TIP3    H235926   4.237   6.509   8.154 -2.1293  1.3906 -0.2575
 3911TIP3   OH235927   6.200   2.533   9.283  0.4403 -0.2239  0.3158
 3911TIP3    H135928   6.282   2.520   9.332  0.2315 -1.6301  0.3492
 3911TIP3    H235929   6.216   2.610   9.230  0.9602  0.8793  1.9953
 3912TIP3   OH235930   0.067   0.039   8.457  0.3534 -0.3865 -0.0610
 3912TIP3    H135931   0.103   0.128   8.451  0.9259 -0.6855 -1.6578
 3912TIP3    H235932   0.056   0.024   8.551  3.1386  0.2490  0.4860
 3913TIP3   OH235933   6.093   0.565   6.866 -0.2091 -0.2107  0.5696
 3913TIP3    H135934   6.037   0.570   6.944  1.2653 -0.6287  1.7054
 3913TIP3    H235935   6.068   0.483   6.824 -3.6632  1.7210 -1.5950
 3914TIP3   OH235936   5.915   5.434   8.637  0.0575  0.0248  0.2080
 3914TIP3    H135937   5.977   5.377   8.591 -1.3025 -0.3775 -1.2031
 3914TIP3    H235938   5.898   5.389   8.720  1.4869  0.0483  0.5382
 3915TIP3   OH235939   1.301   1.539   9.028 -0.1631 -0.0266  0.1527
 3915TIP3    H135940   1.384   1.493   9.044 -0.3338 -0.5478 -0.4515
 3915TIP3    H235941   1.259   1.490   8.958 -1.0133  0.2116  0.4877
 3916TIP3   OH235942   6.673   7.570   8.426  0.0044 -0.3155  0.1544
 3916TIP3    H135943   6.685   7.664   8.430  0.4705 -0.2629 -1.5512
 3916TIP3    H235944   6.620   7.556   8.347  0.4417 -1.5166  0.0549
 3917TIP3   OH235945   0.860   0.384   7.489 -0.4432 -0.4897 -0.6251
 3917TIP3    H135946   0.808   0.448   7.441 -0.5816  0.0033  0.1692
 3917TIP3    H235947   0.932   0.435   7.527  0.4591 -1.1107 -1.4501
 3918TIP3   OH235948   7.617   4.756   7.097 -0.1046 -0.4154  0.3975
 3918TIP3    H135949   7.550   4.690   7.116 -0.3395  0.1597  1.6945
 3918TIP3    H235950   7.689   4.707   7.057 -0.6501 -1.3019  0.4710
 3919TIP3   OH235951   4.910   6.459   6.977  0.1934  0.1379 -0.4246
 3919TIP3    H135952   4.815   6.463   6.976  0.2026  0.6234 -1.5829
 3919TIP3    H235953   4.933   6.434   6.887  1.1330 -0.8174  0.0558
 3920TIP3   OH235954   1.328   2.392   6.949  0.2994 -0.1806  0.4951
 3920TIP3    H135955   1.288   2.308   6.924 -0.4575  0.5780 -0.9817
 3920TIP3    H235956   1.410   2.368   6.991  0.2125 -1.6659 -0.1199
 3921TIP3   OH235957   2.092   3.205   8.467 -0.2674 -0.3932 -0.0506
 3921TIP3    H135958   2.170   3.245   8.504 -1.8817  2.9938  0.0337
 3921TIP3    H235959   2.123   3.160   8.388  1.9234 -0.4381  0.7780
 3922TIP3   OH235960   6.456   3.703   8.693 -0.1371  0.0137  0.9397
 3922TIP3    H135961   6.493   3.748   8.770 -0.5388  0.9124  0.6145
 3922TIP3    H235962   6.515   3.726   8.622 -1.2486  1.4240  0.4252
 3923TIP3   OH235963   2.827   5.267   8.297  0.4783  0.1325 -0.4283
 3923TIP3    H135964   2.906   5.284   8.348 -1.5466  2.2572  2.3551
 3923TIP3    H235965   2.797   5.354   8.271 -1.0146 -0.5918 -1.2575
 3924TIP3   OH235966   3.468   6.565   8.311 -0.0766  0.3873  0.4757
 3924TIP3    H135967   3.388   6.614   8.330  1.1398  2.3082  0.9305
 3924TIP3    H235968   3.469   6.494   8.377 -2.1689 -0.7133 -0.5747
 3925TIP3   OH235969   5.697   1.438   8.747  0.1554  0.2945  0.4979
 3925TIP3    H135970   5.656   1.495   8.683 -1.7626 -0.4191  1.0070
 3925TIP3    H235971   5.774   1.403   8.703  0.1832  1.6237 -0.5585
 3926TIP3   OH235972   0.214   3.834   8.919 -0.0056 -0.4438 -0.4079
 3926TIP3    H135973   0.243   3.924   8.903 -0.9388 -0.1187 -0.2797
 3926TIP3    H235974   0.208   3.795   8.832 -0.4629 -0.1096 -0.5280
 3927TIP3   OH235975   0.991   3.677   9.307  0.1159 -0.7324  0.1754
 3927TIP3    H135976   0.988   3.763   9.266  0.1438 -1.3319 -1.1209
 3927TIP3    H235977   1.044   3.690   9.386 -1.4648  0.8464  1.0539
 3928TIP3   OH235978   7.527   6.001   8.612  0.4108 -0.0633  0.3951
 3928TIP3    H135979   7.468   5.938   8.654 -1.4143  1.3426  0.0628
 3928TIP3    H235980   7.590   5.947   8.564  0.2991 -1.6438  1.9379
 3929TIP3   OH235981   1.422   0.043   7.728 -0.1542  0.2519 -0.4055
 3929TIP3    H135982   1.331   0.074   7.727 -0.0646  0.5387  0.0021
 3929TIP3    H235983   1.468   0.106   7.783  0.1346 -0.3106  0.0107
 3930TIP3   OH235984   1.496   3.401   7.667 -0.4985  0.2710  0.0063
 3930TIP3    H135985   1.504   3.362   7.580 -2.9477  0.4076 -0.3531
 3930TIP3    H235986   1.503   3.495   7.651  1.1912  0.2200  0.2927
 3931TIP3   OH235987   1.485   6.193   6.994 -0.4139  0.4089  0.1114
 3931TIP3    H135988   1.487   6.264   6.930  1.4155 -1.3769 -1.9691
 3931TIP3    H235989   1.552   6.216   7.058  1.5061 -0.1749 -1.5603
 3932TIP3   OH235990   2.858   4.023   8.333 -0.2423  0.8084 -0.2299
 3932TIP3    H135991   2.944   4.062   8.349  0.4683  1.2597 -4.1047
 3932TIP3    H235992   2.796   4.093   8.354  0.5268  1.4602 -0.0796
 3933TIP3   OH235993   7.219   1.444   7.495 -0.0762 -0.2923  0.5568
 3933TIP3    H135994   7.265   1.466   7.576  0.7512  0.9039 -0.1971
 3933TIP3    H235995   7.289   1.423   7.433 -0.5082  1.3199 -0.5448
 3934TIP3   OH235996   5.776   0.422   8.291 -0.1013  0.0755 -0.0115
 3934TIP3    H135997   5.857   0.371   8.302  0.6316  0.5148 -2.5589
 3934TIP3    H235998   5.806   0.508   8.262 -1.4642  0.3268 -0.7523
 3935TIP3   OH235999   3.897   1.616   9.080  0.0097  0.2477 -0.3188
 3935TIP3    H136000   3.837   1.686   9.055  1.5425  1.9753  0.5964
 3935TIP3    H236001   3.851   1.569   9.149 -0.5181  1.2166  0.0193
 3936TIP3   OH236002   2.900   2.218   8.968 -1.0299  0.0629  1.0875
 3936TIP3    H136003   2.840   2.150   8.935  1.0201 -0.9802 -0.7923
 3936TIP3    H236004   2.963   2.230   8.897  0.8476  1.2697  2.8476
 3937TIP3   OH236005   2.395   2.419   7.949  0.6687 -0.5287 -0.0012
 3937TIP3    H136006   2.394   2.483   8.019  2.1614  0.0097 -0.4255
 3937TIP3    H236007   2.331   2.353   7.975  0.5957  0.0819  1.4420
 3938TIP3   OH236008   4.229   7.030   7.398 -0.3502  0.4411 -0.2617
 3938TIP3    H136009   4.201   7.036   7.490  0.7257 -1.3390  0.2267
 3938TIP3    H236010   4.152   7.001   7.351  0.2109 -3.4059  0.9035
 3939TIP3   OH236011   5.714   5.668   8.949  0.5613 -0.6992 -0.3161
 3939TIP3    H136012   5.681   5.710   8.870  2.5860 -1.3267 -1.5661
 3939TIP3    H236013   5.642   5.675   9.012 -0.1544  2.1824 -1.3160
 3940TIP3   OH236014   6.192   6.843   8.587 -0.2437  0.1138 -0.3411
 3940TIP3    H136015   6.247   6.915   8.556  0.7078  0.1172  1.2418
 3940TIP3    H236016   6.103   6.876   8.579  0.0978  0.9204 -0.9912
 3941TIP3   OH236017   7.572   3.171   7.735  0.0264 -0.1910 -0.2672
 3941TIP3    H136018   7.607   3.252   7.771 -0.6735  0.0588 -0.1377
 3941TIP3    H236019   7.548   3.192   7.645  0.2916 -0.3882 -0.3874
 3942TIP3   OH236020   3.735   6.174   7.742  0.2871  0.2573  0.4393
 3942TIP3    H136021   3.702   6.093   7.780 -0.7530  0.5153  0.1348
 3942TIP3    H236022   3.788   6.213   7.811 -1.3415  0.5885  1.5663
 3943TIP3   OH236023   3.541   3.352   8.797 -0.5360  0.4479 -0.1241
 3943TIP3    H136024   3.541   3.275   8.740 -1.2940  1.4881 -1.5994
 3943TIP3    H236025   3.599   3.414   8.752  2.0210 -0.0295  2.2287
 3944TIP3   OH236026   3.359   5.846   6.862  0.6878 -0.3501  0.0355
 3944TIP3    H136027   3.441   5.805   6.889  1.0142  0.9960  1.1761
 3944TIP3    H236028   3.299   5.831   6.935  0.0967 -0.7332 -0.5081
 3945TIP3   OH236029   3.542   3.725   8.805  0.1831  0.3762  0.6221
 3945TIP3    H136030   3.506   3.656   8.860 -0.1224 -0.8682 -1.0668
 3945TIP3    H236031   3.501   3.805   8.837  0.0677 -0.2751  2.2095
 3946TIP3   OH236032   5.068   6.231   7.057  0.1809  0.6977  0.5415
 3946TIP3    H136033   5.090   6.226   7.150  0.4184  2.1176  0.5897
 3946TIP3    H236034   5.066   6.325   7.038  0.2543  0.4296 -0.9174
 3947TIP3   OH236035   5.041   4.948   7.781 -0.1122  0.4845  0.6571
 3947TIP3    H136036   5.108   4.913   7.723  0.5807  1.9298  0.5410
 3947TIP3    H236037   4.976   4.878   7.787  0.1340  0.0305 -1.2794
 3948TIP3   OH236038   0.442   1.129   7.583  0.1924  0.4521  0.3551
 3948TIP3    H136039   0.525   1.148   7.539 -0.4317  0.1974 -0.9775
 3948TIP3    H236040   0.424   1.037   7.561 -0.3697  0.4609  0.7517
 3949TIP3   OH236041   3.519   7.494   8.933  0.4923  0.0619  0.3493
 3949TIP3    H136042   3.455   7.560   8.907  0.9762  0.1597 -0.6613
 3949TIP3    H236043   3.586   7.498   8.865  0.6080 -1.3522  0.3434
 3950TIP3   OH236044   2.866   7.477   8.417 -0.7995  0.3833  0.3492
 3950TIP3    H136045   2.866   7.515   8.329 -2.6600  2.2185  1.0654
 3950TIP3    H236046   2.937   7.412   8.415  0.0811  1.3028 -2.0809
 3951TIP3   OH236047   7.226   4.394   9.223  0.0519  0.1614 -0.2863
 3951TIP3    H136048   7.295   4.424   9.282  0.3014  0.4777 -0.7302
 3951TIP3    H236049   7.144   4.415   9.269  0.2487 -0.0601  0.1673
 3952TIP3   OH236050   1.330   7.352   6.728  0.0442  0.0263 -0.3887
 3952TIP3    H136051   1.264   7.283   6.734  0.7233 -0.5872  0.2183
 3952TIP3    H236052   1.405   7.317   6.776  0.1114  1.5169  0.6586
 3953TIP3   OH236053   6.696   5.777   8.245 -0.0968 -0.1977 -0.3145
 3953TIP3    H136054   6.633   5.848   8.254  0.6398  0.7011 -1.8742
 3953TIP3    H236055   6.708   5.745   8.334  0.7080  2.6808  0.7450
 3954TIP3   OH236056   6.807   6.083   7.889 -0.8024  0.0852  0.2581
 3954TIP3    H136057   6.855   6.030   7.825 -2.0129 -1.1547  0.3293
 3954TIP3    H236058   6.837   6.051   7.974  1.0668  1.9696  0.3973
 3955TIP3   OH236059   0.545   7.266   8.961  0.1943  0.0689 -0.0390
 3955TIP3    H136060   0.638   7.244   8.975  0.2103 -1.4719 -2.0458
 3955TIP3    H236061   0.547   7.349   8.914  0.5147  0.3460  0.4520
 3956TIP3   OH236062   2.903   5.909   9.052  0.2865  0.1804  0.1548
 3956TIP3    H136063   2.879   5.947   8.967 -0.2963  0.8995  0.6309
 3956TIP3    H236064   2.933   5.820   9.031 -0.7834  0.0050 -0.6936
 3957TIP3   OH236065   2.385   1.316   7.219 -0.1649  0.4625 -0.1930
 3957TIP3    H136066   2.368   1.242   7.160 -0.8784 -0.6185  1.2684
 3957TIP3    H236067   2.391   1.392   7.162  0.5648 -0.7140 -1.7623
 3958TIP3   OH236068   2.623   6.713   7.594 -0.3224 -0.1107  0.2139
 3958TIP3    H136069   2.582   6.673   7.517 -1.1179 -0.0043  0.5680
 3958TIP3    H236070   2.607   6.651   7.665  1.0804 -0.5727  0.1564
 3959TIP3   OH236071   5.450   3.808   7.032  0.3298  0.9906  0.7049
 3959TIP3    H136072   5.543   3.828   7.024  0.1826  0.8454 -2.9138
 3959TIP3    H236073   5.448   3.718   7.066  1.6141  0.4157 -0.6247
 3960TIP3   OH236074   6.065   3.173   6.816 -0.0326 -0.5071  0.2379
 3960TIP3    H136075   6.011   3.158   6.894 -0.4919  0.3265  0.0932
 3960TIP3    H236076   6.147   3.208   6.851 -0.7435  1.1801  0.2850
 3961TIP3   OH236077   3.389   1.007   8.035 -0.0060  0.6871  0.2110
 3961TIP3    H136078   3.303   0.973   8.012  0.3030 -0.7683  1.0832
 3961TIP3    H236079   3.419   0.951   8.106  1.9392  0.7175 -0.5243
 3962TIP3   OH236080   4.089   6.633   8.749 -0.3400 -0.0614 -0.2965
 3962TIP3    H136081   4.024   6.703   8.743  0.2766  0.4553 -0.9361
 3962TIP3    H236082   4.100   6.619   8.843 -0.0988  1.0424 -0.1553
 3963TIP3   OH236083   4.407   7.132   9.194 -0.4417  0.4211 -0.1449
 3963TIP3    H136084   4.379   7.087   9.114  0.5971 -0.4034 -0.0637
 3963TIP3    H236085   4.411   7.063   9.260  2.3805  0.3205 -0.3089
 3964TIP3   OH236086   0.473   2.002   7.632  0.2108  0.5707  0.1922
 3964TIP3    H136087   0.427   1.926   7.665  2.0503  0.2819  2.3386
 3964TIP3    H236088   0.475   2.063   7.706  2.3471  0.9435 -0.0997
 3965TIP3   OH236089   1.675   5.875   7.780 -0.2262 -0.3084  0.2788
 3965TIP3    H136090   1.646   5.799   7.730 -0.8609  0.9239 -1.3357
 3965TIP3    H236091   1.665   5.949   7.719 -3.0600  1.6532  2.8200
 3966TIP3   OH236092   7.095   0.629   8.220  0.2012 -0.1967  0.0166
 3966TIP3    H136093   7.134   0.702   8.269 -0.4602 -0.2262  0.6065
 3966TIP3    H236094   7.115   0.552   8.273  0.9459 -0.4647 -0.6358
 3967TIP3   OH236095   6.359   3.064   9.001 -0.1469 -0.7241  0.0054
 3967TIP3    H136096   6.422   3.044   8.932  0.4291 -0.1093  0.3490
 3967TIP3    H236097   6.273   3.049   8.960  0.2090 -2.7573 -0.1061
 3968TIP3   OH236098   6.858   1.590   9.023 -0.3603  0.3741 -0.4627
 3968TIP3    H136099   6.881   1.520   9.083  0.0800  0.3897 -0.6097
 3968TIP3    H236100   6.841   1.546   8.939  1.4682  0.5764 -0.9707
 3969TIP3   OH236101   2.976   6.964   7.956 -0.0896 -0.6016  0.0009
 3969TIP3    H136102   2.895   6.919   7.932  0.5907 -3.1720  2.0975
 3969TIP3    H236103   3.016   6.986   7.872 -2.2281 -0.5617 -1.0835
 3970TIP3   OH236104   0.159   7.535   7.352  0.5289  0.3828  0.2153
 3970TIP3    H136105   0.158   7.613   7.407 -0.6194  0.0058  0.7739
 3970TIP3    H236106   0.066   7.512   7.342  0.5524  1.1615 -2.9345
 3971TIP3   OH236107   6.198   0.803   7.502  0.4781 -0.1011  0.4794
 3971TIP3    H136108   6.229   0.777   7.415  1.1750  0.9053  0.4076
 3971TIP3    H236109   6.257   0.873   7.529 -0.1526  0.0751  1.4762
 3972TIP3   OH236110   5.591   1.225   9.201 -0.0354 -0.6023 -0.6262
 3972TIP3    H136111   5.665   1.190   9.152  0.7311 -0.0499  0.1045
 3972TIP3    H236112   5.606   1.320   9.202  1.0500 -0.7023  2.2864
 3973TIP3   OH236113   3.835   3.124   8.131  0.4297 -0.1726 -0.3610
 3973TIP3    H136114   3.870   3.058   8.191 -0.3465 -0.7855 -0.5673
 3973TIP3    H236115   3.740   3.120   8.144  0.2839 -0.0228 -1.3242
 3974TIP3   OH236116   0.122   1.325   7.841 -0.1021 -0.4229  0.2121
 3974TIP3    H136117   0.030   1.331   7.814  0.0672  1.8169 -0.0961
 3974TIP3    H236118   0.118   1.307   7.935 -0.9273  0.7003  0.4220
 3975TIP3   OH236119   4.296   7.398   8.468  0.3719 -0.5987 -0.0406
 3975TIP3    H136120   4.352   7.453   8.522  0.6503 -0.0626 -0.8509
 3975TIP3    H236121   4.312   7.429   8.378 -0.3622 -1.2060 -0.3898
 3976TIP3   OH236122   1.098   5.062   7.872 -0.3922  0.3879 -0.1832
 3976TIP3    H136123   1.127   5.152   7.859 -1.7926  0.8836 -0.0993
 3976TIP3    H236124   1.112   5.045   7.965  2.2580 -0.4114 -0.6503
 3977TIP3   OH236125   1.565   3.124   8.103  0.0586 -0.1027 -0.3107
 3977TIP3    H136126   1.592   3.037   8.072  0.2530 -0.1454 -0.0232
 3977TIP3    H236127   1.553   3.175   8.023  1.7828  0.1607 -0.4334
 3978TIP3   OH236128   3.516   4.717   8.168  0.2280 -0.5610  0.0180
 3978TIP3    H136129   3.560   4.633   8.173 -0.4788 -0.9767 -0.4814
 3978TIP3    H236130   3.583   4.781   8.191  0.3097 -1.3671  2.2168
 3979TIP3   OH236131   3.377   6.134   8.578 -0.3919  0.0822  0.0161
 3979TIP3    H136132   3.346   6.100   8.494 -2.4004  2.2445 -0.2249
 3979TIP3    H236133   3.306   6.115   8.640 -0.0605  0.7509  0.6213
 3980TIP3   OH236134   1.236   1.951   7.800  0.3512  0.0726 -0.3272
 3980TIP3    H136135   1.228   2.041   7.770 -0.4090  0.4162  0.8214
 3980TIP3    H236136   1.279   1.905   7.728 -0.6402  1.0178 -1.5671
 3981TIP3   OH236137   0.781   6.645   8.407 -0.1317  0.1713  0.2351
 3981TIP3    H136138   0.818   6.593   8.336  1.5010  0.9024  0.4955
 3981TIP3    H236139   0.721   6.705   8.364 -0.6721 -0.7133 -0.2715
 3982TIP3   OH236140   2.047   2.011   8.924  0.2604 -0.4925 -0.0451
 3982TIP3    H136141   2.047   2.056   8.840 -0.4210 -1.4043 -0.5567
 3982TIP3    H236142   2.100   2.066   8.982  1.4121 -0.2649 -1.2861
 3983TIP3   OH236143   3.181   4.162   8.088  0.0397 -0.0148  0.0779
 3983TIP3    H136144   3.141   4.151   8.002  2.3391  1.1733 -1.2466
 3983TIP3    H236145   3.270   4.127   8.078  0.2649 -0.1699  2.0900
 3984TIP3   OH236146   4.195   0.827   6.322 -0.1446 -0.1870 -0.1620
 3984TIP3    H136147   4.242   0.782   6.252  1.1050  1.6238 -0.5270
 3984TIP3    H236148   4.111   0.780   6.327  0.7255 -1.9670 -1.0982
 3985TIP3   OH236149   4.296   0.064   8.310 -0.4724  0.2047 -0.2686
 3985TIP3    H136150   4.203   0.083   8.320 -0.7942 -0.7118 -1.2636
 3985TIP3    H236151   4.298  -0.028   8.281  0.8492 -0.5616  2.0167
 3986TIP3   OH236152   1.096   2.930   8.684  0.6554 -0.3633  0.0900
 3986TIP3    H136153   1.023   2.869   8.677  0.6443 -0.3475  0.0673
 3986TIP3    H236154   1.074   2.985   8.760  0.8734 -0.6673  0.3784
 3987TIP3   OH236155   4.958   6.702   7.991 -0.1340 -0.1757 -0.9581
 3987TIP3    H136156   4.884   6.751   8.026 -0.5984 -2.1722  1.1561
 3987TIP3    H236157   5.027   6.767   7.980 -1.7072  1.4713 -1.5174
 3988TIP3   OH236158   4.782   0.758   8.003  0.1644 -0.5186  0.4476
 3988TIP3    H136159   4.784   0.766   8.098  2.8940  1.1049  0.3573
 3988TIP3    H236160   4.696   0.790   7.977 -0.1751  0.1492  2.3004
 3989TIP3   OH236161   0.412   3.335   6.524  0.6284 -0.3800  0.2642
 3989TIP3    H136162   0.441   3.349   6.434  1.1853 -0.7342  0.3816
 3989TIP3    H236163   0.473   3.270   6.559  0.8137  0.2293  1.0967
 3990TIP3   OH236164   3.149   1.473   7.255  0.0375  0.1680  0.6001
 3990TIP3    H136165   3.119   1.503   7.169  3.3748 -1.3723 -1.3299
 3990TIP3    H236166   3.070   1.440   7.298 -1.4827 -1.3749 -2.9450
 3991TIP3   OH236167   7.347   1.772   9.601  0.2929  0.8821  0.2126
 3991TIP3    H136168   7.303   1.691   9.576  3.1131 -0.4850 -0.7039
 3991TIP3    H236169   7.380   1.756   9.689 -0.7765  1.8124  0.8094
 3992TIP3   OH236170   3.754   7.419   8.093  0.6805  0.4300  0.1631
 3992TIP3    H136171   3.721   7.465   8.170  0.0055  0.7625 -0.3174
 3992TIP3    H236172   3.761   7.327   8.121 -1.6266  0.1573  0.0049
 3993TIP3   OH236173   2.885   4.508   8.589 -0.2977  0.1856 -0.3244
 3993TIP3    H136174   2.850   4.486   8.675 -1.3480  0.5355 -0.6484
 3993TIP3    H236175   2.975   4.475   8.591  0.0631  1.1133  1.2843
 3994TIP3   OH236176   1.707   6.534   8.836 -0.1080  0.1756 -0.2558
 3994TIP3    H136177   1.674   6.448   8.861 -0.1297 -0.1080 -1.2081
 3994TIP3    H236178   1.655   6.596   8.886  0.1218 -0.3684  0.6804
 3995TIP3   OH236179   7.505   2.860   7.713 -0.1130  0.0328  0.2644
 3995TIP3    H136180   7.498   2.924   7.642  0.0441 -0.9936 -0.7072
 3995TIP3    H236181   7.429   2.802   7.700  1.7959 -2.3134 -1.3093
 3996TIP3   OH236182   6.921   2.239   8.652 -0.6684 -0.1722  0.5653
 3996TIP3    H136183   6.827   2.220   8.648 -0.7522  0.3162  0.2197
 3996TIP3    H236184   6.960   2.183   8.585 -1.0738  1.7772 -1.4120
 3997TIP3   OH236185   3.297   3.693   7.529 -0.1311  0.0048 -0.6808
 3997TIP3    H136186   3.214   3.646   7.524  0.1830 -0.7211  0.4866
 3997TIP3    H236187   3.291   3.742   7.610  0.5491 -0.0019 -0.6251
 3998TIP3   OH236188   4.128   6.217   6.960 -0.1490  0.2997 -0.0816
 3998TIP3    H136189   4.112   6.193   6.869  2.5777 -0.6570 -0.3924
 3998TIP3    H236190   4.203   6.164   6.987 -0.6199  0.8182  2.6320
 3999TIP3   OH236191   5.966   3.114   7.060 -0.1973  0.0315  0.0681
 3999TIP3    H136192   6.001   3.037   7.104  0.8580  0.0277 -0.7290
 3999TIP3    H236193   5.871   3.106   7.067 -0.0835 -1.0907  0.4061
 4000TIP3   OH236194   0.738   0.816   7.567  0.7237  0.5409  0.5711
 4000TIP3    H136195   0.725   0.908   7.589  2.4817  0.8777  0.3141
 4000TIP3    H236196   0.789   0.781   7.641 -0.9453 -0.5609  1.2673
 4001TIP3   OH236197   4.110   2.467   8.369 -0.3766 -0.0180  0.4550
 4001TIP3    H136198   4.156   2.527   8.429  2.2012 -1.1757 -0.2203
 4001TIP3    H236199   4.177   2.440   8.306 -2.0075 -1.8940 -0.5963
 4002TIP3   OH236200   5.829   6.889   9.312 -0.0715  0.1788 -1.1204
 4002TIP3    H136201   5.902   6.846   9.269  0.6249  0.5521 -0.3296
 4002TIP3    H236202   5.766   6.906   9.242 -0.1643 -1.6689 -1.5414
 4003TIP3   OH236203   5.082   1.441   7.260 -0.3534 -0.0382 -0.2735
 4003TIP3    H136204   5.053   1.406   7.176 -1.7842  0.7444 -0.1445
 4003TIP3    H236205   5.005   1.487   7.295  0.8034  1.4223  0.5086
 4004TIP3   OH236206   1.471   4.610   9.198 -0.5204  0.6973 -0.3295
 4004TIP3    H136207   1.394   4.666   9.194 -0.5554  0.6847  0.1092
 4004TIP3    H236208   1.542   4.663   9.161 -0.8412  0.5205 -1.2259
 4005TIP3   OH236209   5.616   1.492   9.265  0.1160 -0.0352 -0.2760
 4005TIP3    H136210   5.548   1.558   9.249 -0.5742 -0.7359 -0.3101
 4005TIP3    H236211   5.656   1.518   9.348 -1.2880 -0.5006  0.5821
 4006TIP3   OH236212   4.050   7.083   8.246 -0.0194 -0.4114 -0.5411
 4006TIP3    H136213   4.051   7.049   8.336  1.0094  2.6851  0.7480
 4006TIP3    H236214   3.963   7.123   8.237  0.5589  1.0117 -0.1312
 4007TIP3   OH236215   3.900   6.116   8.586  0.1228 -0.2690 -0.0623
 4007TIP3    H136216   3.811   6.105   8.619 -0.2832 -2.5728 -1.7449
 4007TIP3    H236217   3.893   6.187   8.522 -0.7633 -1.2077 -1.0265
 4008TIP3   OH236218   4.452   2.595   9.168 -0.4242  0.0142 -1.0018
 4008TIP3    H136219   4.503   2.515   9.171  4.0546  2.5397 -1.2230
 4008TIP3    H236220   4.434   2.615   9.260 -3.3693 -2.0429 -0.9962
 4009TIP3   OH236221   4.046   6.215   9.305 -0.6506  0.3451 -0.5655
 4009TIP3    H136222   3.984   6.254   9.367 -0.0466  0.8701 -0.2888
 4009TIP3    H236223   4.103   6.161   9.360 -1.5199 -1.0182 -0.9469
 4010TIP3   OH236224   3.616   0.674   8.509 -0.1678 -0.1937  0.2654
 4010TIP3    H136225   3.670   0.722   8.446 -0.5248  0.0016  0.1026
 4010TIP3    H236226   3.675   0.654   8.581  0.0902  0.1269  0.1469
 4011TIP3   OH236227   6.605   4.511   8.823 -0.0197  0.1563  0.4101
 4011TIP3    H136228   6.526   4.544   8.779  0.5086  1.0885  0.1504
 4011TIP3    H236229   6.672   4.577   8.806  1.1870 -1.2231 -0.4690
 4012TIP3   OH236230   7.589   0.208   6.723  0.0132  0.2647  0.3623
 4012TIP3    H136231   7.620   0.268   6.656  2.0207  2.3086  2.9204
 4012TIP3    H236232   7.493   0.215   6.719  0.1419  1.6761 -1.0797
 4013TIP3   OH236233   7.106   0.940   8.707  0.1110 -0.2639 -0.1467
 4013TIP3    H136234   7.016   0.912   8.726 -0.0758  0.1899 -0.3503
 4013TIP3    H236235   7.152   0.858   8.686 -0.5793 -0.3823 -1.3259
 4014TIP3   OH236236   2.436   4.224   7.524 -0.2250  0.3234  0.1992
 4014TIP3    H136237   2.451   4.252   7.614  1.3751 -0.9994  0.3870
 4014TIP3    H236238   2.491   4.282   7.471 -1.5917  1.4722 -0.0268
 4015TIP3   OH236239   6.833   2.715   8.858  0.8179  0.5578 -0.1510
 4015TIP3    H136240   6.881   2.635   8.879  2.1931  0.8757 -1.9278
 4015TIP3    H236241   6.783   2.734   8.938  0.3649 -2.0899  0.3005
 4016TIP3   OH236242   1.223   0.883   7.969 -0.5000  0.2071 -0.4114
 4016TIP3    H136243   1.157   0.819   7.995  0.7487  0.0007  2.5985
 4016TIP3    H236244   1.284   0.834   7.913  0.1721 -1.1901  1.4521
 4017TIP3   OH236245   1.003   5.608   8.044 -0.2472  0.1627 -0.1116
 4017TIP3    H136246   1.095   5.611   8.019 -0.8950  0.7985 -2.6937
 4017TIP3    H236247   0.963   5.547   7.982 -1.2820 -1.7030  2.2263
 4018TIP3   OH236248   5.649   0.932   7.940  0.3440  0.1976  0.1659
 4018TIP3    H136249   5.741   0.955   7.950 -0.0831  1.8323  0.6536
 4018TIP3    H236250   5.619   0.983   7.866 -0.2096 -0.2551  0.0665
 4019TIP3   OH236251   0.402   4.662   8.392 -0.2899 -0.2660 -0.3267
 4019TIP3    H136252   0.308   4.646   8.402 -0.4905  0.7026 -0.5644
 4019TIP3    H236253   0.416   4.747   8.434  0.1289  0.4947 -1.9281
 4020TIP3   OH236254   6.539   4.514   7.097  0.0840  0.6010  0.1476
 4020TIP3    H136255   6.481   4.588   7.077  0.7530  0.6187 -1.9541
 4020TIP3    H236256   6.605   4.516   7.028  0.7142 -1.3798  0.6321
 4021TIP3   OH236257   6.264   5.872   8.764 -0.2043 -0.1132 -0.3928
 4021TIP3    H136258   6.329   5.941   8.754  0.0512 -0.2066  0.5266
 4021TIP3    H236259   6.180   5.915   8.748 -0.0866  0.5341  0.6372
 4022TIP3   OH236260   2.511   0.108   7.378  0.0763  0.5983 -0.0804
 4022TIP3    H136261   2.507   0.192   7.334  0.3435  0.4970 -0.3026
 4022TIP3    H236262   2.541   0.129   7.467  1.8671  0.5752 -0.6419
 4023TIP3   OH236263   1.817   7.494   9.564  0.0524  0.2893  0.0204
 4023TIP3    H136264   1.748   7.438   9.530  0.7988 -1.3808  1.1336
 4023TIP3    H236265   1.898   7.446   9.546  0.8100  1.5300  0.0265
 4024TIP3   OH236266   1.700   0.341   8.773  0.2352  0.2796  0.1124
 4024TIP3    H136267   1.781   0.298   8.748 -1.2613 -2.3130 -0.5960
 4024TIP3    H236268   1.691   0.413   8.710  0.8345 -0.8686 -1.3507
 4025TIP3   OH236269   4.883   7.314   7.740 -0.7741 -0.7427  0.0207
 4025TIP3    H136270   4.932   7.235   7.718 -0.6293 -0.8790  0.7997
 4025TIP3    H236271   4.927   7.384   7.692 -0.7518 -1.0960 -0.4777
 4026TIP3   OH236272   6.549   2.253   7.855  0.4731 -0.5267 -0.4077
 4026TIP3    H136273   6.510   2.309   7.922  1.3922  1.1751 -1.2500
 4026TIP3    H236274   6.475   2.222   7.804 -0.0441  0.0221 -0.0013
 4027TIP3   OH236275   0.260   2.090   6.859 -0.8223  0.0261 -0.0167
 4027TIP3    H136276   0.289   2.003   6.834 -1.0571 -0.3220  0.8836
 4027TIP3    H236277   0.179   2.104   6.809 -0.6126 -0.1382 -0.4030
 4028TIP3   OH236278   5.361   4.426   9.506  0.2549  0.3555  0.0416
 4028TIP3    H136279   5.415   4.502   9.524  0.5301  0.5490 -1.4807
 4028TIP3    H236280   5.271   4.460   9.502  0.0024  0.1075  2.1019
 4029TIP3   OH236281   5.454   2.049   8.858  0.2797  0.4764 -0.0759
 4029TIP3    H136282   5.421   2.103   8.786 -1.6034  0.0421  0.3887
 4029TIP3    H236283   5.528   2.001   8.821  0.4302  1.5127 -1.2059
 4030TIP3   OH236284   5.007   0.593   7.928  0.6811  0.4288 -0.5411
 4030TIP3    H136285   5.059   0.670   7.953 -1.1006  0.9141  2.1217
 4030TIP3    H236286   4.918   0.626   7.918  0.0444 -1.1100 -0.2222
 4031TIP3   OH236287   6.429   6.527   7.301  0.2034  0.6522  0.0991
 4031TIP3    H136288   6.393   6.603   7.347  2.5398  1.8979  0.0344
 4031TIP3    H236289   6.427   6.551   7.209  0.0713  0.2301 -0.0091
 4032TIP3   OH236290   4.171   0.130   9.492  0.0924  0.1387  0.2960
 4032TIP3    H136291   4.147   0.199   9.431  2.2690 -0.9604 -1.9634
 4032TIP3    H236292   4.239   0.169   9.547  2.1219 -0.3641 -1.6933
 4033TIP3   OH236293   6.404   2.436   8.978  0.2067  0.1948  0.5837
 4033TIP3    H136294   6.469   2.456   8.910 -0.2309 -0.4007 -0.0219
 4033TIP3    H236295   6.388   2.521   9.021 -2.3729  1.5306 -2.6060
 4034TIP3   OH236296   5.944   4.027   9.299  0.0069 -0.4228  0.7644
 4034TIP3    H136297   5.963   3.973   9.376 -1.1345  2.1341  3.0422
 4034TIP3    H236298   6.029   4.065   9.276  0.4816 -1.7239  0.2623
 4035TIP3   OH236299   1.156   5.327   8.891 -0.2091  0.0026 -0.1082
 4035TIP3    H136300   1.178   5.345   8.800 -2.1112 -0.3511 -0.6801
 4035TIP3    H236301   1.088   5.390   8.913  0.5879  0.4394  1.2772
 4036TIP3   OH236302   0.241   0.370   8.924  0.4890 -0.0033  0.0830
 4036TIP3    H136303   0.183   0.387   8.998  0.4245  2.5254 -0.4359
 4036TIP3    H236304   0.229   0.277   8.904 -3.3544  0.3486  0.0481
 4037TIP3   OH236305   6.671   7.487   7.894  0.9282  0.0821  0.2247
 4037TIP3    H136306   6.758   7.463   7.861  1.2137  1.3627 -0.0090
 4037TIP3    H236307   6.656   7.575   7.860 -1.1734 -0.7088 -1.0627
 4038TIP3   OH236308   1.865   4.045   7.424 -0.6719 -0.6006 -0.0779
 4038TIP3    H136309   1.938   4.002   7.468 -0.5458 -1.1025 -0.7714
 4038TIP3    H236310   1.877   4.026   7.331 -1.8811 -1.0095 -0.1797
 4039TIP3   OH236311   0.998   2.049   8.065  0.3182 -0.1726  0.5254
 4039TIP3    H136312   0.994   2.140   8.096  1.5288 -0.2883  1.0614
 4039TIP3    H236313   1.059   2.052   7.990 -0.0443 -0.4583  0.2145
 4040TIP3   OH236314   4.887   4.792   8.904 -0.0895 -0.1605  0.0373
 4040TIP3    H136315   4.982   4.796   8.900 -0.0851 -0.0085  0.3098
 4040TIP3    H236316   4.859   4.833   8.821  0.0627  1.0063  0.5386
 4041TIP3   OH236317   1.072   7.373   8.657  0.3541  0.2634  0.1313
 4041TIP3    H136318   1.097   7.281   8.652  1.8671  0.5788  1.0587
 4041TIP3    H236319   0.984   7.377   8.620  0.7282 -1.3531 -1.0297
 4042TIP3   OH236320   5.732   0.779   9.480 -0.1345 -0.5667 -0.2227
 4042TIP3    H136321   5.639   0.777   9.505 -0.5434  0.8168 -1.4624
 4042TIP3    H236322   5.739   0.856   9.423  1.8842 -0.3696  0.2367
 4043TIP3   OH236323   5.155   5.209   7.849  0.1304  0.1474  0.3401
 4043TIP3    H136324   5.154   5.114   7.833 -0.8385 -0.2216  2.2640
 4043TIP3    H236325   5.063   5.234   7.852  0.3805  1.3240 -0.8459
 4044TIP3   OH236326   4.182   4.142   9.643  0.0084  0.6480  0.5543
 4044TIP3    H136327   4.124   4.218   9.640 -0.5630  0.2259  0.6147
 4044TIP3    H236328   4.142   4.084   9.707 -0.0564 -0.0886 -0.1348
 4045TIP3   OH236329   4.745   0.402   9.683 -0.5037  0.5152  0.4034
 4045TIP3    H136330   4.726   0.308   9.679  0.1584  0.3105  1.7133
 4045TIP3    H236331   4.658   0.444   9.684 -0.8086 -0.0960  0.2741
 4046TIP3   OH236332   7.113   6.779   7.413 -0.3354 -0.2317 -0.0806
 4046TIP3    H136333   7.090   6.763   7.321 -1.4516 -0.2108  0.1792
 4046TIP3    H236334   7.092   6.696   7.457 -1.9722  0.4475  0.5223
 4047TIP3   OH236335   2.256   1.386   8.677 -0.2942 -0.1066 -0.4062
 4047TIP3    H136336   2.164   1.412   8.683  0.4880  2.8836  0.6387
 4047TIP3    H236337   2.273   1.338   8.757 -1.3610 -2.4908 -1.5282
 4048TIP3   OH236338   6.290   0.337   7.955 -0.1445 -0.2397  0.0650
 4048TIP3    H136339   6.199   0.341   7.983 -0.8865  1.0602 -2.3099
 4048TIP3    H236340   6.339   0.381   8.025 -2.0549  4.1606 -1.0202
 4049TIP3   OH236341   3.816   2.489   9.076  0.2421  0.0867 -0.0215
 4049TIP3    H136342   3.866   2.425   9.027 -0.4815  1.0013 -2.0767
 4049TIP3    H236343   3.871   2.567   9.077 -0.2621  0.4640 -0.5386
 4050TIP3   OH236344   4.922   5.205   8.312  0.1575 -0.1184  0.6911
 4050TIP3    H136345   4.959   5.165   8.233  1.8869  2.1184  0.2728
 4050TIP3    H236346   4.957   5.152   8.384  0.1633 -1.0023  0.0567
 4051TIP3   OH236347   6.657   0.076   8.763 -0.2818 -0.3594  0.2711
 4051TIP3    H136348   6.594   0.044   8.699  0.2958  0.4980 -0.7650
 4051TIP3    H236349   6.607   0.137   8.819 -0.3849  0.3398 -0.5598
 4052TIP3   OH236350   1.010   0.949   8.655  0.4041  0.1968 -0.2235
 4052TIP3    H136351   1.030   0.964   8.747 -0.4617  0.5973 -0.1006
 4052TIP3    H236352   1.074   0.882   8.628 -0.4855 -1.2770  1.1261
 4053TIP3   OH236353   2.452   0.335   8.652  0.7277 -0.2781 -0.0805
 4053TIP3    H136354   2.451   0.248   8.613  1.4606 -0.2403 -0.1986
 4053TIP3    H236355   2.391   0.386   8.598 -1.4507 -1.2545  1.3388
 4054TIP3   OH236356   0.013   4.423   9.128  0.1213  0.5499  0.0434
 4054TIP3    H136357   0.077   4.371   9.079  0.4034 -0.1807  1.1627
 4054TIP3    H236358  -0.052   4.359   9.157  0.2058  0.8909  1.0107
 4055TIP3   OH236359   6.422   7.126   9.163 -0.5082 -0.2038  0.0746
 4055TIP3    H136360   6.446   7.213   9.133  0.1773 -0.8326 -1.2834
 4055TIP3    H236361   6.502   7.090   9.200 -0.4572 -0.6974 -0.4914
 4056TIP3   OH236362   4.886   4.213   9.289  0.8844  0.7434  0.1431
 4056TIP3    H136363   4.944   4.220   9.365  1.9224  2.0076 -0.7377
 4056TIP3    H236364   4.844   4.127   9.300  2.3485  0.1100  1.2095
 4057TIP3   OH236365   2.603   3.803   7.681  0.3365  0.1748  0.3386
 4057TIP3    H136366   2.639   3.866   7.619 -0.3104  0.1953 -0.0224
 4057TIP3    H236367   2.600   3.851   7.764  1.1938  0.1493  0.3935
 4058TIP3   OH236368   1.789   0.608   8.960 -0.5412 -0.5255 -0.2620
 4058TIP3    H136369   1.852   0.642   8.896  1.9151  0.1376  2.2702
 4058TIP3    H236370   1.704   0.616   8.917  0.7647  1.4942 -2.7659
 4059TIP3   OH236371   5.873   6.317   7.938  0.2617 -0.3019 -0.2883
 4059TIP3    H136372   5.812   6.251   7.903  0.2560 -0.0789 -0.7078
 4059TIP3    H236373   5.831   6.401   7.919  0.1974 -0.1756  0.3802
 4060TIP3   OH236374   7.021   1.113   7.920 -0.2170  0.7136 -0.1346
 4060TIP3    H136375   6.963   1.143   7.850  1.8144  2.8218 -1.0265
 4060TIP3    H236376   7.100   1.083   7.874  0.7316  1.1251  1.1841
 4061TIP3   OH236377   6.335   5.352   8.478  0.2194 -0.3777 -0.4130
 4061TIP3    H136378   6.243   5.325   8.481 -0.5452  2.0904  1.3761
 4061TIP3    H236379   6.334   5.446   8.497  3.1650 -0.3726  0.2968
 4062TIP3   OH236380   0.613   1.760   8.093  0.1301  0.1303 -0.1825
 4062TIP3    H136381   0.526   1.729   8.118 -0.2501  0.0145 -1.5776
 4062TIP3    H236382   0.658   1.683   8.061 -0.1722  0.6185 -1.8978
 4063TIP3   OH236383   2.153   3.944   9.141 -0.2332  0.0850 -0.2107
 4063TIP3    H136384   2.241   3.906   9.147  0.2990  0.7381 -2.8364
 4063TIP3    H236385   2.103   3.879   9.092 -0.4256  0.9387 -1.1637
 4064TIP3   OH236386   5.197   6.973   8.290  0.3793  0.2973 -0.2755
 4064TIP3    H136387   5.183   7.054   8.340  0.5882 -0.4950  1.1259
 4064TIP3    H236388   5.137   6.910   8.330  1.6716 -0.7840  0.0488
 4065TIP3   OH236389   2.150   7.567   8.279 -0.1314  0.2635  0.6340
 4065TIP3    H136390   2.193   7.649   8.254  1.2977 -0.0434  1.9513
 4065TIP3    H236391   2.186   7.502   8.219 -1.7561  0.6284 -0.8586
 4066TIP3   OH236392   5.120   1.951   9.454  0.0985 -0.1996 -0.1394
 4066TIP3    H136393   5.166   1.942   9.371 -0.2454 -1.8150 -0.1872
 4066TIP3    H236394   5.155   1.881   9.509 -0.9738 -0.2968  0.4469
 4067TIP3   OH236395   4.083   0.174   7.473  0.7222  0.1788  0.9935
 4067TIP3    H136396   4.142   0.173   7.397  1.6911  2.1480  1.6448
 4067TIP3    H236397   4.138   0.204   7.545 -0.9709  1.6283  1.7471
 4068TIP3   OH236398   6.344   1.328   8.361 -0.1744 -0.6959 -0.0910
 4068TIP3    H136399   6.256   1.333   8.323 -0.5713 -1.2805  0.7030
 4068TIP3    H236400   6.376   1.241   8.335 -0.9305 -1.6111  1.8262
 4069TIP3   OH236401   2.368   4.202   7.963 -0.4580  0.4713  0.0411
 4069TIP3    H136402   2.426   4.245   7.900 -0.5617  0.0394 -0.3541
 4069TIP3    H236403   2.382   4.250   8.045  1.6463 -0.5933  0.3643
 4070TIP3   OH236404   4.583   6.377   8.369  0.4346 -0.4075 -1.0802
 4070TIP3    H136405   4.644   6.420   8.428  0.9123 -1.3364 -0.8844
 4070TIP3    H236406   4.500   6.423   8.382  0.9297  0.4428 -0.8823
 4071TIP3   OH236407   4.013   1.553   9.668 -0.5799  0.2002 -0.5104
 4071TIP3    H136408   3.926   1.523   9.642 -1.1480 -1.1657  2.5193
 4071TIP3    H236409   3.997   1.622   9.733  0.5576 -0.4952  0.5511
 4072TIP3   OH236410   4.412   3.977   9.146 -0.0426 -0.4289 -0.4433
 4072TIP3    H136411   4.330   3.980   9.098  0.1678 -0.6067 -0.8123
 4072TIP3    H236412   4.389   4.006   9.235 -0.5210 -0.5925 -0.5132
 4073TIP3   OH236413   0.345   1.508   8.682 -0.3165  1.0683  0.0142
 4073TIP3    H136414   0.410   1.439   8.665 -2.7665 -1.5955  0.5402
 4073TIP3    H236415   0.308   1.527   8.596  0.0762  1.4518 -0.0739
 4074TIP3   OH236416   6.900   3.819   9.186  0.0149  0.3839 -0.0759
 4074TIP3    H136417   6.941   3.768   9.116 -0.6738  1.6742 -1.4862
 4074TIP3    H236418   6.809   3.789   9.187  0.2014 -0.1899  0.8401
 4075TIP3   OH236419   3.689   7.310   9.590 -0.1274  0.3197 -0.1065
 4075TIP3    H136420   3.730   7.372   9.529  1.0153  2.6931  2.8206
 4075TIP3    H236421   3.763   7.266   9.633 -0.7955  0.3342  1.0981
 4076TIP3   OH236422   6.800   7.166   6.834  0.1728 -0.2004 -0.3671
 4076TIP3    H136423   6.784   7.224   6.760  2.5277  0.5170 -0.3824
 4076TIP3    H236424   6.718   7.117   6.844 -0.8085  0.9342 -2.2994
 4077TIP3   OH236425   5.729   3.331   8.289 -0.0747  0.1094 -0.1453
 4077TIP3    H136426   5.804   3.390   8.290  0.3394 -0.2422 -2.9296
 4077TIP3    H236427   5.654   3.387   8.271 -0.1598  0.1801  0.4210
 4078TIP3   OH236428   2.559   4.390   8.147  0.8243 -0.7495 -0.1389
 4078TIP3    H136429   2.606   4.376   8.229 -0.1651  0.5887  0.7104
 4078TIP3    H236430   2.466   4.381   8.171  0.3569  2.0740 -0.4874
 4079TIP3   OH236431   5.777   2.443   8.714 -0.3781  0.1254 -0.0081
 4079TIP3    H136432   5.836   2.446   8.639 -0.4854  1.6149 -0.0545
 4079TIP3    H236433   5.690   2.428   8.675 -0.8236  3.2055 -0.5011
 4080TIP3   OH236434   3.540   5.082   9.331 -0.0456 -0.0912  0.0111
 4080TIP3    H136435   3.533   5.000   9.282  0.7159 -0.0270 -0.2065
 4080TIP3    H236436   3.631   5.087   9.359  0.3164  1.4276 -1.2854
 4081TIP3   OH236437   5.829   6.336   8.500 -0.5600  0.0563  0.0024
 4081TIP3    H136438   5.870   6.420   8.479 -2.1442  0.1526 -3.6573
 4081TIP3    H236439   5.868   6.275   8.438 -0.9551 -1.4471  1.1892
 4082TIP3   OH236440   7.509   2.649   6.831  0.0398 -0.0199  0.0196
 4082TIP3    H136441   7.582   2.606   6.876 -0.0388  0.4181  0.5782
 4082TIP3    H236442   7.431   2.612   6.873 -0.0382  0.2077  0.0766
 4083TIP3   OH236443   2.659   7.070   7.679  0.0460 -0.6164  0.4573
 4083TIP3    H136444   2.725   7.010   7.646  0.1113 -0.5860  0.5330
 4083TIP3    H236445   2.657   7.141   7.616  0.9257 -0.0320  1.0755
 4084TIP3   OH236446   1.459   3.824   8.067  0.0623  0.0853 -0.3459
 4084TIP3    H136447   1.448   3.735   8.100  0.1642 -0.1519 -0.9413
 4084TIP3    H236448   1.528   3.816   8.001  1.7903  1.0093  1.2325
 4085TIP3   OH236449   5.524   4.536   9.266 -0.4573 -0.6518  0.1987
 4085TIP3    H136450   5.493   4.501   9.182 -0.0100  1.9212 -1.1267
 4085TIP3    H236451   5.498   4.470   9.330 -0.2579 -3.0354 -2.0034
 4086TIP3   OH236452   4.539   0.565   9.579 -0.5781 -0.3594 -0.1073
 4086TIP3    H136453   4.485   0.643   9.585  2.4384  1.8248  1.3833
 4086TIP3    H236454   4.601   0.584   9.508  0.3414 -1.2750  0.4159
 4087TIP3   OH236455   1.182   5.649   9.042  0.0543  0.4119 -0.0507
 4087TIP3    H136456   1.234   5.676   8.966  0.0866 -0.8064 -0.4719
 4087TIP3    H236457   1.244   5.603   9.099 -0.3317 -0.1089 -0.0497
 4088TIP3   OH236458   6.050   6.134   8.545  0.5181 -0.5146 -0.3895
 4088TIP3    H136459   6.005   6.094   8.620  0.4694 -1.0936 -0.7178
 4088TIP3    H236460   6.085   6.216   8.579  1.8260 -1.4632  0.7132
 4089TIP3   OH236461   2.380   2.859   8.511  0.3398  0.1076  0.0140
 4089TIP3    H136462   2.290   2.866   8.543  0.3829 -0.5159  0.2983
 4089TIP3    H236463   2.422   2.797   8.571  1.0529  0.6432  0.0810
 4090TIP3   OH236464   4.695   3.936   8.348 -0.3640 -0.2882  0.8474
 4090TIP3    H136465   4.623   3.898   8.399  0.6396 -1.4055  1.4737
 4090TIP3    H236466   4.759   3.962   8.414  1.4761 -2.8000  0.1854
 4091TIP3   OH236467   1.937   6.661   8.921 -0.2424  0.8944  0.2883
 4091TIP3    H136468   1.864   6.609   8.887 -1.1787  2.3514 -0.0251
 4091TIP3    H236469   1.930   6.652   9.016  1.7878 -2.3844  0.3088
 4092TIP3   OH236470   1.543   7.159   8.483 -0.1088  0.5944 -0.0417
 4092TIP3    H136471   1.530   7.248   8.514  3.4906  1.7231 -1.2929
 4092TIP3    H236472   1.490   7.153   8.403 -0.1854  1.7154 -0.0876
 4093TIP3   OH236473   4.248   0.709   9.518 -0.2913 -0.0154 -0.5593
 4093TIP3    H136474   4.256   0.746   9.606 -0.9611  1.5373 -1.1160
 4093TIP3    H236475   4.252   0.785   9.460 -0.1051 -0.9917 -1.8613
 4094TIP3   OH236476   2.911   3.167   7.597  0.3374  0.2110 -0.5468
 4094TIP3    H136477   2.885   3.252   7.560  0.0006  0.0568 -0.6740
 4094TIP3    H236478   2.918   3.183   7.691  1.6598  0.7236 -0.7137
 4095TIP3   OH236479   6.926   2.602   8.309  0.0169 -0.1432  0.0684
 4095TIP3    H136480   6.850   2.659   8.324  0.9308  0.7137  1.6716
 4095TIP3    H236481   7.002   2.660   8.318  0.9851 -1.5644  1.6894
 4096TIP3   OH236482   0.387   2.646   7.873  0.2285 -0.0525  0.6834
 4096TIP3    H136483   0.363   2.712   7.808 -1.6952 -0.0339  1.3355
 4096TIP3    H236484   0.399   2.696   7.954 -0.3223 -0.3766  0.9742
 4097TIP3   OH236485   4.924   5.132   7.598  0.0603 -0.3996 -0.0674
 4097TIP3    H136486   4.932   5.059   7.659 -0.8681 -1.0379 -0.6726
 4097TIP3    H236487   5.002   5.125   7.542 -0.6228 -1.7276 -0.9259
 4098TIP3   OH236488   6.694   4.083   7.989 -0.3850 -0.5601  0.0014
 4098TIP3    H136489   6.756   4.012   7.971 -0.4076 -0.7250  0.5444
 4098TIP3    H236490   6.647   4.054   8.068 -0.1639  0.2055  0.4247
 4099TIP3   OH236491   4.239   3.177   9.105 -0.1253  0.0589  0.0624
 4099TIP3    H136492   4.259   3.120   9.031  2.4106 -0.0657  0.7304
 4099TIP3    H236493   4.232   3.118   9.180  2.3868  0.4542  0.7365
 4100TIP3   OH236494   7.476   0.176   8.504  0.2742 -0.1897 -0.3898
 4100TIP3    H136495   7.395   0.168   8.454 -0.8077  1.5077  0.9851
 4100TIP3    H236496   7.529   0.238   8.455 -1.5084  2.8884  1.2607
 4101TIP3   OH236497   1.498   6.542   8.611  0.5090  0.1226 -0.5291
 4101TIP3    H136498   1.555   6.571   8.682  1.2205  0.5465 -1.2621
 4101TIP3    H236499   1.434   6.613   8.602  0.0451 -0.2094  0.0831
 4102TIP3   OH236500   4.595   6.167   8.988 -0.5220 -0.3566 -0.3078
 4102TIP3    H136501   4.520   6.126   9.031 -0.8552 -1.3701 -1.7535
 4102TIP3    H236502   4.562   6.191   8.901  0.5576  0.1153 -0.6064
 4103TIP3   OH236503   7.532   7.090   9.352 -0.1507 -0.2094  0.0097
 4103TIP3    H136504   7.497   7.008   9.316  2.0530 -1.0869 -0.2775
 4103TIP3    H236505   7.545   7.071   9.445 -1.0771  0.3605  0.2681
 4104TIP3   OH236506   3.660   5.821   6.547 -0.2170 -0.0366  0.0306
 4104TIP3    H136507   3.671   5.861   6.634  0.2398  1.4602 -0.6915
 4104TIP3    H236508   3.566   5.807   6.539 -0.2161 -0.6744  0.9640
 4105TIP3   OH236509   7.645   7.258   8.045 -0.1758  0.3036  0.1163
 4105TIP3    H136510   7.698   7.316   8.101  1.6192  0.0910 -1.2663
 4105TIP3    H236511   7.610   7.193   8.105 -0.6346  1.6709  1.4068
 4106TIP3   OH236512   6.302   4.011   8.747  0.8779 -0.4248 -0.1359
 4106TIP3    H136513   6.263   3.934   8.705 -0.5046 -0.5500  1.3120
 4106TIP3    H236514   6.366   4.042   8.683 -0.8845 -0.7929 -2.2109
 4107TIP3   OH236515   5.165   4.789   7.274 -0.4017  0.4432 -0.3047
 4107TIP3    H136516   5.245   4.759   7.232 -0.3671  0.6782 -0.4056
 4107TIP3    H236517   5.096   4.736   7.235 -0.1092 -0.9968  1.0265
 4108TIP3   OH236518   1.114   4.033   7.381  0.2430  0.2447 -0.1772
 4108TIP3    H136519   1.094   3.939   7.372  0.8582  0.2482 -1.8700
 4108TIP3    H236520   1.169   4.038   7.459  1.0989 -0.9595 -0.6664
 4109TIP3   OH236521   3.673   0.327   8.601  0.4001  0.6350 -0.2700
 4109TIP3    H136522   3.691   0.371   8.517  0.1118  1.5287  0.1203
 4109TIP3    H236523   3.683   0.396   8.666 -1.4487  0.4717  0.2529
 4110TIP3   OH236524   6.185   3.296   8.403 -0.2998 -0.0874 -0.4553
 4110TIP3    H136525   6.228   3.363   8.457 -0.8989 -0.3340  0.3460
 4110TIP3    H236526   6.125   3.252   8.463 -0.2125 -1.0715 -1.0760
 4111TIP3   OH236527   6.816   4.252   9.047  0.2243  0.2247  0.0520
 4111TIP3    H136528   6.905   4.287   9.051 -0.1636  1.1478  0.9305
 4111TIP3    H236529   6.805   4.203   9.129  0.1622 -0.5019 -0.3815
 4112TIP3   OH236530   4.248   4.291   7.792 -0.9834 -0.1776  0.6733
 4112TIP3    H136531   4.289   4.217   7.747  0.2513  1.5827 -1.3105
 4112TIP3    H236532   4.173   4.253   7.837 -0.2003 -2.6808  0.0568
 4113TIP3   OH236533   6.649   6.265   8.565  0.0600  0.4139  0.3966
 4113TIP3    H136534   6.678   6.185   8.521 -0.7952 -0.2906  1.0736
 4113TIP3    H236535   6.595   6.310   8.500 -0.7645 -0.3612  0.5254
 4114TIP3   OH236536   3.630   2.519   7.786 -0.1946  0.4637  0.5221
 4114TIP3    H136537   3.641   2.583   7.857  1.0636 -0.3590  1.1046
 4114TIP3    H236538   3.662   2.436   7.823 -0.3748 -0.1793 -0.7081
 4115TIP3   OH236539   2.063   7.452   8.514  0.2430  0.1188  0.4766
 4115TIP3    H136540   1.969   7.455   8.493 -0.0205  0.3877  1.5958
 4115TIP3    H236541   2.107   7.483   8.435 -0.5626 -0.8488 -0.3731
 4116TIP3   OH236542   2.106   4.547   9.003  0.4826  0.1340 -0.4595
 4116TIP3    H136543   2.053   4.502   9.069  1.0881 -0.7097 -0.5360
 4116TIP3    H236544   2.164   4.604   9.053  0.8727 -0.4311 -0.2541
 4117TIP3   OH236545   4.859   5.703   8.083 -0.1677  0.3225 -0.7947
 4117TIP3    H136546   4.801   5.655   8.142 -0.7383  0.5943 -1.1152
 4117TIP3    H236547   4.930   5.734   8.139 -0.0544 -0.4588 -0.4921
 4118TIP3   OH236548   6.781   0.371   8.605 -0.1103  0.1709 -0.0868
 4118TIP3    H136549   6.766   0.388   8.698  0.0651 -0.9004  0.1591
 4118TIP3    H236550   6.835   0.444   8.575  0.0722  0.3747  0.7195
 4119TIP3   OH236551   3.704   0.769   6.809 -0.2769  0.3934 -0.4978
 4119TIP3    H136552   3.717   0.861   6.833  2.2707 -0.0161 -0.0649
 4119TIP3    H236553   3.732   0.719   6.885 -2.5450 -0.8140 -0.3440
 4120TIP3   OH236554   6.153   2.058   8.952 -0.1199 -0.5999 -0.3487
 4120TIP3    H136555   6.153   2.112   8.872  0.5598 -0.4449 -0.2538
 4120TIP3    H236556   6.072   2.008   8.947 -0.8825  0.6103 -0.3203
 4121TIP3   OH236557   7.592   7.352   7.342 -0.0601  0.0635 -0.4002
 4121TIP3    H136558   7.517   7.312   7.298 -0.5782 -0.9396  1.2921
 4121TIP3    H236559   7.607   7.296   7.418  2.5015  0.1596 -0.7560
 4122TIP3   OH236560   2.133   2.854   7.413 -0.1331  0.2539 -0.1499
 4122TIP3    H136561   2.115   2.762   7.395  0.3308  0.1245  0.0370
 4122TIP3    H236562   2.055   2.885   7.459 -1.1351  0.4635 -1.9078
 4123TIP3   OH236563   5.326   5.169   8.265  0.3060 -0.0257 -0.2360
 4123TIP3    H136564   5.239   5.131   8.252 -0.3900  1.3778  0.1139
 4123TIP3    H236565   5.312   5.241   8.327  1.8827 -0.3576  0.5512
 4124TIP3   OH236566   3.703   4.066   9.350  0.4137 -0.5490 -0.5135
 4124TIP3    H136567   3.692   3.971   9.344  0.3943 -0.5334 -0.7400
 4124TIP3    H236568   3.783   4.078   9.400 -0.0682 -0.6767  0.3185
 4125TIP3   OH236569   0.516   2.473   7.496  0.0124 -0.1379  0.1368
 4125TIP3    H136570   0.532   2.412   7.423  0.4867 -0.2563  0.3375
 4125TIP3    H236571   0.546   2.558   7.463 -0.7540  0.0209 -0.1846
 4126TIP3   OH236572   4.903   1.942   8.690 -0.7699  0.5886  0.0813
 4126TIP3    H136573   4.862   1.857   8.704 -0.4195  0.4398  0.2251
 4126TIP3    H236574   4.861   2.000   8.754 -0.9890  0.5186  0.0018
 4127TIP3   OH236575   0.278   1.350   6.933 -0.4310  0.4536 -0.5263
 4127TIP3    H136576   0.186   1.347   6.905 -0.3661  1.9133 -0.9786
 4127TIP3    H236577   0.323   1.292   6.872 -1.1360 -0.8304  0.1302
 4128TIP3   OH236578   1.972   4.312   7.068 -0.0607  0.3393 -0.0874
 4128TIP3    H136579   1.984   4.392   7.119  1.6644  0.5851 -0.8108
 4128TIP3    H236580   1.954   4.342   6.979 -1.1945 -0.0915 -0.0199
 4129TIP3   OH236581   2.595   5.587   8.712  0.3312 -0.2703 -0.5835
 4129TIP3    H136582   2.618   5.501   8.675 -0.3952 -0.7651  0.0857
 4129TIP3    H236583   2.504   5.578   8.739  0.6665  0.2297  0.8339
 4130TIP3   OH236584   2.512   2.614   7.777 -0.2912  0.3835 -0.0683
 4130TIP3    H136585   2.491   2.548   7.843  2.3128  0.5165  1.0075
 4130TIP3    H236586   2.578   2.572   7.722  0.0064  1.4454 -0.5416
 4131TIP3   OH236587   7.394   1.656   7.858  0.1924 -0.4758  0.3311
 4131TIP3    H136588   7.309   1.690   7.829  0.7408  1.7324  1.0706
 4131TIP3    H236589   7.402   1.571   7.816 -2.2125 -0.5702 -0.0568
 4132TIP3   OH236590   3.220   6.078   8.842  0.3612  0.0418  0.6080
 4132TIP3    H136591   3.199   6.074   8.935 -0.0227 -1.9062  0.4780
 4132TIP3    H236592   3.158   6.018   8.800  0.7575  0.6090 -0.8679
 4133TIP3   OH236593   4.404   5.047   8.183 -0.1746 -0.2396  0.2623
 4133TIP3    H136594   4.495   5.061   8.207 -0.1730  0.9800 -0.3607
 4133TIP3    H236595   4.404   4.965   8.134  0.7705  0.2755 -0.6386
 4134TIP3   OH236596   4.418   3.173   8.441 -0.1801  0.1919  0.5550
 4134TIP3    H136597   4.333   3.158   8.483 -0.7283 -2.7602 -1.3182
 4134TIP3    H236598   4.473   3.100   8.470  0.2293 -0.4806 -1.7120
 4135TIP3   OH236599   0.197   6.290   9.424  0.5045 -0.8712 -0.0372
 4135TIP3    H136600   0.160   6.319   9.340  1.7406 -0.1456 -0.3510
 4135TIP3    H236601   0.180   6.363   9.484  0.0014 -1.2148  0.2490
 4136TIP3   OH236602   1.000   5.942   7.792  0.1602 -0.7668 -0.1431
 4136TIP3    H136603   0.913   5.973   7.764  0.7770  0.2173 -1.0300
 4136TIP3    H236604   1.016   5.865   7.738  0.9046  0.5372 -1.8866
 4137TIP3   OH236605   6.632   6.595   7.698  0.8349  0.5812 -0.0082
 4137TIP3    H136606   6.589   6.542   7.631  2.5095 -1.0257  0.1101
 4137TIP3    H236607   6.568   6.600   7.769 -0.9119  2.1834 -1.5844
 4138TIP3   OH236608   3.230   1.658   8.526 -0.0840 -0.1393  0.0420
 4138TIP3    H136609   3.211   1.676   8.618 -2.0227 -0.6195 -0.2210
 4138TIP3    H236610   3.145   1.637   8.487  0.8319 -0.9762 -1.6359
 4139TIP3   OH236611   4.666   0.085   7.638  0.0297 -0.4049 -0.2652
 4139TIP3    H136612   4.719   0.075   7.717 -0.2647  1.9563  0.2840
 4139TIP3    H236613   4.683   0.004   7.588  3.2318 -0.2798  0.3853
 4140TIP3   OH236614   5.596   6.023   8.212  0.5072 -0.6631 -0.1148
 4140TIP3    H136615   5.689   6.023   8.189  0.4212  1.5629 -0.7012
 4140TIP3    H236616   5.582   6.107   8.255 -1.6604  0.0474 -2.0209
 4141TIP3   OH236617   2.954   6.740   7.641 -0.1983  0.8516  0.3108
 4141TIP3    H136618   2.990   6.661   7.680 -0.7503  0.3688 -0.1227
 4141TIP3    H236619   2.873   6.755   7.689 -0.3768  0.8239  0.0229
 4142TIP3   OH236620   0.820   3.726   8.597 -0.3499 -0.8861 -0.0214
 4142TIP3    H136621   0.912   3.715   8.570 -0.6545  0.6184 -1.9635
 4142TIP3    H236622   0.774   3.655   8.552 -0.3801 -0.4315 -0.7348
 4143TIP3   OH236623   6.747   6.762   9.063 -0.5135 -0.4942 -0.2389
 4143TIP3    H136624   6.652   6.767   9.074 -1.0307 -1.4682 -3.2681
 4143TIP3    H236625   6.760   6.748   8.969  2.6543 -0.3899  0.0550
 4144TIP3   OH236626   6.037   0.948   6.944  0.3217 -0.2104  0.2333
 4144TIP3    H136627   5.998   1.035   6.938 -0.2888 -0.5634 -1.6221
 4144TIP3    H236628   6.026   0.911   6.856  0.5811 -2.1524  0.9732
 4145TIP3   OH236629   5.195   4.061   9.025 -0.1816 -0.0585 -0.0035
 4145TIP3    H136630   5.250   4.115   9.082  0.7844 -1.3755  0.3720
 4145TIP3    H236631   5.139   4.011   9.084 -0.4583 -0.1032 -0.2978
 4146TIP3   OH236632   3.429   0.320   7.738  0.4047  0.0005 -0.7320
 4146TIP3    H136633   3.402   0.333   7.829 -1.5353 -0.4155 -1.1914
 4146TIP3    H236634   3.487   0.245   7.741  1.1579  0.5887  0.2700
 4147TIP3   OH236635   4.340   2.850   7.479 -0.5346 -0.2212 -0.2020
 4147TIP3    H136636   4.314   2.866   7.388 -0.9272  0.2795 -0.0075
 4147TIP3    H236637   4.351   2.755   7.484 -0.1332 -0.2224 -0.8675
 4148TIP3   OH236638   0.473   2.697   9.212  0.1514  0.2028  0.2058
 4148TIP3    H136639   0.526   2.718   9.289  0.9558  0.6513 -0.4591
 4148TIP3    H236640   0.408   2.634   9.245 -0.0981  1.0735  1.4460
 4149TIP3   OH236641   4.916   3.624   9.107 -0.5081  0.1031 -0.6461
 4149TIP3    H136642   4.844   3.666   9.061 -0.1657 -0.5981 -1.8691
 4149TIP3    H236643   4.876   3.551   9.154 -1.2928  2.2753  2.3685
 4150TIP3   OH236644   1.512   3.937   8.695  0.3154 -0.4239  0.2219
 4150TIP3    H136645   1.542   4.023   8.725 -1.3163 -0.1219  1.1281
 4150TIP3    H236646   1.503   3.947   8.600  0.8459  0.1628  0.2239
 4151TIP3   OH236647   1.292   2.477   7.843  0.1052  0.2104 -0.0478
 4151TIP3    H136648   1.272   2.568   7.861  1.9618  1.0855 -1.9310
 4151TIP3    H236649   1.387   2.470   7.857  0.1845 -1.1199 -0.9899
 4152TIP3   OH236650   7.523   2.937   8.421 -0.6866 -0.4818  0.1997
 4152TIP3    H136651   7.484   2.875   8.358 -0.6617 -0.4243  0.1279
 4152TIP3    H236652   7.618   2.929   8.406 -0.7183  0.4046 -0.6034
 4153TIP3   OH236653   4.937   2.780   9.799 -0.1500 -0.9776  0.2550
 4153TIP3    H136654   4.951   2.769   9.705 -1.3859  1.7965 -0.3887
 4153TIP3    H236655   5.023   2.805   9.834 -0.1961  0.7982 -0.7509
 4154TIP3   OH236656   5.362   6.842   7.899 -0.7518  0.4153 -0.2409
 4154TIP3    H136657   5.424   6.816   7.967 -0.7833  0.2444 -0.2761
 4154TIP3    H236658   5.309   6.764   7.885 -0.8715  0.5115 -0.3240
 4155TIP3   OH236659   1.431   6.254   8.055 -0.3471  0.3376  0.0778
 4155TIP3    H136660   1.401   6.172   8.016  0.1228 -0.3462  1.1079
 4155TIP3    H236661   1.526   6.245   8.059 -0.2573  1.0867 -0.1036
 4156TIP3   OH236662   4.375   0.165   7.562 -0.0752 -0.2730  0.1498
 4156TIP3    H136663   4.465   0.136   7.550 -0.1144 -0.1785 -0.3837
 4156TIP3    H236664   4.381   0.258   7.582 -0.0084 -0.4360  0.9142
 4157TIP3   OH236665   3.344   2.140   7.097  0.7318  0.1232 -0.4634
 4157TIP3    H136666   3.250   2.133   7.083  0.6880 -0.5490  0.1034
 4157TIP3    H236667   3.383   2.122   7.012  0.4222 -2.1207 -0.1876
 4158TIP3   OH236668   3.346   0.313   9.393  0.5129  0.2733 -0.1877
 4158TIP3    H136669   3.419   0.272   9.348  0.2355 -0.9607  0.4348
 4158TIP3    H236670   3.368   0.306   9.486  0.4933  1.6384 -0.0617
 4159TIP3   OH236671   7.457   1.776   8.092 -0.4052  0.1801 -0.2327
 4159TIP3    H136672   7.444   1.762   7.999  2.8951 -0.3206 -0.7304
 4159TIP3    H236673   7.439   1.691   8.132 -2.7494  0.6282 -0.2170
 4160TIP3   OH236674   3.822   2.072   8.300  0.8598  0.3028 -0.4938
 4160TIP3    H136675   3.821   2.132   8.376 -1.5257  0.9151 -0.9274
 4160TIP3    H236676   3.841   1.986   8.338 -0.9347  0.4789  0.9612
 4161TIP3   OH236677   1.870   2.880   8.819  0.3265 -0.4273  0.0467
 4161TIP3    H136678   1.795   2.917   8.773 -0.1440 -0.1735  0.9876
 4161TIP3    H236679   1.937   2.948   8.813 -0.5065  0.6186  1.7032
 4162TIP3   OH236680   2.611   7.525   7.424 -0.0237  0.1416 -0.2007
 4162TIP3    H136681   2.700   7.557   7.438 -0.1897  0.2835  0.5337
 4162TIP3    H236682   2.557   7.604   7.428 -0.3184 -0.0991  0.5775
 4163TIP3   OH236683   3.736   4.038   8.775 -0.2407  0.2264 -0.3779
 4163TIP3    H136684   3.769   3.948   8.775 -0.0415  0.3023 -0.0054
 4163TIP3    H236685   3.661   4.035   8.715 -2.8553 -1.1597  2.6976
 4164TIP3   OH236686   4.748   6.871   8.920 -0.1293 -0.1759  0.2413
 4164TIP3    H136687   4.709   6.867   8.833 -1.0736 -1.3616  0.6882
 4164TIP3    H236688   4.691   6.816   8.974  0.0611  1.0418  1.7543
 4165TIP3   OH236689   0.358   3.222   8.616 -0.0398  0.2225  0.1288
 4165TIP3    H136690   0.394   3.201   8.702  2.1258  2.2074 -0.1864
 4165TIP3    H236691   0.292   3.288   8.634  1.2855  1.5731  0.2425
 4166TIP3   OH236692   4.785   4.049   7.523 -0.2751  0.7625 -0.9220
 4166TIP3    H136693   4.698   4.032   7.559  0.2031  0.9529  0.3674
 4166TIP3    H236694   4.811   3.967   7.481 -0.6265  0.3533 -0.3497
 4167TIP3   OH236695   4.853   4.375   7.234  0.5205  0.4998  0.7171
 4167TIP3    H136696   4.784   4.385   7.168 -0.8717 -0.1212  2.0264
 4167TIP3    H236697   4.882   4.285   7.224  0.4359  0.4609  0.8176
 4168TIP3   OH236698   4.559   3.442   7.263 -0.3771 -0.7552  0.1978
 4168TIP3    H136699   4.577   3.498   7.187 -1.6586  2.2881  1.9387
 4168TIP3    H236700   4.645   3.413   7.293  0.1677 -1.8726 -2.2146
 4169TIP3   OH236701   0.715   1.004   9.527  0.2599 -0.2216 -0.4489
 4169TIP3    H136702   0.789   1.035   9.579 -0.1445  0.9397 -0.5201
 4169TIP3    H236703   0.652   1.076   9.531 -1.1985 -1.4642  0.2302
 4170TIP3   OH236704   0.333   4.549   9.343 -0.3681 -0.8280  0.0302
 4170TIP3    H136705   0.277   4.471   9.347 -1.0823 -0.3042  0.8146
 4170TIP3    H236706   0.328   4.578   9.252 -0.9720 -1.0888 -0.0224
 4171TIP3   OH236707   1.625   0.178   8.519  0.5720 -0.2536  0.2396
 4171TIP3    H136708   1.589   0.217   8.599 -0.4755 -0.7620  0.0370
 4171TIP3    H236709   1.718   0.166   8.538  0.2333 -0.8930  1.5958
 4172TIP3   OH236710   4.152   0.513   7.463  0.2372 -0.2839  0.1386
 4172TIP3    H136711   4.221   0.518   7.529  0.5929 -2.6113  0.0068
 4172TIP3    H236712   4.072   0.494   7.513  0.4600 -1.7733 -0.0253
 4173TIP3   OH236713   1.630   7.463   8.992 -0.1988  0.4768  0.2623
 4173TIP3    H136714   1.630   7.368   8.999 -0.7966  0.5758  2.3233
 4173TIP3    H236715   1.712   7.484   8.947  1.2825 -0.9011  2.1497
 4174TIP3   OH236716   0.961   4.316   7.933  0.0380 -0.1770 -0.2711
 4174TIP3    H136717   0.906   4.263   7.876 -1.0078 -0.2626  0.7788
 4174TIP3    H236718   0.939   4.287   8.021  2.1123 -0.5331  0.1889
 4175TIP3   OH236719   0.638   1.996   7.963  0.3992 -0.2035  0.6228
 4175TIP3    H136720   0.550   2.028   7.942  0.1478 -0.2683  1.5375
 4175TIP3    H236721   0.623   1.909   8.001  0.9109 -0.4604  0.2550
 4176TIP3   OH236722   1.823   4.983   8.717  0.0714 -0.1566  0.1654
 4176TIP3    H136723   1.806   5.048   8.785 -0.0068 -0.3091  0.2926
 4176TIP3    H236724   1.736   4.953   8.690  0.0733  0.3394 -0.4309
 4177TIP3   OH236725   0.638   0.435   9.068 -0.1670 -0.5457  0.8573
 4177TIP3    H136726   0.721   0.400   9.034  0.0058 -1.0944  1.7921
 4177TIP3    H236727   0.663   0.481   9.148 -0.4682  1.3215 -0.0686
 4178TIP3   OH236728   5.446   5.135   7.273  0.3599  0.4913  0.3974
 4178TIP3    H136729   5.434   5.227   7.253  0.0303  0.5254  0.7366
 4178TIP3    H236730   5.378   5.090   7.222 -0.7535  0.6145  1.7065
 4179TIP3   OH236731   4.130   1.715   8.942  0.1077 -0.4359  0.3122
 4179TIP3    H136732   4.186   1.727   9.019  0.5245 -2.0369  0.2934
 4179TIP3    H236733   4.049   1.677   8.977 -0.3804  0.4101  0.1426
 4180TIP3   OH236734   0.434   3.877   7.655  0.1093 -0.7099  0.1942
 4180TIP3    H136735   0.428   3.816   7.582 -1.4479  0.0768 -0.3808
 4180TIP3    H236736   0.371   3.844   7.720  1.4714 -1.4005  1.2143
 4181TIP3   OH236737   6.443   5.336   8.844  0.1242  0.1500  0.7872
 4181TIP3    H136738   6.406   5.270   8.902  1.1776  0.5257  1.9180
 4181TIP3    H236739   6.399   5.417   8.868  0.9159  0.4043  1.4525
 4182TIP3   OH236740   2.919   7.199   8.512 -0.3170 -0.3643  0.6373
 4182TIP3    H136741   2.824   7.193   8.503 -0.8050  2.7111  2.3539
 4182TIP3    H236742   2.933   7.227   8.603  1.9328  2.6352 -0.4669
 4183TIP3   OH236743   0.718   2.205   9.300 -0.1609  0.7450 -0.9941
 4183TIP3    H136744   0.800   2.173   9.336 -0.7880  0.4852  0.2368
 4183TIP3    H236745   0.728   2.301   9.298 -0.7570  0.9232  1.5854
 4184TIP3   OH236746   6.976   4.664   8.652  0.5449  0.3899 -0.1553
 4184TIP3    H136747   6.957   4.594   8.589 -0.1692  0.8305 -0.4413
 4184TIP3    H236748   7.051   4.631   8.702  0.1336 -0.6391 -0.1839
 4185TIP3   OH236749   3.757   2.968   8.782  0.0437  0.1358 -0.2150
 4185TIP3    H136750   3.754   3.018   8.863  0.8880  1.8858 -1.2096
 4185TIP3    H236751   3.820   2.898   8.799  0.8228  0.9579  0.3932
 4186TIP3   OH236752   4.128   3.629   8.019  0.0733  0.4939 -0.2769
 4186TIP3    H136753   4.217   3.631   8.054 -0.1369 -0.1368  0.3128
 4186TIP3    H236754   4.129   3.560   7.953 -0.2226 -0.2128  0.4402
 4187TIP3   OH236755   4.561   2.877   8.252 -0.3077 -0.1460 -0.0007
 4187TIP3    H136756   4.513   2.807   8.298 -0.1405  0.9251  1.9221
 4187TIP3    H236757   4.598   2.834   8.175 -3.2130 -1.3534 -0.9035
 4188TIP3   OH236758   2.766   6.848   7.419 -0.3001  0.1129  0.4840
 4188TIP3    H136759   2.737   6.781   7.481 -0.8299 -0.4689 -0.3736
 4188TIP3    H236760   2.782   6.800   7.338  1.2047  0.7279  0.3809
 4189TIP3   OH236761   6.691   3.877   8.889  0.1440  0.3998  0.1209
 4189TIP3    H136762   6.677   3.925   8.970 -0.3013  0.1293  0.2055
 4189TIP3    H236763   6.775   3.909   8.856 -0.4559  1.7508 -0.1775
 4190TIP3   OH236764   5.553   5.848   8.431  0.2376  0.2649 -0.5288
 4190TIP3    H136765   5.517   5.890   8.353 -0.5986  2.4567  0.9443
 4190TIP3    H236766   5.598   5.918   8.478 -0.5281 -0.6239  1.6830
 4191TIP3   OH236767   0.517   6.982   7.765  0.1104 -0.1977 -0.4151
 4191TIP3    H136768   0.548   6.893   7.751  0.1914 -0.4994  1.4010
 4191TIP3    H236769   0.423   6.978   7.745 -0.1518 -1.0380  0.8126
 4192TIP3   OH236770   7.264   1.039   9.239  0.2121  0.2256  0.3215
 4192TIP3    H136771   7.223   1.053   9.154 -0.3146  2.7475  0.9240
 4192TIP3    H236772   7.191   1.036   9.301  0.7097  0.7441  0.9459
 4193TIP3   OH236773   4.867   1.330   7.084  0.0082  0.4014 -0.2555
 4193TIP3    H136774   4.844   1.345   6.992  2.6104 -0.6903 -1.1612
 4193TIP3    H236775   4.869   1.235   7.093 -0.5055  0.4962  1.0471
 4194TIP3   OH236776   7.143   1.924   7.701  0.3686  0.4471  0.2457
 4194TIP3    H136777   7.099   1.867   7.765 -0.9615  0.4166 -0.6461
 4194TIP3    H236778   7.115   1.889   7.616  0.7031  1.5509 -0.3245
 4195TIP3   OH236779   1.278   5.167   7.621  0.4738  0.5721  0.2630
 4195TIP3    H136780   1.185   5.174   7.599  0.1197 -1.1242  1.0274
 4195TIP3    H236781   1.287   5.213   7.704  0.4271  1.1299 -0.0344
 4196TIP3   OH236782   2.402   4.531   6.682  0.5998 -0.2498  0.1760
 4196TIP3    H136783   2.350   4.557   6.757  0.1958 -0.3887 -0.0525
 4196TIP3    H236784   2.451   4.454   6.712  0.4908 -0.2652  0.3142
 4197TIP3   OH236785   6.933   1.827   7.531  0.1824 -0.2365 -0.3274
 4197TIP3    H136786   6.899   1.810   7.443  0.8467  0.5430 -0.7573
 4197TIP3    H236787   6.926   1.743   7.577 -1.2642 -0.3598 -0.7417
 4198TIP3   OH236788   2.148   2.186   8.365 -0.3239 -0.2994 -0.0433
 4198TIP3    H136789   2.071   2.236   8.393 -0.7967 -1.2506  0.4172
 4198TIP3    H236790   2.115   2.129   8.295 -0.0933 -0.8233  0.2665
 4199TIP3   OH236791   3.861   3.396   8.388  0.2450 -0.3513  0.7664
 4199TIP3    H136792   3.949   3.410   8.422  1.2692 -0.4979 -1.6839
 4199TIP3    H236793   3.873   3.362   8.300 -2.2825 -0.4939  0.3781
 4200TIP3   OH236794   3.926   3.035   7.305 -0.0725  0.5177  0.0372
 4200TIP3    H136795   3.955   2.944   7.311 -2.4735 -0.2397  1.6691
 4200TIP3    H236796   4.003   3.083   7.273  2.4184 -1.5218  2.4538
 4201TIP3   OH236797   6.218   1.126   8.154  0.2821  0.0829  0.6631
 4201TIP3    H136798   6.309   1.141   8.131  0.1508 -1.1716 -0.7909
 4201TIP3    H236799   6.169   1.194   8.107  0.2501 -0.8838 -0.7427
 4202TIP3   OH236800   0.088   3.239   9.376 -0.0629 -0.5545 -0.2344
 4202TIP3    H136801   0.004   3.254   9.334  1.0532  2.6331 -1.6274
 4202TIP3    H236802   0.153   3.249   9.306  1.6909  1.7761  1.5409
 4203TIP3   OH236803   0.624   5.562   8.479 -0.1466  0.9614  0.5171
 4203TIP3    H136804   0.681   5.503   8.528  1.2950  2.2669  0.4853
 4203TIP3    H236805   0.675   5.587   8.402 -1.8350  0.0581 -0.9738
 4204TIP3   OH236806   5.355   2.654   9.007 -0.3690 -0.5256 -0.1806
 4204TIP3    H136807   5.325   2.652   9.097  0.8055 -0.6290  0.2356
 4204TIP3    H236808   5.289   2.704   8.959 -1.4508 -1.2348  0.5549
 4205TIP3   OH236809   2.385   1.135   7.025 -0.2321 -0.0803  0.0444
 4205TIP3    H136810   2.374   1.042   7.004 -0.3425 -0.0468 -0.0467
 4205TIP3    H236811   2.469   1.159   6.986  0.0851 -0.2916  0.5814
 4206TIP3   OH236812   3.326   3.627   8.976 -0.3164 -0.0925 -0.1513
 4206TIP3    H136813   3.264   3.690   8.940 -1.5874 -0.3587  1.4412
 4206TIP3    H236814   3.274   3.546   8.986  0.1410 -0.2091  1.5635
 4207TIP3   OH236815   0.965   6.117   9.102 -0.2619 -0.1352 -0.0181
 4207TIP3    H136816   1.034   6.057   9.128 -0.2718 -0.9337 -1.7046
 4207TIP3    H236817   0.984   6.198   9.149  0.5256 -1.0207  1.2490
 4208TIP3   OH236818   3.853   3.536   7.982  0.0434 -0.2894 -0.0686
 4208TIP3    H136819   3.887   3.478   8.051  1.7196  2.1008  1.2603
 4208TIP3    H236820   3.921   3.534   7.914  0.7788  1.0702  0.5878
 4209TIP3   OH236821   2.087   1.946   7.751  0.1557  0.0489  0.1024
 4209TIP3    H136822   2.167   1.986   7.717  0.2461  1.4769  1.8228
 4209TIP3    H236823   2.115   1.860   7.783  0.2726 -0.8851 -2.2770
 4210TIP3   OH236824   5.646   0.054   8.309 -0.4214 -0.4416 -0.7905
 4210TIP3    H136825   5.687  -0.028   8.336 -0.0672  0.1657  0.5766
 4210TIP3    H236826   5.664   0.115   8.380  0.2964  1.1618 -2.2638
 4211TIP3   OH236827   4.385   6.864   7.970 -0.4106 -0.1093 -0.0029
 4211TIP3    H136828   4.293   6.866   7.999 -0.0404  0.1081  1.2471
 4211TIP3    H236829   4.402   6.772   7.950 -0.8070 -0.2096  0.1116
 4212TIP3   OH236830   2.828   2.688   9.452 -0.1274 -0.3513 -0.7472
 4212TIP3    H136831   2.806   2.658   9.541  0.6534  2.3144  0.4498
 4212TIP3    H236832   2.831   2.608   9.400 -2.5623 -1.8388  1.1738
 4213TIP3   OH236833   5.591   5.470   9.167 -0.5013  0.0323 -0.4525
 4213TIP3    H136834   5.502   5.473   9.132 -0.0524 -1.5238 -1.8194
 4213TIP3    H236835   5.590   5.398   9.229 -0.4538  0.7343  0.3871
 4214TIP3   OH236836   5.666   7.196   6.773 -0.6297  0.2426 -0.1612
 4214TIP3    H136837   5.710   7.111   6.768 -1.3117 -0.1518  0.3659
 4214TIP3    H236838   5.725   7.256   6.727 -0.1603 -0.5197 -0.5833
 4215TIP3   OH236839   6.331   2.350   8.036 -0.2431 -0.4219 -0.0570
 4215TIP3    H136840   6.309   2.268   7.993 -1.2245 -0.2854  0.1638
 4215TIP3    H236841   6.288   2.344   8.122  0.5820 -0.1356  0.3897
 4216TIP3   OH236842   2.681   6.074   7.776  0.0984 -0.3563 -0.0344
 4216TIP3    H136843   2.591   6.073   7.809 -0.5145  1.1872 -1.5288
 4216TIP3    H236844   2.734   6.089   7.854 -0.8339 -1.9798  0.9785
 4217TIP3   OH236845   2.847   0.027   7.425 -0.1770 -0.2814  0.1300
 4217TIP3    H136846   2.929   0.077   7.429 -0.6707  0.4837  1.5878
 4217TIP3    H236847   2.804   0.059   7.346 -0.2194  1.2600  0.7220
 4218TIP3   OH236848   6.690   3.788   7.619 -0.1730 -0.0839  0.1410
 4218TIP3    H136849   6.672   3.720   7.683  0.3287  0.0025  0.3783
 4218TIP3    H236850   6.616   3.849   7.628  0.5486  0.6452  1.6144
 4219TIP3   OH236851   4.937   3.262   8.716 -0.0159 -0.0554 -0.0337
 4219TIP3    H136852   4.860   3.277   8.662  0.3346  0.5481 -0.3753
 4219TIP3    H236853   5.005   3.317   8.677  0.0009  1.1105  1.5574
 4220TIP3   OH236854   5.566   2.404   7.765  0.2246 -0.6269 -0.3495
 4220TIP3    H136855   5.646   2.386   7.813 -0.3896 -0.1141  0.9085
 4220TIP3    H236856   5.547   2.496   7.784 -1.1509 -0.9903  0.1354
 4221TIP3   OH236857   3.901   0.257   8.824  0.2629  0.3116  0.2043
 4221TIP3    H136858   3.903   0.301   8.909 -0.4422  1.7331 -0.4720
 4221TIP3    H236859   3.846   0.314   8.770  0.4235 -0.7478 -1.1047
 4222TIP3   OH236860   7.203   0.110   7.386  0.0749 -0.7594 -0.0420
 4222TIP3    H136861   7.134   0.122   7.451  0.8896  0.4092  0.6352
 4222TIP3    H236862   7.167   0.046   7.324 -0.6547 -2.0343  1.6398
 4223TIP3   OH236863   4.136   6.017   7.258 -0.2707  0.2308 -0.3529
 4223TIP3    H136864   4.203   6.085   7.251 -1.1695  1.2619  0.5259
 4223TIP3    H236865   4.065   6.048   7.202 -0.6983  0.0550  0.0796
 4224TIP3   OH236866   1.098   6.909   6.551 -0.5056 -0.2994  0.1192
 4224TIP3    H136867   1.168   6.926   6.488  0.6297 -0.9553  1.1692
 4224TIP3    H236868   1.089   6.991   6.600 -0.1708 -0.3562  0.2741
 4225TIP3   OH236869   6.966   3.670   9.468  0.1356 -0.3215  0.6699
 4225TIP3    H136870   7.060   3.669   9.487  0.1715  0.7525  0.5609
 4225TIP3    H236871   6.941   3.762   9.472 -1.1787 -0.6998  1.9198
 4226TIP3   OH236872   0.525   1.921   9.463 -0.3635 -0.4276  0.7558
 4226TIP3    H136873   0.583   1.880   9.528 -0.2509  0.8935  1.5304
 4226TIP3    H236874   0.449   1.864   9.460  0.1270 -1.1299  1.2067
 4227TIP3   OH236875   7.510   1.924   9.351 -0.2231 -0.5108 -0.4659
 4227TIP3    H136876   7.465   1.872   9.417 -0.3555  1.2481  0.8897
 4227TIP3    H236877   7.582   1.965   9.398  0.9979 -0.8837 -1.9196
 4228TIP3   OH236878   1.160   6.110   7.650 -0.3378  0.5343  0.0481
 4228TIP3    H136879   1.219   6.044   7.613  1.3572  1.6143  0.7276
 4228TIP3    H236880   1.104   6.062   7.711 -0.6526 -0.6200 -1.1099
 4229TIP3   OH236881   4.355   2.083   8.596 -0.3029  0.1717 -0.1118
 4229TIP3    H136882   4.390   2.171   8.581  0.3581 -0.3028 -1.5676
 4229TIP3    H236883   4.431   2.032   8.625 -0.7608  0.1417  1.0970
 4230TIP3   OH236884   1.619   0.523   9.305 -0.5950  0.4350  0.0036
 4230TIP3    H136885   1.651   0.611   9.282 -0.8599  1.2251  2.3414
 4230TIP3    H236886   1.596   0.530   9.398 -1.9346 -1.7543 -0.1000
 4231TIP3   OH236887   7.318   4.938   7.958  0.0515  0.5204  0.4059
 4231TIP3    H136888   7.282   4.864   8.007  0.5032  0.5383  0.7796
 4231TIP3    H236889   7.253   5.007   7.968  0.6632  0.9112  2.0007
 4232TIP3   OH236890   1.728   0.157   7.434  0.3247  0.0175 -0.6645
 4232TIP3    H136891   1.715   0.152   7.529  0.2118 -0.3573 -0.6980
 4232TIP3    H236892   1.651   0.204   7.402  1.3342  2.0249 -0.3575
 4233TIP3   OH236893   0.559   4.721   9.338  0.5656 -0.4283  0.1331
 4233TIP3    H136894   0.505   4.653   9.378  0.5009 -1.6163 -1.8239
 4233TIP3    H236895   0.510   4.802   9.352 -1.0644 -1.2722 -0.3604
 4234TIP3   OH236896   1.430   2.747   9.012 -0.0090  0.0958  0.6063
 4234TIP3    H136897   1.448   2.726   8.920 -0.5840 -0.2340  0.5645
 4234TIP3    H236898   1.358   2.689   9.036 -2.2496  2.5334  0.2148
 4235TIP3   OH236899   2.368   5.965   9.502 -0.1024  0.2155 -0.2538
 4235TIP3    H136900   2.364   5.951   9.596  2.1797  1.0011  0.0161
 4235TIP3    H236901   2.414   5.889   9.468 -0.7539  0.0232 -0.7413
 4236TIP3   OH236902   1.453   6.885   9.209 -0.4777 -1.0082 -0.0234
 4236TIP3    H136903   1.473   6.963   9.157  0.4376  0.4390  2.3593
 4236TIP3    H236904   1.400   6.917   9.281 -0.4729 -2.6980  0.7860
 4237TIP3   OH236905   3.243   0.452   7.586  0.0290 -0.4426  0.5384
 4237TIP3    H136906   3.216   0.529   7.634  1.9979  0.2338  0.6388
 4237TIP3    H236907   3.318   0.418   7.634  0.0561 -1.6079 -0.2732
 4238TIP3   OH236908   7.571   6.516   9.073  1.6239 -0.0225  0.1280
 4238TIP3    H136909   7.590   6.604   9.039  0.4778 -0.1036 -0.7879
 4238TIP3    H236910   7.497   6.486   9.020  1.7868 -1.4106  0.6612
 4239TIP3   OH236911   6.125   1.051   9.532  0.0854  1.0380 -0.4871
 4239TIP3    H136912   6.214   1.033   9.562  0.5638  0.3717 -2.2043
 4239TIP3    H236913   6.130   1.140   9.497  0.4871  0.4764 -1.9331
 4240TIP3   OH236914   3.728   3.406   7.781  0.5266 -0.3499 -0.3598
 4240TIP3    H136915   3.700   3.479   7.726  0.9731 -0.1790 -0.3675
 4240TIP3    H236916   3.731   3.443   7.870  0.5007 -0.4280 -0.3264
 4241TIP3   OH236917   2.123   2.768   8.170 -0.0777  0.0397 -0.1001
 4241TIP3    H136918   2.121   2.727   8.084 -2.4728 -0.3350  0.0785
 4241TIP3    H236919   2.208   2.743   8.206  0.9338  0.1177 -2.2708
 4242TIP3   OH236920   4.656   3.558   7.018 -0.7070 -0.4911 -0.1851
 4242TIP3    H136921   4.637   3.478   6.969 -2.4354  0.3155 -0.9215
 4242TIP3    H236922   4.679   3.622   6.951 -0.9642  0.0652  0.2512
 4243TIP3   OH236923   5.956   5.722   8.666  0.0109 -0.0103  0.7007
 4243TIP3    H136924   5.943   5.628   8.659  2.6804 -0.3552 -0.5978
 4243TIP3    H236925   5.968   5.738   8.760  1.4230 -1.3007  0.7729
 4244TIP3   OH236926   0.021   3.930   9.240 -0.3537  0.0275 -0.0188
 4244TIP3    H136927   0.034   3.990   9.166 -0.3294 -1.4101 -1.2388
 4244TIP3    H236928  -0.074   3.917   9.243 -0.3292 -0.1475  0.0070
 4245TIP3   OH236929   6.145   7.307   8.687 -0.3561  0.5555 -0.3851
 4245TIP3    H136930   6.177   7.332   8.774  1.2242 -3.7910  0.5658
 4245TIP3    H236931   6.222   7.311   8.631 -0.3022 -0.7661 -0.4483
 4246TIP3   OH236932   1.047   3.571   7.906  0.3927  0.1119 -0.1671
 4246TIP3    H136933   1.115   3.568   7.839  1.1978 -0.4618  0.6447
 4246TIP3    H236934   0.985   3.502   7.881  1.1075 -0.6427  0.0871
 4247TIP3   OH236935   5.595   2.754   8.879  0.2113 -0.0430 -0.1756
 4247TIP3    H136936   5.531   2.700   8.925  1.3160 -1.9280 -0.7578
 4247TIP3    H236937   5.680   2.720   8.907  0.9348  0.8832 -1.1595
 4248TIP3   OH236938   7.021   7.656   7.182  0.4132 -0.1704 -0.3586
 4248TIP3    H136939   7.037   7.714   7.108 -0.3812  2.7785  1.5857
 4248TIP3    H236940   6.928   7.669   7.202  0.3804 -1.6545  0.5609
 4249TIP3   OH236941   6.524   6.079   7.880 -0.1054 -0.7598 -0.0673
 4249TIP3    H136942   6.609   6.115   7.857 -0.3852 -0.3402 -0.4517
 4249TIP3    H236943   6.477   6.151   7.921  0.2637 -1.4024  1.5432
 4250TIP3   OH236944   0.019   3.649   9.042 -0.3797  0.0409 -0.3936
 4250TIP3    H136945   0.067   3.612   9.116  0.2037  0.0984 -0.7402
 4250TIP3    H236946   0.074   3.722   9.013 -0.8523  0.3282 -0.5685
 4251TIP3   OH236947   6.386   6.256   8.064 -0.3360  0.1640  0.1680
 4251TIP3    H136948   6.297   6.291   8.056 -0.0464  0.6126 -1.3822
 4251TIP3    H236949   6.395   6.236   8.158 -1.2911  2.1625  0.7407
 4252TIP3   OH236950   2.073   5.093   7.878  0.4808 -0.1128  0.4883
 4252TIP3    H136951   2.052   5.000   7.881  1.3884 -0.4635 -2.0280
 4252TIP3    H236952   2.040   5.128   7.961 -0.2433 -2.5756  1.3062
 4253TIP3   OH236953   0.740   6.053   8.536 -0.6244 -0.3416 -0.0889
 4253TIP3    H136954   0.699   5.977   8.576 -1.9350 -0.5220 -1.6781
 4253TIP3    H236955   0.771   6.022   8.451 -1.3594  0.9165 -0.8546
 4254TIP3   OH236956   7.281   7.289   7.802  0.0206 -0.1417  0.4516
 4254TIP3    H136957   7.194   7.277   7.839  0.1579  1.9746  1.5891
 4254TIP3    H236958   7.317   7.200   7.798 -1.9362 -0.9942  0.5082
 4255TIP3   OH236959   4.197   1.658   9.473  0.1228  0.1667 -0.2948
 4255TIP3    H136960   4.286   1.652   9.438  0.6090  2.3784  0.3763
 4255TIP3    H236961   4.193   1.587   9.538  1.7634  0.6225  0.3682
 4256TIP3   OH236962   0.182   5.082   8.964 -0.4854 -0.1454 -0.1832
 4256TIP3    H136963   0.224   4.998   8.985 -1.1315 -0.9008 -1.7372
 4256TIP3    H236964   0.137   5.107   9.045  0.2019 -0.9959  0.4869
 4257TIP3   OH236965   0.693   7.472   9.348  0.7237  0.5049  0.0734
 4257TIP3    H136966   0.623   7.491   9.285  1.8586  0.4319 -1.2633
 4257TIP3    H236967   0.659   7.399   9.400  0.2856 -0.3862 -1.4034
 4258TIP3   OH236968   2.802   7.551   8.162  0.6791  0.2620 -0.0253
 4258TIP3    H136969   2.712   7.579   8.146  0.2716 -1.1435 -0.3603
 4258TIP3    H236970   2.851   7.582   8.086 -0.0245 -1.0303 -1.0524
 4259TIP3   OH236971   2.723   1.880   8.070 -0.2249  0.5470 -0.0301
 4259TIP3    H136972   2.791   1.822   8.105 -0.3134  0.8118  0.6055
 4259TIP3    H236973   2.736   1.878   7.975  0.7510  0.6887  0.0881
 4260TIP3   OH236974   0.528   4.833   7.555  0.0418 -0.3780 -0.1711
 4260TIP3    H136975   0.483   4.898   7.501  1.7527  1.8437  0.8774
 4260TIP3    H236976   0.595   4.884   7.602  0.8889 -2.7824  1.4115
 4261TIP3   OH236977   3.488   4.528   8.509  0.5795  0.3098  0.0016
 4261TIP3    H136978   3.431   4.537   8.433  0.4187 -1.4626 -0.1340
 4261TIP3    H236979   3.540   4.608   8.510  0.4010  0.4794 -1.8359
 4262TIP3   OH236980   4.894   4.275   8.704 -0.1339  0.5747 -0.0508
 4262TIP3    H136981   4.900   4.290   8.799 -1.0309 -2.6491  0.6345
 4262TIP3    H236982   4.966   4.215   8.685 -0.4420  0.5779 -1.2819
 4263TIP3   OH236983   6.714   3.555   8.069 -0.4853  0.8624  0.1102
 4263TIP3    H136984   6.736   3.483   8.009  1.5197 -0.8070  2.6238
 4263TIP3    H236985   6.641   3.522   8.120 -1.1231  1.6169 -0.3012
 4264TIP3   OH236986   1.213   0.340   7.398 -0.4528  0.2514 -0.2672
 4264TIP3    H136987   1.170   0.389   7.328  1.1300 -0.8675 -2.1221
 4264TIP3    H236988   1.197   0.392   7.477 -0.5322  2.6895 -1.7858
 4265TIP3   OH236989   1.483   6.571   7.290 -0.0649 -0.3043 -0.5343
 4265TIP3    H136990   1.566   6.614   7.267  0.0107 -0.3819 -0.4030
 4265TIP3    H236991   1.461   6.605   7.376 -1.2217  1.3110 -1.4112
 4266TIP3   OH236992   3.205   0.115   8.148 -0.3934  0.0480  0.2823
 4266TIP3    H136993   3.165   0.161   8.221  0.2221  0.3788  0.4182
 4266TIP3    H236994   3.281   0.070   8.186 -0.0436  0.2602 -0.1536
 4267TIP3   OH236995   6.136   4.378   8.180  0.2439 -0.4181  0.0071
 4267TIP3    H136996   6.145   4.299   8.128 -2.1980 -0.9641  0.2851
 4267TIP3    H236997   6.106   4.445   8.118  1.7406  0.1595 -0.1173
 4268TIP3   OH236998   7.466   3.634   8.907 -0.3496  0.4999  0.5973
 4268TIP3    H136999   7.547   3.636   8.959 -0.5165 -0.6203  0.9074
 4268TIP3    H237000   7.396   3.633   8.971 -0.5656 -0.5948  0.3513
 4269TIP3   OH237001   6.392   0.006   8.941 -0.5862 -0.3543  0.1552
 4269TIP3    H137002   6.438  -0.076   8.961 -0.5371 -0.4651 -0.3721
 4269TIP3    H237003   6.440   0.073   8.989  0.5562 -0.3758 -0.8979
 4270TIP3   OH237004   3.832   6.161   8.042  0.1692 -0.1759  0.0814
 4270TIP3    H137005   3.922   6.132   8.024  0.2643 -0.1027  0.4360
 4270TIP3    H237006   3.786   6.082   8.071  0.1411 -0.1953 -0.0156
 4271TIP3   OH237007   0.605   1.237   9.519 -0.1372  0.6692  0.0614
 4271TIP3    H137008   0.528   1.290   9.497  0.8030  2.3882  0.7456
 4271TIP3    H237009   0.676   1.275   9.467  0.4169 -0.4593 -0.0420
 4272TIP3   OH237010   7.672   4.113   8.721 -0.0996  0.1248 -0.0511
 4272TIP3    H137011   7.750   4.143   8.674 -0.0058  0.1223  0.1049
 4272TIP3    H237012   7.665   4.020   8.699  1.5678 -0.6199  2.1799
 4273TIP3   OH237013   6.290   5.203   7.652 -0.2358  0.1317  0.6882
 4273TIP3    H137014   6.238   5.208   7.733 -1.5892 -3.5349  0.2474
 4273TIP3    H237015   6.229   5.170   7.586  0.9519  2.5818 -1.8299
 4274TIP3   OH237016   6.741   4.135   7.193 -0.2483  0.3404  0.2790
 4274TIP3    H137017   6.833   4.130   7.220  0.1140  0.3318 -0.8667
 4274TIP3    H237018   6.699   4.188   7.261  0.2361 -1.0210  1.6944
 4275TIP3   OH237019   2.624   3.071   7.455  0.4100  0.3507  0.5031
 4275TIP3    H137020   2.625   3.071   7.551 -0.7165 -2.0540  0.5695
 4275TIP3    H237021   2.532   3.058   7.432  0.9755 -1.6391 -0.8338
 4276TIP3   OH237022   1.664   6.785   7.202 -0.0529 -0.6210  0.1707
 4276TIP3    H137023   1.641   6.876   7.186 -0.0777 -0.7713 -0.6603
 4276TIP3    H237024   1.659   6.743   7.116 -1.9318 -1.8432  0.8211
 4277TIP3   OH237025   4.184   5.764   7.832 -0.5053 -0.1035 -0.1861
 4277TIP3    H137026   4.229   5.821   7.895 -0.4482 -0.0712 -0.2556
 4277TIP3    H237027   4.197   5.807   7.747 -0.7722 -0.0270 -0.1911
 4278TIP3   OH237028   0.673   0.357   7.688 -0.3435  0.1634 -0.0413
 4278TIP3    H137029   0.708   0.337   7.775 -0.0429 -0.6748 -0.3396
 4278TIP3    H237030   0.751   0.368   7.633 -0.5126 -0.9939 -0.5525
 4279TIP3   OH237031   0.768   2.384   8.570  0.9004  0.6564 -0.4129
 4279TIP3    H137032   0.828   2.310   8.563  3.5842  2.4931  1.5545
 4279TIP3    H237033   0.783   2.435   8.490  0.4636  0.1048 -0.8543
 4280TIP3   OH237034   3.075   7.258   9.268 -0.2880  0.1077 -0.0423
 4280TIP3    H137035   3.110   7.182   9.221 -0.6084 -0.2532  0.2992
 4280TIP3    H237036   3.130   7.331   9.239  2.0462 -0.7405  1.9123
 4281TIP3   OH237037   5.834   4.511   7.754  0.3357 -0.0549  0.1228
 4281TIP3    H137038   5.862   4.540   7.667  1.5568  0.5434  0.6812
 4281TIP3    H237039   5.912   4.471   7.792 -0.2684 -0.5835  0.8274
 4282TIP3   OH237040   2.236   2.610   9.102 -0.1801 -0.0580 -0.3604
 4282TIP3    H137041   2.198   2.674   9.161 -0.7184  0.6979 -1.4810
 4282TIP3    H237042   2.310   2.572   9.150 -0.1236  1.0815  0.4761
 4283TIP3   OH237043   2.822   7.607   9.470 -0.3717 -0.0306  0.4922
 4283TIP3    H137044   2.777   7.686   9.500 -1.3389 -0.9175  1.4721
 4283TIP3    H237045   2.869   7.635   9.392 -2.1738  1.0962 -0.2733
 4284TIP3   OH237046   3.775   0.296   6.459 -0.2249 -0.0462  0.0818
 4284TIP3    H137047   3.690   0.264   6.489 -0.5407  0.7801  0.0941
 4284TIP3    H237048   3.836   0.225   6.479 -0.9832 -0.8299 -0.3293
 4285TIP3   OH237049   6.844   4.488   8.394 -0.1390 -0.2514  0.0364
 4285TIP3    H137050   6.809   4.406   8.359  0.2359  0.0303 -1.0335
 4285TIP3    H237051   6.767   4.541   8.412 -0.3697 -0.7087  0.4280
 4286TIP3   OH237052   5.317   1.335   8.270  0.7687 -0.0928  0.0162
 4286TIP3    H137053   5.251   1.393   8.232 -2.2199 -3.1608  0.0550
 4286TIP3    H237054   5.332   1.370   8.358 -1.0844  0.5628  0.1186
 4287TIP3   OH237055   5.000   3.888   9.176 -0.0168  0.0794  0.5373
 4287TIP3    H137056   4.929   3.904   9.238 -0.6004 -1.9420  0.4726
 4287TIP3    H237057   4.981   3.801   9.140  1.2181  0.4875 -1.2430
 4288TIP3   OH237058   7.372   4.370   9.659  0.5623  0.5073 -0.4055
 4288TIP3    H137059   7.406   4.288   9.694  1.1328  1.0233  0.2954
 4288TIP3    H237060   7.438   4.435   9.683 -0.3072  1.3203 -0.1806
 4289TIP3   OH237061   0.969   5.109   8.531 -0.0098 -0.2119 -0.3634
 4289TIP3    H137062   0.948   5.041   8.467  2.0486 -0.4471 -0.8576
 4289TIP3    H237063   1.017   5.175   8.481  0.3281  0.3183  0.6407
 4290TIP3   OH237064   2.066   6.025   8.829  0.2148 -0.2101  0.0888
 4290TIP3    H137065   2.100   6.070   8.751 -0.8086  0.6597  0.1229
 4290TIP3    H237066   2.104   6.074   8.902 -0.8753  0.6149  0.1258
 4291TIP3   OH237067   5.465   4.203   6.689  0.4318 -0.2179  0.3808
 4291TIP3    H137068   5.534   4.176   6.749  0.4358  0.0088  0.4817
 4291TIP3    H237069   5.477   4.298   6.680 -0.0563 -0.1308  0.6414
 4292TIP3   OH237070   1.598   1.665   7.688  0.1884  0.0910 -0.8820
 4292TIP3    H137071   1.602   1.706   7.774 -1.2886  0.6091 -1.0241
 4292TIP3    H237072   1.687   1.672   7.654  1.1162 -1.3180  1.1029
 4293TIP3   OH237073   3.631   6.155   8.678 -0.5623 -0.6235 -0.2191
 4293TIP3    H137074   3.548   6.121   8.646 -0.8397 -0.5461  0.3965
 4293TIP3    H237075   3.611   6.243   8.709 -0.7253 -1.3273  1.8263
 4294TIP3   OH237076   4.210   3.689   8.932 -0.2610  0.4050 -0.8919
 4294TIP3    H137077   4.280   3.688   8.867 -0.5273  1.1856 -1.2072
 4294TIP3    H237078   4.205   3.780   8.961 -0.2878  0.1056  0.0751
 4295TIP3   OH237079   7.157   4.967   8.937  0.5084  0.2614 -0.1504
 4295TIP3    H137080   7.178   5.054   8.971  2.1290 -0.1881  0.1016
 4295TIP3    H237081   7.241   4.920   8.939 -0.3849 -1.4084  0.0219
 4296TIP3   OH237082   2.734   5.058   7.668 -0.4131  0.4336  0.1608
 4296TIP3    H137083   2.663   5.120   7.683 -0.0357  0.4195  2.3060
 4296TIP3    H237084   2.694   4.972   7.681 -0.1805  0.3939  0.6306
 4297TIP3   OH237085   6.931   6.992   7.921  0.4580  0.0914  0.2175
 4297TIP3    H137086   6.840   6.964   7.920  0.2273  0.7684  0.8994
 4297TIP3    H237087   6.961   6.981   7.831 -1.0826  2.3422 -0.6655
 4298TIP3   OH237088   5.239   6.365   7.986  0.0724  0.0933  0.7594
 4298TIP3    H137089   5.292   6.373   8.065  0.4294 -0.2775  0.5591
 4298TIP3    H237090   5.279   6.294   7.936  1.6026  2.1060 -1.0839
 4299TIP3   OH237091   7.233   0.474   8.890 -0.0062  0.5359 -0.0616
 4299TIP3    H137092   7.239   0.494   8.983 -0.6875 -2.4876  0.7561
 4299TIP3    H237093   7.306   0.415   8.872 -1.6534 -1.5112 -0.5595
 4300TIP3   OH237094   7.582   2.142   8.111 -0.0216 -0.1116 -0.0991
 4300TIP3    H137095   7.492   2.124   8.084  0.2592 -0.8689 -0.5528
 4300TIP3    H237096   7.589   2.103   8.198  0.6082 -2.4225 -1.1098
 4301TIP3   OH237097   1.014   4.966   8.780  0.4800  0.1754 -0.5827
 4301TIP3    H137098   0.990   5.040   8.725 -0.6337  0.6188  0.4517
 4301TIP3    H237099   0.932   4.935   8.818  1.0637 -0.8715 -0.1019
 4302TIP3   OH237100   4.710   2.281   8.874 -0.0864  0.2550 -0.7017
 4302TIP3    H137101   4.693   2.337   8.799 -1.9165  0.1999 -0.3683
 4302TIP3    H237102   4.707   2.340   8.949  2.6446  0.4766 -0.6729
 4303TIP3   OH237103   2.008   0.011   9.106 -0.1407  0.0620 -0.7593
 4303TIP3    H137104   1.959  -0.061   9.145 -0.3643  0.2624 -0.6745
 4303TIP3    H237105   1.942   0.069   9.070  0.0350  0.3346 -0.6409
 4304TIP3   OH237106   3.309   5.929   9.306  0.0108  0.3616  0.1006
 4304TIP3    H137107   3.314   5.834   9.320 -0.0913  0.1068 -1.3797
 4304TIP3    H237108   3.396   5.952   9.275 -0.5282  0.3639 -1.5121
 4305TIP3   OH237109   4.085   3.400   9.161 -0.0983 -0.4092  0.1927
 4305TIP3    H137110   4.171   3.363   9.141  0.5349  1.1913 -0.1922
 4305TIP3    H237111   4.073   3.383   9.254  2.0624  1.9757  1.0416
 4306TIP3   OH237112   5.515   3.788   8.480 -0.6172 -0.0930  0.5075
 4306TIP3    H137113   5.563   3.835   8.548  0.0325 -1.6075  1.1206
 4306TIP3    H237114   5.583   3.747   8.426 -1.1126  1.0444 -1.0784
 4307TIP3   OH237115   5.196   0.896   7.059 -0.5905  0.6791 -0.5440
 4307TIP3    H137116   5.276   0.846   7.075 -1.4667 -0.2585  1.2224
 4307TIP3    H237117   5.188   0.954   7.135 -0.9822  1.5955 -1.2702
 4308TIP3   OH237118   3.564   1.263   8.061 -0.0811 -0.7198  0.0200
 4308TIP3    H137119   3.514   1.187   8.089 -1.5160 -0.1254 -0.8111
 4308TIP3    H237120   3.571   1.253   7.966 -0.7255  0.4164 -0.1625
 4309TIP3   OH237121   2.113   7.485   8.928  0.0569 -0.1278  0.5572
 4309TIP3    H137122   2.147   7.435   9.002  0.2451 -1.1803 -0.2181
 4309TIP3    H237123   2.103   7.574   8.961  2.4708 -0.0265  1.1407
 4310TIP3   OH237124   7.260   3.565   9.094  0.6230  0.5110 -0.2080
 4310TIP3    H137125   7.289   3.605   9.176 -0.7799  2.0928 -0.4276
 4310TIP3    H237126   7.219   3.482   9.120  2.1225 -0.0476  0.4349
 4311TIP3   OH237127   7.121   4.491   7.631 -0.2697 -0.1826  0.1931
 4311TIP3    H137128   7.051   4.449   7.680 -0.5218 -0.7552 -0.6342
 4311TIP3    H237129   7.078   4.525   7.553 -0.0034  1.3110  0.6648
 4312TIP3   OH237130   5.595   6.318   8.353  0.0068  0.2280 -0.6060
 4312TIP3    H137131   5.624   6.312   8.444 -0.5353  1.5396 -0.3250
 4312TIP3    H237132   5.646   6.390   8.316 -0.5712  0.4295 -1.0206
 4313TIP3   OH237133   0.052   2.007   8.707  0.9074  0.0344  0.2610
 4313TIP3    H137134   0.005   1.941   8.759  1.0695  0.5167  1.0372
 4313TIP3    H237135   0.111   1.956   8.652 -1.2779 -0.6927 -1.6139
 4314TIP3   OH237136   1.618   1.247   8.232 -0.2054  0.3435 -0.0391
 4314TIP3    H137137   1.553   1.314   8.255  1.3903  1.9003  0.1207
 4314TIP3    H237138   1.636   1.202   8.314  1.5552  2.3740  0.8034
 4315TIP3   OH237139   4.554   0.549   8.701  0.5382 -0.2530 -0.0979
 4315TIP3    H137140   4.636   0.597   8.708 -0.2991  1.3440 -0.7764
 4315TIP3    H237141   4.529   0.556   8.609  0.3163 -1.9284 -0.2069
 4316TIP3   OH237142   3.200   6.325   8.750 -0.4453 -0.2671  0.7691
 4316TIP3    H137143   3.222   6.239   8.785  0.0061 -0.4398  0.0754
 4316TIP3    H237144   3.200   6.383   8.827  1.8834 -0.3566  0.8903
 4317TIP3   OH237145   2.025   2.577   8.720  0.1137  0.5784 -0.1472
 4317TIP3    H137146   1.982   2.512   8.776 -0.1511  0.1862 -0.7882
 4317TIP3    H237147   2.021   2.659   8.770 -0.8984  0.4334  0.0291
 4318TIP3   OH237148   0.763   4.392   8.296 -0.1837 -0.0631 -0.3726
 4318TIP3    H137149   0.802   4.366   8.380  2.2530 -0.2143 -1.4745
 4318TIP3    H237150   0.807   4.337   8.231 -0.8823  1.1542 -1.9410
 4319TIP3   OH237151   1.177   5.011   9.249 -0.1631  0.5406  0.3632
 4319TIP3    H137152   1.178   5.107   9.255 -0.0729  0.5854 -0.2898
 4319TIP3    H237153   1.151   4.993   9.159 -3.5338 -0.0851  1.3071
 4320TIP3   OH237154   6.977   1.269   8.302  0.2871 -0.0580  0.3704
 4320TIP3    H137155   6.967   1.194   8.361 -1.2634 -0.1632  0.0326
 4320TIP3    H237156   7.064   1.304   8.321  1.4310 -2.4378 -0.0493
 4321TIP3   OH237157   5.550   2.719   8.100  0.5862 -0.4869 -0.0647
 4321TIP3    H137158   5.546   2.734   8.195 -0.5678  0.7707 -0.2780
 4321TIP3    H237159   5.513   2.631   8.088  0.9251 -0.7323  0.6695
 4322TIP3   OH237160   6.365   3.800   7.338 -0.0263  0.5501 -0.0985
 4322TIP3    H137161   6.394   3.725   7.390 -0.2297 -0.4222 -1.3280
 4322TIP3    H237162   6.441   3.859   7.338  1.0042 -0.7101 -0.9864
 4323TIP3   OH237163   6.120   5.479   8.241  0.4608  0.0076  0.2972
 4323TIP3    H137164   6.121   5.527   8.325 -1.1275  0.7300 -0.0628
 4323TIP3    H237165   6.029   5.482   8.213  1.0306  0.1239 -1.6702
 4324TIP3   OH237166   3.168   6.104   9.105 -0.6029  0.0757 -0.6129
 4324TIP3    H137167   3.079   6.127   9.133 -0.0003  0.5158  1.0510
 4324TIP3    H237168   3.202   6.048   9.176  0.2412 -0.5934 -1.5195
 4325TIP3   OH237169   2.864   6.179   7.518 -0.4210  0.0592  0.3473
 4325TIP3    H137170   2.808   6.241   7.470 -0.1722  0.3077  0.3790
 4325TIP3    H237171   2.931   6.234   7.559 -0.6513 -0.1432  1.0170
 4326TIP3   OH237172   6.878   6.735   6.798  0.2275  0.4098  0.1170
 4326TIP3    H137173   6.908   6.679   6.869 -0.1271  0.9916  0.7481
 4326TIP3    H237174   6.868   6.677   6.723  0.3415 -0.2672  0.6199
 4327TIP3   OH237175   6.040   2.636   7.454 -0.2994  0.5514 -0.6498
 4327TIP3    H137176   5.948   2.620   7.430 -0.5633  1.5792 -0.3608
 4327TIP3    H237177   6.042   2.627   7.549  0.1239 -0.4610 -0.7327
 4328TIP3   OH237178   4.882   0.320   7.489  0.4738  0.1541  0.3625
 4328TIP3    H137179   4.921   0.294   7.572  0.1281 -0.3484  0.3734
 4328TIP3    H237180   4.938   0.279   7.423 -0.0402 -0.5838  0.3785
 4329TIP3   OH237181   4.321   4.665   9.388 -0.7305 -0.3197 -0.2313
 4329TIP3    H137182   4.399   4.625   9.351 -0.8982 -0.0974 -0.8351
 4329TIP3    H237183   4.330   4.759   9.369  0.7518  0.3709  3.0810
 4330TIP3   OH237184   6.594   2.819   9.358 -0.2131 -0.2039 -0.0279
 4330TIP3    H137185   6.613   2.761   9.432 -0.3136  0.3427  0.4308
 4330TIP3    H237186   6.528   2.880   9.392  1.7544  1.8638  0.3573
 4331TIP3   OH237187   6.203   4.622   8.811  0.3118  0.1663 -0.2548
 4331TIP3    H137188   6.182   4.673   8.889 -1.4650  1.4041 -1.4549
 4331TIP3    H237189   6.224   4.535   8.844 -0.0032  0.7544  1.6104
 4332TIP3   OH237190   6.425   0.325   9.540  0.1733  0.2507 -0.8571
 4332TIP3    H137191   6.355   0.375   9.498 -0.9411  0.0592  0.6825
 4332TIP3    H237192   6.386   0.238   9.555  0.7123  0.1584  0.0589
 4333TIP3   OH237193   2.824   1.294   8.515  0.3352  0.0818 -0.1958
 4333TIP3    H137194   2.879   1.227   8.475  0.6233 -0.1308  0.5619
 4333TIP3    H237195   2.736   1.275   8.482  0.7041  0.5017 -1.5167
 4334TIP3   OH237196   3.003   6.141   8.586 -0.2520  0.0797  0.3866
 4334TIP3    H137197   3.002   6.056   8.630 -1.1203  0.1816  0.5881
 4334TIP3    H237198   3.043   6.201   8.649  0.7137 -0.2421  0.0997
 4335TIP3   OH237199   7.658   5.696   7.488 -0.0843  0.3348 -0.1364
 4335TIP3    H137200   7.652   5.605   7.458  0.3872  0.1951  0.1880
 4335TIP3    H237201   7.750   5.708   7.511 -0.3238  0.6112  0.7093
 4336TIP3   OH237202   0.749   5.996   7.676  0.1323  0.4943  0.1976
 4336TIP3    H137203   0.754   5.915   7.625  1.1433  0.3020  0.5765
 4336TIP3    H237204   0.692   5.974   7.750  0.1309  0.2265  0.1188
 4337TIP3   OH237205   6.037   1.478   6.930  0.3528 -0.8061  0.2364
 4337TIP3    H137206   6.030   1.543   6.999  0.7498 -0.3084 -0.1870
 4337TIP3    H237207   6.088   1.520   6.861 -0.9068 -0.9141 -0.8125
 4338TIP3   OH237208   5.517   7.628   8.007 -0.3820 -0.4735 -0.6233
 4338TIP3    H137209   5.467   7.642   8.087 -3.2740 -2.2787 -1.9317
 4338TIP3    H237210   5.523   7.715   7.967 -0.6312  0.1364  0.6165
 4339TIP3   OH237211   7.447   1.875   7.332  1.1515 -0.1854 -0.0689
 4339TIP3    H137212   7.445   1.803   7.269  2.2610 -0.8940  0.6670
 4339TIP3    H237213   7.483   1.949   7.283 -3.9321  1.3515 -2.1608
 4340TIP3   OH237214   3.258   5.787   7.526  0.6411  0.2809 -0.3034
 4340TIP3    H137215   3.346   5.809   7.558  1.9388 -0.5638 -2.9917
 4340TIP3    H237216   3.253   5.829   7.440 -0.6431 -1.6031 -1.2186
 4341TIP3   OH237217   0.470   0.425   8.511  0.1586 -0.2876 -0.3008
 4341TIP3    H137218   0.496   0.463   8.595  1.8577 -1.4784 -0.2284
 4341TIP3    H237219   0.410   0.489   8.473  2.2108  2.1045  0.1775
 4342TIP3   OH237220   0.898   3.322   9.291  0.8405 -0.0863  0.7277
 4342TIP3    H137221   0.989   3.313   9.263  0.3587  0.3563 -1.0755
 4342TIP3    H237222   0.871   3.232   9.311  1.5362 -0.2720  0.8799
 4343TIP3   OH237223   3.168   4.143   7.657 -0.0350  0.2163 -0.0854
 4343TIP3    H137224   3.177   4.188   7.741  1.6730  0.6138 -0.4433
 4343TIP3    H237225   3.175   4.213   7.591 -1.4691 -0.0748 -0.5800
 4344TIP3   OH237226   6.178   5.237   7.263 -0.4323  0.1953  0.1263
 4344TIP3    H137227   6.246   5.265   7.201 -1.6635  1.4078 -0.7316
 4344TIP3    H237228   6.115   5.189   7.209 -0.6170 -0.3034  0.7816
 4345TIP3   OH237229   4.844   4.773   7.804 -0.3741  0.1554  0.4721
 4345TIP3    H137230   4.753   4.795   7.825 -0.1729  0.3703  1.1558
 4345TIP3    H237231   4.838   4.717   7.727 -1.0606  0.4992  0.2634
 4346TIP3   OH237232   5.496   2.450   8.908 -0.1131  0.6681  1.0697
 4346TIP3    H137233   5.499   2.471   8.815  0.6085 -0.2034  0.8813
 4346TIP3    H237234   5.435   2.514   8.945  0.4668  1.7756  0.1978
 4347TIP3   OH237235   4.678   0.749   9.426  0.0380 -0.3583  0.0833
 4347TIP3    H137236   4.766   0.726   9.396 -0.1914 -0.9995 -0.1108
 4347TIP3    H237237   4.679   0.844   9.431  0.4255 -0.2999 -0.9001
 4348TIP3   OH237238   2.825   1.150   8.066  0.3049 -0.1804 -0.0098
 4348TIP3    H137239   2.799   1.079   8.007  0.5819  0.0771 -0.4460
 4348TIP3    H237240   2.781   1.228   8.031  2.5780  0.5252 -1.5149
 4349TIP3   OH237241   0.977   4.487   7.336 -0.1662 -0.5454 -0.7697
 4349TIP3    H137242   1.015   4.573   7.356 -1.1969 -0.4490  0.9474
 4349TIP3    H237243   0.884   4.505   7.321 -0.7911 -1.5157  1.4698
 4350TIP3   OH237244   5.376   3.058   7.809 -0.6010  0.0967 -0.4296
 4350TIP3    H137245   5.333   3.033   7.727  0.5226 -0.4247 -0.8903
 4350TIP3    H237246   5.319   3.124   7.847 -2.7739 -1.8621 -0.0706
 4351TIP3   OH237247   1.656   0.293   9.530  0.7212 -0.7760  0.4162
 4351TIP3    H137248   1.619   0.348   9.598  1.6343  0.5576 -0.1386
 4351TIP3    H237249   1.619   0.206   9.547 -0.5982 -0.0536  1.4178
 4352TIP3   OH237250   3.465   5.633   8.361  0.0085  0.2119  0.5663
 4352TIP3    H137251   3.500   5.648   8.273 -0.0938  1.6746  0.7362
 4352TIP3    H237252   3.413   5.553   8.354  0.3689  0.0673 -0.5882
 4353TIP3   OH237253   4.362   1.741   8.785 -0.2961  0.6957 -0.0042
 4353TIP3    H137254   4.300   1.779   8.847  0.1402 -0.7792  1.4109
 4353TIP3    H237255   4.388   1.658   8.825 -0.8801 -0.9162 -2.7091
 4354TIP3   OH237256   6.573   0.330   8.259 -0.8624  0.0797  0.5542
 4354TIP3    H137257   6.551   0.421   8.278 -0.6623 -0.1534  1.9819
 4354TIP3    H237258   6.489   0.288   8.240 -0.8146  0.8801 -1.7417
 4355TIP3   OH237259   1.530   5.917   8.988 -0.1280  0.4156  0.1108
 4355TIP3    H137260   1.455   5.895   8.933  0.1451  0.9087 -0.4746
 4355TIP3    H237261   1.532   5.849   9.055 -0.7961  0.1181 -0.1652
 4356TIP3   OH237262   6.965   1.098   8.529 -0.2075 -0.3398 -0.3117
 4356TIP3    H137263   6.894   1.064   8.584  0.6746 -0.8403  0.5532
 4356TIP3    H237264   7.044   1.059   8.566  0.4763 -0.1719 -1.5588
 4357TIP3   OH237265   4.921   2.889   8.413  0.3199 -0.2444 -0.5050
 4357TIP3    H137266   4.970   2.806   8.408  0.0833 -0.5464  1.2886
 4357TIP3    H237267   4.949   2.938   8.336  1.2954 -1.5611 -1.0347
 4358TIP3   OH237268   3.496   6.645   6.836  0.5013 -0.0081 -0.1938
 4358TIP3    H137269   3.529   6.723   6.881 -1.3975  0.4663  0.4489
 4358TIP3    H237270   3.571   6.585   6.836  1.7327  1.4633  0.0911
 4359TIP3   OH237271   1.027   4.360   8.962  0.5631 -0.4755  0.1938
 4359TIP3    H137272   0.991   4.327   9.044 -0.9752 -1.2822 -0.7726
 4359TIP3    H237273   1.012   4.454   8.965 -2.3068 -0.8384 -0.4433
 4360TIP3   OH237274   1.610   4.758   7.913  0.2253  0.0126 -0.2804
 4360TIP3    H137275   1.537   4.804   7.954 -0.7219 -0.0137 -1.8392
 4360TIP3    H237276   1.643   4.699   7.980 -0.8212  0.4303  0.6274
 4361TIP3   OH237277   3.937   0.747   9.416 -0.0462 -0.1430 -0.1718
 4361TIP3    H137278   4.015   0.700   9.447 -0.1813  0.0108  0.4027
 4361TIP3    H237279   3.864   0.694   9.446 -0.1818  0.0724 -0.1227
 4362TIP3   OH237280   6.282   0.852   7.100  0.0561  0.4589  0.2791
 4362TIP3    H137281   6.332   0.933   7.112  2.1592 -0.4189 -1.7669
 4362TIP3    H237282   6.206   0.879   7.047  0.8652  1.0920 -0.5997
 4363TIP3   OH237283   5.923   7.390   8.558 -0.5513 -0.0736  0.1695
 4363TIP3    H137284   5.937   7.403   8.465 -0.7307  0.9520  0.2666
 4363TIP3    H237285   6.009   7.369   8.594 -0.2930  0.5299 -0.0833
 4364TIP3   OH237286   4.501   4.350   8.807 -0.1063  0.6710 -0.4941
 4364TIP3    H137287   4.471   4.314   8.723 -0.7965  1.2764 -0.5188
 4364TIP3    H237288   4.566   4.287   8.838 -0.1817  0.1978 -1.2599
 4365TIP3   OH237289   3.573   1.098   6.831  0.1856 -0.1217 -0.1432
 4365TIP3    H137290   3.653   1.074   6.878  0.3129  1.1811  0.3523
 4365TIP3    H237291   3.592   1.184   6.793 -0.0224 -0.9735 -2.3722
 4366TIP3   OH237292   6.282   7.093   8.373  0.0925 -0.0490  0.0631
 4366TIP3    H137293   6.336   7.108   8.451 -0.9152  0.5442  0.6721
 4366TIP3    H237294   6.320   7.015   8.333  1.7928  0.6961  0.1081
 4367TIP3   OH237295   1.011   0.498   8.098  0.0926  0.2837  0.2829
 4367TIP3    H137296   0.969   0.466   8.019  1.1596  0.4486 -0.3710
 4367TIP3    H237297   1.018   0.421   8.155  0.6678 -0.1833 -0.3985
 4368TIP3   OH237298   5.700   2.889   7.298 -0.1026 -0.1233 -0.2372
 4368TIP3    H137299   5.728   2.884   7.390  1.2536 -0.4024 -0.6405
 4368TIP3    H237300   5.749   2.819   7.254 -0.7668 -0.0158 -1.1681
 4369TIP3   OH237301   2.968   6.227   8.242 -0.2362  0.2438  0.3262
 4369TIP3    H137302   3.023   6.302   8.266  0.4505 -1.0166  3.0404
 4369TIP3    H237303   2.894   6.231   8.303 -1.2248 -0.2362 -0.7922
 4370TIP3   OH237304   2.767   2.984   8.808 -0.5953  0.1157  0.3826
 4370TIP3    H137305   2.769   2.990   8.904  0.0651 -2.2132  0.5857
 4370TIP3    H237306   2.693   3.039   8.782 -0.0627  1.7623  2.1104
 4371TIP3   OH237307   4.650   6.138   9.315  0.7937  0.7146  0.3856
 4371TIP3    H137308   4.618   6.143   9.225  2.0967 -1.1574 -0.2528
 4371TIP3    H237309   4.685   6.226   9.332 -0.2721  1.3604 -0.5923
 4372TIP3   OH237310   6.162   7.155   9.451  0.3110  0.6325 -0.4150
 4372TIP3    H137311   6.066   7.158   9.458  0.3835  1.0653  0.6207
 4372TIP3    H237312   6.189   7.247   9.448  0.6325  0.5021 -1.9795
 4373TIP3   OH237313   4.666   2.295   8.200 -0.1919 -0.5537  0.3858
 4373TIP3    H137314   4.677   2.359   8.269 -1.3676 -0.3279  0.3917
 4373TIP3    H237315   4.643   2.346   8.122  1.9481 -0.7309 -0.4194
 4374TIP3   OH237316   4.186   3.282   7.493 -0.1090  0.0491 -0.2720
 4374TIP3    H137317   4.259   3.264   7.434 -0.1105 -1.0150  0.0328
 4374TIP3    H237318   4.144   3.360   7.456  0.4036 -0.0944 -1.1837
 4375TIP3   OH237319   5.049   1.442   8.643  0.2542 -0.5729 -0.4959
 4375TIP3    H137320   4.999   1.499   8.584 -0.4054 -0.4989  0.1226
 4375TIP3    H237321   5.025   1.353   8.618 -1.7847 -0.5324  1.1032
 4376TIP3   OH237322   0.972   4.656   8.081  0.2444 -0.2493  0.0264
 4376TIP3    H137323   0.895   4.706   8.105  0.0322 -0.3833 -0.3696
 4376TIP3    H237324   1.033   4.669   8.154  0.2634  0.7153 -0.1503
 4377TIP3   OH237325   5.214   3.558   8.199  0.1646  0.0749 -0.1433
 4377TIP3    H137326   5.181   3.477   8.237 -0.3086 -0.4194 -1.5577
 4377TIP3    H237327   5.177   3.561   8.111  0.4885  1.6399 -0.2599
 4378TIP3   OH237328   1.207   6.883   7.296  0.2650 -0.7949 -0.2610
 4378TIP3    H137329   1.203   6.823   7.370  1.2515 -3.2061 -1.9926
 4378TIP3    H237330   1.119   6.921   7.290  0.0244 -0.9255  1.7612
 4379TIP3   OH237331   2.504   2.901   9.226 -0.4272 -0.6026 -0.1403
 4379TIP3    H137332   2.574   2.894   9.161  0.8986  0.4844  1.1034
 4379TIP3    H237333   2.479   2.993   9.224 -0.7806 -0.6797  0.4602
 4380TIP3   OH237334   3.383   5.103   7.065 -0.2905 -0.5141  0.1785
 4380TIP3    H137335   3.315   5.150   7.016  0.0142  0.2635  0.4915
 4380TIP3    H237336   3.367   5.126   7.156 -0.5160 -1.5193  0.4100
 4381TIP3   OH237337   7.578   3.187   7.230  0.1603 -0.2240 -0.3913
 4381TIP3    H137338   7.494   3.162   7.193 -0.5437 -0.0507  1.0308
 4381TIP3    H237339   7.635   3.113   7.211 -0.2012 -0.2018 -1.6557
 4382TIP3   OH237340   6.776   0.705   9.135 -0.2188 -0.4550  0.4798
 4382TIP3    H137341   6.789   0.736   9.225  1.7585 -0.6461  0.3081
 4382TIP3    H237342   6.781   0.610   9.141 -1.2057 -0.5274  0.3043
 4383TIP3   OH237343   7.275   4.098   7.662  0.4802  0.0641 -0.2918
 4383TIP3    H137344   7.210   4.124   7.727  0.1301  0.5357 -0.8332
 4383TIP3    H237345   7.319   4.179   7.637  0.3941 -0.0680 -0.8882
 4384TIP3   OH237346   4.349   4.224   7.053  0.6824  0.0617 -0.6701
 4384TIP3    H137347   4.290   4.149   7.059  2.5536 -1.4688 -0.5210
 4384TIP3    H237348   4.427   4.190   7.009  2.0284  1.6326  0.3645
 4385TIP3   OH237349   1.486   0.900   8.707 -0.3005 -0.3176  0.2760
 4385TIP3    H137350   1.529   0.901   8.622 -0.9191  1.2284 -0.0429
 4385TIP3    H237351   1.551   0.862   8.766  0.4588 -0.5886 -0.7082
 4386TIP3   OH237352   7.022   5.581   8.732  0.0192  0.2658  0.0578
 4386TIP3    H137353   7.061   5.533   8.659  0.1221 -0.7403  0.7551
 4386TIP3    H237354   6.962   5.644   8.691  0.0746 -0.2940 -0.8900
 4387TIP3   OH237355   3.364   4.641   7.954 -0.0502 -0.2880  0.1157
 4387TIP3    H137356   3.415   4.668   8.031 -1.5318 -1.5614  1.6261
 4387TIP3    H237357   3.321   4.560   7.981  0.3932 -1.5028 -2.5483
 4388TIP3   OH237358   0.996   3.074   8.945 -0.0683 -0.3054  0.4838
 4388TIP3    H137359   0.921   3.078   9.004 -0.0765 -1.7923  0.6125
 4388TIP3    H237360   1.063   3.026   8.994  0.5929  0.0795 -0.0211
 4389TIP3   OH237361   5.693   0.911   8.875  0.0780  0.4014  0.3553
 4389TIP3    H137362   5.660   0.888   8.962  1.4070 -0.5069  0.6531
 4389TIP3    H237363   5.733   0.997   8.886 -0.3903  0.6087  0.4630
 4390TIP3   OH237364   0.331   6.700   7.526  0.6085  0.5756 -0.1787
 4390TIP3    H137365   0.251   6.717   7.476 -0.5211 -0.2121  1.2889
 4390TIP3    H237366   0.378   6.635   7.473 -1.2225 -1.3055  0.3473
 4391TIP3   OH237367   1.266   6.630   8.920 -0.1452  0.1424 -0.1654
 4391TIP3    H137368   1.205   6.624   8.847  0.8779  1.8611 -1.2306
 4391TIP3    H237369   1.322   6.553   8.911  2.4284  2.1415 -3.6321
 4392TIP3   OH237370   6.100   2.512   8.322 -0.2294  0.1373 -0.8272
 4392TIP3    H137371   6.051   2.523   8.241 -0.0758  0.9261 -0.8190
 4392TIP3    H237372   6.114   2.601   8.354 -0.6410 -0.1816  0.2818
 4393TIP3   OH237373   6.277   7.411   9.382 -0.0398  0.0572 -0.3311
 4393TIP3    H137374   6.206   7.473   9.365  1.4470  1.5461 -1.5868
 4393TIP3    H237375   6.338   7.459   9.438  0.1843 -1.0264  0.3731
 4394TIP3   OH237376   3.582   7.351   9.160 -0.0023 -0.4119 -0.4078
 4394TIP3    H137377   3.580   7.388   9.072  0.4081  1.2045  0.2317
 4394TIP3    H237378   3.675   7.347   9.182 -0.1406  2.1677  1.0852
 4395TIP3   OH237379   5.572   6.067   9.256  0.3762 -0.1167 -0.0359
 4395TIP3    H137380   5.622   5.998   9.214 -1.2312  0.0273 -2.3918
 4395TIP3    H237381   5.616   6.148   9.230  0.5317 -0.1173  0.2253
 4396TIP3   OH237382   2.970   7.178   8.901  0.0548  0.0259 -0.6487
 4396TIP3    H137383   2.911   7.220   8.963 -1.0214 -0.9971 -0.9492
 4396TIP3    H237384   3.042   7.145   8.954 -1.7250 -2.4748  0.4308
 4397TIP3   OH237385   0.820   5.092   7.577  0.2257 -0.6595 -0.1078
 4397TIP3    H137386   0.801   5.073   7.669 -1.6853 -1.3759 -0.6015
 4397TIP3    H237387   0.841   5.006   7.539  0.9427 -0.3752 -0.3651
 4398TIP3   OH237388   1.982   2.431   7.768  0.6158 -0.4030 -0.4607
 4398TIP3    H137389   1.962   2.345   7.806  0.1250 -0.3129 -0.5110
 4398TIP3    H237390   2.072   2.423   7.739  1.1102 -0.3896  0.9699
 4399TIP3   OH237391   4.475   2.455   7.179  0.1111  0.7667  0.1485
 4399TIP3    H137392   4.473   2.546   7.148 -0.7547  0.7193  0.0501
 4399TIP3    H237393   4.494   2.403   7.101  0.2297  0.8301  0.1350
 4400TIP3   OH237394   5.632   1.093   7.712  0.0764  0.2206  0.3031
 4400TIP3    H137395   5.641   1.187   7.697  0.6149  0.0894 -0.2304
 4400TIP3    H237396   5.607   1.057   7.627  1.2216 -0.2802  0.1523
 4401TIP3   OH237397   6.031   1.474   9.453 -0.8157  0.4667  0.0392
 4401TIP3    H137398   5.962   1.481   9.388 -2.8610  0.5615  2.1050
 4401TIP3    H237399   6.078   1.394   9.429 -1.0209  0.8809 -1.9191
 4402TIP3   OH237400   4.362   3.599   7.344 -0.0925 -0.1977 -0.0459
 4402TIP3    H137401   4.391   3.654   7.416  0.0560 -0.0399 -0.2279
 4402TIP3    H237402   4.440   3.551   7.317  0.1412  0.6474 -0.9128
 4403TIP3   OH237403   3.924   6.725   8.135  0.3238 -0.4499  0.4802
 4403TIP3    H137404   3.890   6.654   8.082  1.0439 -1.2643  1.0760
 4403TIP3    H237405   3.850   6.753   8.189 -0.8204  1.3083 -1.8116
 4404TIP3   OH237406   1.628   0.145   6.856 -0.3724 -0.0390  0.1089
 4404TIP3    H137407   1.713   0.190   6.855 -0.6398  0.4767 -0.8823
 4404TIP3    H237408   1.621   0.105   6.769 -0.8151 -0.7218  0.4495
 4405TIP3   OH237409   4.696   1.540   8.289  0.0512 -0.5588  0.3728
 4405TIP3    H137410   4.625   1.496   8.336  0.0916 -0.5711  0.4222
 4405TIP3    H237411   4.674   1.527   8.197 -0.2133 -0.2324  0.3885
 4406TIP3   OH237412   7.099   4.319   9.539  0.3154  0.4649  0.0849
 4406TIP3    H137413   7.149   4.270   9.475  0.4339  0.7174 -0.0157
 4406TIP3    H237414   7.164   4.355   9.599  0.3410  1.5388 -0.5534
 4407TIP3   OH237415   7.229   2.207   7.530 -0.1018  0.1099  0.0787
 4407TIP3    H137416   7.318   2.220   7.561 -0.1246  1.2606 -0.3107
 4407TIP3    H237417   7.237   2.197   7.435 -0.0451 -3.2712  0.3087
 4408TIP3   OH237418   6.893   2.274   7.103 -0.3587  0.6003  0.9049
 4408TIP3    H137419   6.933   2.191   7.128 -0.3521  0.2343 -0.2402
 4408TIP3    H237420   6.967   2.335   7.097  0.1999 -0.1667 -1.5908
 4409TIP3   OH237421   0.141   5.226   8.729  0.4588  0.3781 -0.1728
 4409TIP3    H137422   0.140   5.171   8.807  0.7174 -0.1011 -0.5059
 4409TIP3    H237423   0.230   5.216   8.693 -0.5039 -1.7607 -2.1832
 4410TIP3   OH237424   4.376   1.491   8.584  0.4971 -0.8088 -0.0682
 4410TIP3    H137425   4.435   1.556   8.547 -1.8883  0.8581 -1.1629
 4410TIP3    H237426   4.373   1.512   8.678 -1.5160  1.8924 -0.6304
 4411TIP3   OH237427   2.310   3.942   7.955  0.4773  0.2708  0.1449
 4411TIP3    H137428   2.254   3.929   8.031  2.0846 -0.0604  1.3208
 4411TIP3    H237429   2.339   4.033   7.962 -1.0066  0.9112 -1.2746
 4412TIP3   OH237430   3.751   1.989   7.088  0.5144  0.3919 -0.1996
 4412TIP3    H137431   3.721   2.075   7.118  0.2877 -0.3028  1.6746
 4412TIP3    H237432   3.807   2.009   7.013  0.0378  2.1293 -0.1532
 4413TIP3   OH237433   4.080   0.641   9.116  1.1215 -0.2122  0.6978
 4413TIP3    H137434   4.030   0.716   9.083  0.1320 -0.4785  1.5351
 4413TIP3    H237435   4.066   0.642   9.211  0.8302 -1.6284  0.6991
 4414TIP3   OH237436   2.571   2.373   7.219 -0.3906  0.0410 -0.0417
 4414TIP3    H137437   2.605   2.453   7.259 -1.8050  0.8437 -0.3470
 4414TIP3    H237438   2.604   2.375   7.129  0.3817 -0.2419  0.2292
 4415TIP3   OH237439   5.558   3.622   7.847  0.6410  0.4311 -0.3931
 4415TIP3    H137440   5.556   3.696   7.907 -0.3249  1.3724 -1.5422
 4415TIP3    H237441   5.623   3.563   7.884 -0.9717  0.2404  2.4064
 4416TIP3   OH237442   4.919   6.153   8.083  0.7307  0.0300  0.4192
 4416TIP3    H137443   5.001   6.123   8.045  0.6111  0.1512  0.0600
 4416TIP3    H237444   4.935   6.245   8.106  0.6524  0.0942  0.2200
 4417TIP3   OH237445   7.606   4.370   8.370 -0.1044  0.6325  0.5218
 4417TIP3    H137446   7.564   4.312   8.433  0.0037  0.2557  0.2471
 4417TIP3    H237447   7.592   4.329   8.285  1.7877 -0.1156  0.5292
 4418TIP3   OH237448   1.137   2.824   7.708  0.7073  0.1607 -0.2389
 4418TIP3    H137449   1.175   2.809   7.795  0.0631 -1.1072 -0.1427
 4418TIP3    H237450   1.144   2.739   7.665  2.3078  1.1103 -1.9808
 4419TIP3   OH237451   3.313   1.964   6.497  0.2748 -0.1791  0.1629
 4419TIP3    H137452   3.329   2.047   6.451 -0.4369 -0.8687 -1.3590
 4419TIP3    H237453   3.260   1.989   6.573  1.5458  0.9824  0.7149
 4420TIP3   OH237454   3.930   2.553   8.193  0.1240  0.1668 -0.4877
 4420TIP3    H137455   3.987   2.570   8.119  1.6402  1.3929  0.8916
 4420TIP3    H237456   3.989   2.547   8.268 -1.4864  0.5133  0.8601
 4421TIP3   OH237457   4.851   1.008   9.033 -0.5170 -0.0337  0.4206
 4421TIP3    H137458   4.850   1.094   9.076 -0.1561 -0.2106  0.7861
 4421TIP3    H237459   4.943   0.993   9.010 -0.7548  0.2334 -0.7854
 4422TIP3   OH237460   4.429   1.498   8.882 -0.6524 -0.3832  0.1034
 4422TIP3    H137461   4.422   1.430   8.949 -0.4153 -1.6274 -1.0961
 4422TIP3    H237462   4.512   1.479   8.838 -1.2211 -0.1182 -1.1140
 4423TIP3   OH237463   0.958   5.802   9.452  0.3654 -0.0278  0.2814
 4423TIP3    H137464   0.864   5.807   9.470  0.3998 -0.3792  0.5606
 4423TIP3    H237465   0.990   5.891   9.467  0.1808 -0.0425  0.7729
 4424TIP3   OH237466   4.791   0.200   8.375 -0.8881  0.2624  0.4426
 4424TIP3    H137467   4.717   0.181   8.317 -0.7373  2.3011 -0.5405
 4424TIP3    H237468   4.804   0.295   8.365  1.5333  0.0394  0.9816
 4425TIP3   OH237469   2.690   5.676   8.052 -0.2164 -0.0968  0.0806
 4425TIP3    H137470   2.618   5.739   8.049 -0.2898 -0.2234 -1.2882
 4425TIP3    H237471   2.651   5.594   8.024  0.5306 -0.0828 -1.0481
 4426TIP3   OH237472   6.393   2.341   7.156  0.1362 -0.3130 -0.3599
 4426TIP3    H137473   6.364   2.412   7.213 -0.0863  0.8175 -1.8083
 4426TIP3    H237474   6.477   2.314   7.193 -0.5261 -0.4256  1.1493
 4427TIP3   OH237475   0.759   4.703   8.683 -0.0631  0.0970  0.2179
 4427TIP3    H137476   0.669   4.673   8.700  0.7933 -2.3497  0.8147
 4427TIP3    H237477   0.751   4.757   8.605 -1.9044 -1.0291 -0.4497
 4428TIP3   OH237478   2.702   0.933   8.574 -0.2936  0.0091 -0.3284
 4428TIP3    H137479   2.689   1.010   8.630 -1.2820  0.0344 -0.5906
 4428TIP3    H237480   2.761   0.877   8.625  1.7413  1.6000 -0.7916
 4429TIP3   OH237481   4.974   7.413   9.391 -0.0932 -0.2792  0.1457
 4429TIP3    H137482   4.978   7.499   9.350 -0.1682  0.0451  0.8029
 4429TIP3    H237483   4.880   7.393   9.395 -0.0281 -0.9700 -1.1580
 4430TIP3   OH237484   5.287   2.655   8.178 -0.1463  0.4019 -0.0447
 4430TIP3    H137485   5.271   2.661   8.272  0.3926  0.9917  0.0121
 4430TIP3    H237486   5.231   2.722   8.139 -0.9009 -0.3148 -0.2130
 4431TIP3   OH237487   6.640   2.229   8.652 -0.2149  0.2297 -0.2317
 4431TIP3    H137488   6.626   2.177   8.732  0.1140  0.9454  0.3046
 4431TIP3    H237489   6.601   2.176   8.582 -0.6450 -0.3445  0.4220
 4432TIP3   OH237490   4.719   7.558   8.384 -0.0124 -0.0557  0.1008
 4432TIP3    H137491   4.685   7.648   8.379  1.3643  0.5730  1.3903
 4432TIP3    H237492   4.768   7.546   8.303 -0.8714  0.0330 -0.4533
 4433TIP3   OH237493   3.940   6.858   8.907 -0.2813  0.0359  0.2709
 4433TIP3    H137494   3.946   6.847   9.002 -1.7011 -0.0279  0.3727
 4433TIP3    H237495   3.872   6.797   8.880  0.2719 -0.1131 -0.8364
 4434TIP3   OH237496   3.491   6.891   7.244 -0.1302  0.1148  1.2193
 4434TIP3    H137497   3.525   6.895   7.333 -0.9847 -0.1395  1.5587
 4434TIP3    H237498   3.555   6.836   7.197  0.6040  0.6846  1.5274
 4435TIP3   OH237499   2.416   0.023   9.508  0.3082 -0.0148  0.0847
 4435TIP3    H137500   2.324   0.030   9.530  0.8294  0.7840  2.2558
 4435TIP3    H237501   2.434   0.098   9.451 -0.2392  0.1551  0.1387
 4436TIP3   OH237502   3.988   6.011   7.710  0.0792  0.1995  0.0513
 4436TIP3    H137503   3.983   5.945   7.641  0.5901  1.1780 -0.9483
 4436TIP3    H237504   3.947   6.089   7.673  0.3513  0.7432  0.8566
 4437TIP3   OH237505   4.250   6.395   7.688  0.4247 -0.3287 -0.1658
 4437TIP3    H137506   4.224   6.464   7.749  2.8470  0.8370 -0.3264
 4437TIP3    H237507   4.225   6.428   7.602  0.8783  0.0063 -0.1716
 4438TIP3   OH237508   5.601   1.022   7.175 -0.5043 -0.3569  0.6876
 4438TIP3    H137509   5.598   0.937   7.131  0.7006  0.7214 -1.6073
 4438TIP3    H237510   5.540   1.077   7.127  1.0208  0.9262  0.1494
 4439TIP3   OH237511   0.525   1.573   7.388 -0.0494  0.1943  0.1621
 4439TIP3    H137512   0.439   1.606   7.412 -0.9261 -0.3008 -2.0333
 4439TIP3    H237513   0.575   1.651   7.364  0.3663  0.5427  2.0068
 4440TIP3   OH237514   0.671   6.805   8.004  0.3739 -0.2013  0.0633
 4440TIP3    H137515   0.650   6.794   7.911  0.0519  1.9619 -0.1837
 4440TIP3    H237516   0.693   6.717   8.034  0.8794 -0.9163 -2.1503
 4441TIP3   OH237517   7.661   2.472   9.146  0.7138 -0.0111 -0.0799
 4441TIP3    H137518   7.637   2.563   9.131 -0.1365 -0.2033  0.0318
 4441TIP3    H237519   7.675   2.436   9.058 -1.8016 -0.4976 -0.3452
 4442TIP3   OH237520   0.045   0.555   7.262 -1.0310  0.1319 -0.4510
 4442TIP3    H137521   0.007   0.590   7.182 -2.7855 -0.8402 -0.0995
 4442TIP3    H237522   0.025   0.620   7.329 -0.6054  0.3990 -0.5849
 4443TIP3   OH237523   5.872   0.226   7.152  0.3941  0.3125  0.3636
 4443TIP3    H137524   5.826   0.184   7.079 -1.3178 -0.9534  2.0814
 4443TIP3    H237525   5.866   0.163   7.224  1.6028  1.7059  1.7704
 4444TIP3   OH237526   6.700   5.592   8.022  0.1791 -0.0447  0.4729
 4444TIP3    H137527   6.659   5.672   8.053 -0.2070  0.1549 -0.5349
 4444TIP3    H237528   6.655   5.521   8.069 -0.2857  0.2588  0.4853
 4445TIP3   OH237529   2.640   1.017   7.929  0.2018 -0.3103  0.2373
 4445TIP3    H137530   2.637   1.066   7.847  1.9027 -1.2110 -0.4195
 4445TIP3    H237531   2.587   0.939   7.913 -0.3640  0.0435  0.3786
 4446TIP3   OH237532   4.483   3.395   7.563  0.2397  0.3581  0.2027
 4446TIP3    H137533   4.411   3.350   7.607 -0.1155 -0.2128 -0.9167
 4446TIP3    H237534   4.471   3.375   7.470  2.9148 -1.3380  0.1256
 4447TIP3   OH237535   4.740   3.448   7.607  0.0534  0.1841 -0.2699
 4447TIP3    H137536   4.649   3.419   7.602 -0.2002  1.1012 -1.3509
 4447TIP3    H237537   4.740   3.516   7.674  0.3068 -1.0134  0.9897
 4448TIP3   OH237538   3.191   1.098   9.370 -0.4273  0.0119  0.4914
 4448TIP3    H137539   3.231   1.135   9.449  1.1549 -0.6675  0.0434
 4448TIP3    H237540   3.097   1.109   9.384 -0.2144 -0.4263  2.6320
 4449TIP3   OH237541   7.099   1.315   6.960 -0.5691  0.1625 -0.4279
 4449TIP3    H137542   7.022   1.310   6.904 -1.8554 -0.0745  1.2990
 4449TIP3    H237543   7.173   1.320   6.898 -2.0408  2.9253 -2.1946
 4450TIP3   OH237544   3.320   7.225   8.838 -0.2403  0.1437  0.2658
 4450TIP3    H137545   3.311   7.317   8.814 -1.1194 -0.1091 -0.4299
 4450TIP3    H237546   3.335   7.226   8.932 -1.3299  0.9472  0.4385
 4451TIP3   OH237547   2.719   5.577   7.464 -0.5021 -0.7845 -0.0182
 4451TIP3    H137548   2.802   5.569   7.512 -1.0132 -0.5923  0.9207
 4451TIP3    H237549   2.746   5.599   7.374  0.4732 -1.0802  0.1815
 4452TIP3   OH237550   5.407   4.377   7.877 -0.0280 -0.0633  0.0180
 4452TIP3    H137551   5.419   4.288   7.911  0.1492 -0.1841 -0.3531
 4452TIP3    H237552   5.488   4.423   7.900 -0.3657  0.1823  0.7465
 4453TIP3   OH237553   0.862   3.860   8.107  0.4890  0.6014  0.1652
 4453TIP3    H137554   0.948   3.825   8.130  0.3759 -0.9993 -1.6578
 4453TIP3    H237555   0.813   3.785   8.074 -1.1927  1.7218 -0.0272
 4454TIP3   OH237556   3.472   0.169   8.565 -0.1953  0.6111 -0.5386
 4454TIP3    H137557   3.535   0.241   8.571 -0.1746  0.5907 -0.5035
 4454TIP3    H237558   3.414   0.182   8.640  0.5689 -0.1143  0.2119
 4455TIP3   OH237559   3.438   1.702   9.307  0.1643  0.1842 -0.4601
 4455TIP3    H137560   3.525   1.661   9.305 -0.4888 -1.3187  0.0751
 4455TIP3    H237561   3.427   1.738   9.219  1.4934  0.7761 -0.4022
 4456TIP3   OH237562   4.607   3.466   8.746  0.0564  0.0033  0.5638
 4456TIP3    H137563   4.632   3.388   8.696 -1.1831 -0.3469  0.4558
 4456TIP3    H237564   4.682   3.482   8.804  1.3024  0.1077 -1.0149
 4457TIP3   OH237565   7.024   6.936   8.943  0.0623  0.2800  0.4657
 4457TIP3    H137566   7.027   6.892   9.028  1.9425 -0.0961  0.2447
 4457TIP3    H237567   7.029   6.865   8.879  1.4779  0.6846  0.0896
 4458TIP3   OH237568   2.761   1.186   6.565  1.1164 -1.0719 -0.9953
 4458TIP3    H137569   2.739   1.109   6.619 -0.2598 -0.6026 -0.8307
 4458TIP3    H237570   2.678   1.209   6.522  1.4114  0.5121 -0.7780
 4459TIP3   OH237571   3.067   2.450   9.047 -0.1437 -0.1304  0.3082
 4459TIP3    H137572   3.078   2.390   8.974 -0.6192  0.5909 -0.3725
 4459TIP3    H237573   3.100   2.402   9.123  0.9373 -0.6650 -0.4746
 4460TIP3   OH237574   5.280   5.280   8.828 -0.0814  0.6643  0.4752
 4460TIP3    H137575   5.354   5.314   8.776 -0.3880  0.8845  0.1746
 4460TIP3    H237576   5.225   5.357   8.842 -0.5761  0.3734  0.1479
 4461TIP3   OH237577   0.262   4.285   8.991  0.4443  0.1455 -0.0164
 4461TIP3    H137578   0.313   4.209   9.017  0.3262 -0.2659 -0.9365
 4461TIP3    H237579   0.304   4.315   8.910 -1.3760 -0.8443 -1.3951
 4462TIP3   OH237580   5.386   2.222   9.063 -0.7520  0.1704 -0.3469
 4462TIP3    H137581   5.351   2.199   8.977 -1.8160  2.8391 -0.7050
 4462TIP3    H237582   5.440   2.299   9.047 -0.9805  0.7215  1.3686
 4463TIP3   OH237583   5.267   5.025   7.056 -0.1374 -0.4680 -0.3567
 4463TIP3    H137584   5.226   4.941   7.036  0.1654 -0.5337 -0.7286
 4463TIP3    H237585   5.313   5.049   6.975  0.7266 -0.5017  0.1145
 4464TIP3   OH237586   1.539   4.408   8.822  0.3398  0.1792  0.0998
 4464TIP3    H137587   1.604   4.452   8.768  0.9334  1.5082  1.7830
 4464TIP3    H237588   1.468   4.472   8.831 -0.0426 -0.2688  0.3606
 4465TIP3   OH237589   3.985   5.690   7.149 -0.7365  0.5286 -0.5195
 4465TIP3    H137590   3.987   5.652   7.237  1.0020  1.3695 -0.1575
 4465TIP3    H237591   3.911   5.751   7.151 -1.1971 -0.0313  0.0978
 4466TIP3   OH237592   5.974   3.382   7.693  0.4675  0.6327  0.0464
 4466TIP3    H137593   5.912   3.451   7.713  0.4568  1.1324 -1.5891
 4466TIP3    H237594   6.036   3.421   7.632  1.6848 -0.2153  0.6756
 4467TIP3   OH237595   0.469   1.879   6.896  0.0606 -0.2657  0.2897
 4467TIP3    H137596   0.526   1.803   6.903 -1.2675 -1.2395  1.0560
 4467TIP3    H237597   0.510   1.945   6.951  0.6455 -0.8042  0.5146
 4468TIP3   OH237598   4.885   2.346   8.500  0.2108  0.3641 -0.1167
 4468TIP3    H137599   4.855   2.267   8.455 -1.5230  0.8156  0.1459
 4468TIP3    H237600   4.823   2.414   8.472  1.4360  1.5447 -0.0435
 4469TIP3   OH237601   1.885   3.216   9.065  0.0498 -0.5073  0.2554
 4469TIP3    H137602   1.814   3.275   9.041 -0.8694 -2.1997 -1.4019
 4469TIP3    H237603   1.842   3.142   9.108  0.8693 -1.2392 -0.1422
 4470TIP3   OH237604   7.353   7.348   7.098  0.2699 -0.4119 -0.0113
 4470TIP3    H137605   7.329   7.260   7.070 -1.2515  0.1392 -0.5819
 4470TIP3    H237606   7.281   7.375   7.155  1.3191  0.0241  1.1285
 4471TIP3   OH237607   5.796   6.183   8.994 -0.6504 -0.0680  0.0034
 4471TIP3    H137608   5.867   6.241   8.965  0.8375 -0.7804  1.9996
 4471TIP3    H237609   5.723   6.243   9.011  0.9349  1.3964  2.3333
 4472TIP3   OH237610   3.791   3.544   9.118 -0.2720  0.1670 -0.0026
 4472TIP3    H137611   3.884   3.522   9.122 -0.0793  1.1018  0.9719
 4472TIP3    H237612   3.746   3.464   9.147  0.1969 -0.4144 -0.8564
 4473TIP3   OH237613   4.948   5.814   6.861  0.6908 -0.0791 -0.0005
 4473TIP3    H137614   4.888   5.829   6.934 -0.2197 -0.5678 -0.6196
 4473TIP3    H237615   4.907   5.743   6.811  1.8274 -0.4629 -0.4117
 4474TIP3   OH237616   6.245   2.393   8.523  0.2523 -0.0388  0.0278
 4474TIP3    H137617   6.214   2.423   8.438 -3.6070  0.5295  1.4437
 4474TIP3    H237618   6.233   2.468   8.581  1.1549 -0.9373  1.4458
 4475TIP3   OH237619   4.303   4.856   8.691  0.2621 -0.6249  0.1781
 4475TIP3    H137620   4.273   4.849   8.600 -2.3043  0.2362  0.8794
 4475TIP3    H237621   4.360   4.780   8.703  1.0905 -0.5029 -2.2614
 4476TIP3   OH237622   4.979   5.110   9.114 -0.0969  0.2590  0.2343
 4476TIP3    H137623   4.899   5.150   9.148 -0.9237 -0.1544 -1.1307
 4476TIP3    H237624   5.029   5.184   9.078 -0.9571  0.2725 -0.9905
 4477TIP3   OH237625   2.512   5.237   7.809 -0.5246 -0.5758 -0.2197
 4477TIP3    H137626   2.565   5.292   7.750 -1.2018  0.2917 -0.0371
 4477TIP3    H237627   2.422   5.261   7.789 -0.7576  1.0232  2.3419
 4478TIP3   OH237628   5.738   6.406   6.782 -0.2955  0.0320  0.0966
 4478TIP3    H137629   5.688   6.346   6.837 -0.7552  0.9448  0.6880
 4478TIP3    H237630   5.829   6.384   6.799 -0.4508 -0.1067  0.7608
 4479TIP3   OH237631   3.907   4.753   6.919  0.1575 -0.5779 -0.3161
 4479TIP3    H137632   3.936   4.673   6.874  2.3400 -0.1883  0.2726
 4479TIP3    H237633   3.836   4.724   6.975  0.7892 -2.0999 -0.2483
 4480TIP3   OH237634   4.045   2.778   7.949  0.3461 -0.0569  0.1740
 4480TIP3    H137635   4.098   2.855   7.930  2.0134 -1.3570 -0.5944
 4480TIP3    H237636   4.107   2.706   7.954 -1.2709 -1.5250 -0.0190
 4481TIP3   OH237637   6.676   6.405   6.787 -0.1386  0.2737  0.5565
 4481TIP3    H137638   6.671   6.327   6.732  2.3655 -0.6651  1.5031
 4481TIP3    H237639   6.738   6.462   6.742 -0.1767  0.7039  1.0360
 4482TIP3   OH237640   3.004   0.213   7.314  0.2150  0.2843  0.2197
 4482TIP3    H137641   3.083   0.263   7.335  0.5513 -0.4114  0.6170
 4482TIP3    H237642   3.004   0.208   7.218  0.0659  1.2070  0.1570
 4483TIP3   OH237643   1.286   6.992   9.410 -0.0688 -0.4701 -0.0667
 4483TIP3    H137644   1.197   6.967   9.386  0.1901 -1.1523 -0.3797
 4483TIP3    H237645   1.283   7.086   9.424 -0.9014 -0.5384  0.2274
 4484TIP3   OH237646   6.295   1.625   8.841  0.2670  0.3826 -0.0030
 4484TIP3    H137647   6.237   1.626   8.765 -0.3985  0.3122  0.4979
 4484TIP3    H237648   6.299   1.716   8.870 -0.6186  0.2070  0.7200
 4485TIP3   OH237649   3.579   5.694   8.106 -0.1135  0.3066  0.6595
 4485TIP3    H137650   3.619   5.781   8.110  0.8197 -0.1085  0.5631
 4485TIP3    H237651   3.582   5.671   8.013 -1.1025  0.5010  0.5696
 4486TIP3   OH237652   0.494   4.624   8.683 -0.0837 -0.7282 -0.0012
 4486TIP3    H137653   0.488   4.550   8.622  2.2921  1.2543 -2.9857
 4486TIP3    H237654   0.412   4.672   8.670  0.2407 -0.5140 -1.5928
 4487TIP3   OH237655   0.274   3.397   6.789 -0.0049 -0.4226 -0.0051
 4487TIP3    H137656   0.279   3.397   6.693 -1.2431 -0.1093 -0.0796
 4487TIP3    H237657   0.348   3.343   6.816 -1.3736 -3.1592 -1.2516
 4488TIP3   OH237658   5.039   2.046   8.972 -0.4601  0.3108 -0.1063
 4488TIP3    H137659   5.053   2.099   9.051 -0.9477  2.1097 -1.1768
 4488TIP3    H237660   4.948   2.018   8.979 -0.5130  0.4934 -0.0355
 4489TIP3   OH237661   1.485   2.686   6.768  0.3212  0.2521  0.3050
 4489TIP3    H137662   1.520   2.599   6.750  0.8865  0.5777 -0.2027
 4489TIP3    H237663   1.545   2.724   6.832  1.8095  1.3584 -1.6294
 4490TIP3   OH237664   6.264   4.116   9.290  0.0089 -0.1661  0.2925
 4490TIP3    H137665   6.345   4.143   9.333 -0.5318  0.2142  1.1012
 4490TIP3    H237666   6.292   4.054   9.223  1.1209  1.1038 -0.4677
 4491TIP3   OH237667   3.423   3.931   6.543  0.0706 -0.4478  0.6824
 4491TIP3    H137668   3.380   3.874   6.479  2.7039  0.2853 -1.9810
 4491TIP3    H237669   3.468   3.870   6.602  0.9701 -1.2289 -0.7344
 4492TIP3   OH237670   3.727   3.116   7.875  0.4485 -0.0352  0.1554
 4492TIP3    H137671   3.775   3.101   7.957  0.2916  1.2232  0.4927
 4492TIP3    H237672   3.770   3.191   7.835  0.3875 -0.5058 -0.8313
 4493TIP3   OH237673   1.830   5.961   9.039 -0.3258 -0.2202  0.2295
 4493TIP3    H137674   1.876   6.006   8.968 -1.3667  0.5116  0.0053
 4493TIP3    H237675   1.878   5.879   9.050  1.0720  0.5458  0.0508
 4494TIP3   OH237676   5.883   0.080   7.408  0.4201 -0.3471 -0.0713
 4494TIP3    H137677   5.976   0.101   7.414  0.4976 -0.9064  0.7980
 4494TIP3    H237678   5.878  -0.014   7.422 -0.2409 -0.4009 -0.6087
 4495TIP3   OH237679   4.092   2.350   9.507  0.5637  0.1289  0.8424
 4495TIP3    H137680   4.082   2.445   9.503  0.2798  0.1812  2.4483
 4495TIP3    H237681   4.180   2.336   9.542  0.1813 -0.1790  1.6911
 4496TIP3   OH237682   6.496   5.956   7.250  0.3643  0.0418  0.6693
 4496TIP3    H137683   6.539   6.026   7.201 -0.7495 -0.0013 -0.4110
 4496TIP3    H237684   6.409   5.948   7.210 -0.0700 -0.9586  1.7445
 4497TIP3   OH237685   4.397   1.947   9.481  0.0349  0.6262 -0.2618
 4497TIP3    H137686   4.439   1.970   9.398 -0.5938  0.2371 -0.7040
 4497TIP3    H237687   4.325   1.889   9.455 -1.0408  1.5990  0.4070
 4498TIP3   OH237688   3.268   3.416   8.785  0.1566  0.0318  0.4742
 4498TIP3    H137689   3.362   3.405   8.801  0.2158  0.1029  0.1762
 4498TIP3    H237690   3.259   3.508   8.758 -0.1947  0.4698  1.9514
 4499TIP3   OH237691   6.990   2.156   8.032  0.2170  0.4449  0.0650
 4499TIP3    H137692   6.990   2.062   8.016  0.6340  0.7178 -1.7814
 4499TIP3    H237693   7.070   2.188   7.990  0.3012  1.5830  1.0225
 4500TIP3   OH237694   1.675   4.721   8.261  0.1273  0.1969  1.0993
 4500TIP3    H137695   1.708   4.671   8.336 -0.9438 -0.9331  0.8513
 4500TIP3    H237696   1.651   4.654   8.197  1.8923  1.1600 -0.6698
 4501TIP3   OH237697   2.521   2.844   7.271 -0.4713  0.1910 -0.1607
 4501TIP3    H137698   2.566   2.899   7.207  0.2456  0.5382  0.6250
 4501TIP3    H237699   2.580   2.770   7.284 -0.7388 -0.0122 -0.1012
 4502TIP3   OH237700   3.205   6.168   8.034  0.1145 -0.1395 -0.6727
 4502TIP3    H137701   3.177   6.085   8.072 -1.7045  1.1061  0.9702
 4502TIP3    H237702   3.138   6.230   8.063  0.0850  1.4751 -3.8058
 4503TIP3   OH237703   4.081   1.432   9.211  0.1754 -0.1060  0.2025
 4503TIP3    H137704   4.071   1.514   9.162  3.1595 -0.0256 -0.4528
 4503TIP3    H237705   4.014   1.437   9.280 -0.9855  1.9686 -0.9717
 4504TIP3   OH237706   3.645   4.500   7.366  0.3481  0.2377  0.5302
 4504TIP3    H137707   3.638   4.536   7.454 -2.5782  1.2500 -0.0078
 4504TIP3    H237708   3.609   4.568   7.309  1.9401 -0.4795 -1.4591
 4505TIP3   OH237709   5.268   2.425   9.344 -0.7243  0.3925  0.0733
 4505TIP3    H137710   5.280   2.375   9.264 -1.4745 -1.3645  1.0092
 4505TIP3    H237711   5.236   2.511   9.314 -1.3082 -0.3362 -1.4824
 4506TIP3   OH237712   0.417   4.812   6.919 -0.1410  0.3676  0.2132
 4506TIP3    H137713   0.393   4.786   6.831 -0.2213 -1.0008  0.6198
 4506TIP3    H237714   0.336   4.843   6.958 -0.0614  1.1795 -0.2518
 4507TIP3   OH237715   1.398   7.382   8.537 -0.6978 -0.3012 -0.3263
 4507TIP3    H137716   1.424   7.473   8.524  0.0135 -0.7119 -1.9510
 4507TIP3    H237717   1.357   7.356   8.455 -1.8473 -1.1644  0.4808
 4508TIP3   OH237718   5.007   5.528   6.518 -0.0168  0.2201 -0.7374
 4508TIP3    H137719   4.935   5.584   6.547 -0.5397 -0.2568 -1.0870
 4508TIP3    H237720   5.086   5.572   6.550 -0.5144  0.2359  0.5135
 4509TIP3   OH237721   4.016   5.426   8.227  0.0787  0.4988 -0.1488
 4509TIP3    H137722   4.044   5.517   8.236 -0.1445  0.6039 -0.4858
 4509TIP3    H237723   4.023   5.390   8.316 -0.2706  0.9727  0.0754
 4510TIP3   OH237724   4.413   2.050   8.128  0.0071 -0.0211 -0.4543
 4510TIP3    H137725   4.445   2.045   8.037 -0.1632  2.3185 -0.7081
 4510TIP3    H237726   4.355   2.126   8.128 -3.2032 -2.2810  0.7328
 4511TIP3   OH237727   2.823   0.412   7.003 -0.0601 -0.2003  0.1665
 4511TIP3    H137728   2.749   0.352   7.016  1.0456 -1.5744  0.4277
 4511TIP3    H237729   2.793   0.475   6.938 -1.7572 -0.1815  0.9258
 4512TIP3   OH237730   6.489   3.226   9.177 -0.5077  0.2899  0.0428
 4512TIP3    H137731   6.445   3.181   9.105 -2.7424 -0.2140  1.5907
 4512TIP3    H237732   6.435   3.205   9.254  1.5166  1.1443  1.7889
 4513TIP3   OH237733   2.021   4.331   8.703  0.0698  0.6485  0.0198
 4513TIP3    H137734   2.059   4.420   8.701  0.3970  0.5303 -2.4227
 4513TIP3    H237735   2.084   4.278   8.654 -1.5664 -0.2758 -1.1730
 4514TIP3   OH237736   3.781   7.077   9.101 -0.0017 -0.1852  0.2861
 4514TIP3    H137737   3.745   7.012   9.039 -2.2011 -0.7239  1.9815
 4514TIP3    H237738   3.784   7.158   9.050 -2.0669 -0.5276 -0.5174
 4515TIP3   OH237739   5.536   0.262   9.558 -0.2229 -0.0519  0.1410
 4515TIP3    H137740   5.492   0.184   9.525 -0.9794 -0.2867  1.6418
 4515TIP3    H237741   5.623   0.231   9.584 -0.4041 -0.3298  0.4244
 4516TIP3   OH237742   3.170   0.866   9.067  0.5375 -0.1585 -0.0972
 4516TIP3    H137743   3.255   0.878   9.024  0.6954  0.2319  0.3201
 4516TIP3    H237744   3.128   0.952   9.062 -0.6042 -0.7549 -1.8968
 4517TIP3   OH237745   4.331   0.882   8.881 -0.3568  0.0453 -0.2381
 4517TIP3    H137746   4.278   0.907   8.956  2.3829  3.0162  0.9342
 4517TIP3    H237747   4.422   0.892   8.911  0.8686  0.1847 -3.5723
 4518TIP3   OH237748   1.205   7.494   7.722 -0.2695 -0.3036  0.2745
 4518TIP3    H137749   1.265   7.464   7.653  0.5201 -0.4801  1.0126
 4518TIP3    H237750   1.201   7.420   7.783 -1.5971 -0.4572  0.0189
 4519TIP3   OH237751   5.720   3.605   8.831 -0.2269  0.1985  0.3768
 4519TIP3    H137752   5.656   3.539   8.806  0.2475  0.7428 -2.6900
 4519TIP3    H237753   5.686   3.642   8.912  0.2218 -4.6476  3.1802
 4520TIP3   OH237754   0.645   1.102   7.395 -0.5193 -0.2531  0.7349
 4520TIP3    H137755   0.648   1.130   7.304 -1.4166 -0.3630  0.6616
 4520TIP3    H237756   0.577   1.034   7.397 -0.1600 -0.6091  1.3891
 4521TIP3   OH237757   7.341   1.137   7.323  0.2925 -0.3608 -0.0878
 4521TIP3    H137758   7.254   1.165   7.351 -0.0351 -1.4603  0.0509
 4521TIP3    H237759   7.385   1.218   7.299 -1.1436  0.1430 -1.2118
 4522TIP3   OH237760   0.607   4.360   7.684 -0.0613 -0.0985 -0.5807
 4522TIP3    H137761   0.575   4.280   7.643  1.7968 -1.2701  0.1143
 4522TIP3    H237762   0.634   4.332   7.772  0.6595  1.2623 -0.3431
 4523TIP3   OH237763   0.065   2.162   7.644  0.3670  0.1190  0.0694
 4523TIP3    H137764   0.083   2.230   7.579 -1.7492  1.9146  1.2495
 4523TIP3    H237765   0.096   2.198   7.727 -1.4207 -0.0078  0.8278
 4524TIP3   OH237766   3.515   1.979   9.326 -0.5519  0.3218 -0.2384
 4524TIP3    H137767   3.423   2.002   9.336 -0.9371 -1.2379 -0.0050
 4524TIP3    H237768   3.516   1.883   9.322  1.0032  0.3337 -0.8185
 4525TIP3   OH237769   2.248   0.482   7.868 -0.0029  0.1477 -0.3094
 4525TIP3    H137770   2.276   0.395   7.840 -1.4178 -0.2707 -0.4932
 4525TIP3    H237771   2.216   0.524   7.788 -1.0064  0.1560  0.0834
 4526TIP3   OH237772   3.580   3.201   8.223  0.1760  0.0960  0.2086
 4526TIP3    H137773   3.576   3.244   8.137  0.5581  0.4193  0.3492
 4526TIP3    H237774   3.512   3.244   8.275  1.5189  1.5948  0.8144
 4527TIP3   OH237775   7.179   4.727   8.415 -0.2398  0.1001  0.3940
 4527TIP3    H137776   7.263   4.707   8.374  1.2250  0.2685  3.0634
 4527TIP3    H237777   7.114   4.684   8.360  1.8639 -2.5514 -0.2084
 4528TIP3   OH237778   1.236   0.214   8.506 -0.2483  0.0626  0.4483
 4528TIP3    H137779   1.141   0.210   8.504 -0.2643 -0.4782  1.5956
 4528TIP3    H237780   1.263   0.126   8.530  0.5111  0.3825  0.7993
 4529TIP3   OH237781   1.467   2.215   7.664 -0.0376  0.7320  0.1839
 4529TIP3    H137782   1.486   2.279   7.732  0.8353 -0.1912  0.8397
 4529TIP3    H237783   1.382   2.179   7.686  0.5452 -0.0644  1.2160
 4530TIP3   OH237784   2.828   3.496   8.137 -0.2606  0.4607 -0.3512
 4530TIP3    H137785   2.849   3.583   8.171  0.1825  0.1776  0.1237
 4530TIP3    H237786   2.732   3.496   8.129 -0.4500  0.3812  1.4022
 4531TIP3   OH237787   2.192   5.272   7.054 -0.3876  0.0210 -0.2968
 4531TIP3    H137788   2.194   5.261   6.959  1.8095 -1.2843 -0.1641
 4531TIP3    H237789   2.122   5.214   7.084 -0.4241 -0.3301 -1.0491
 4532TIP3   OH237790   6.226   1.649   6.798 -0.0400 -0.0147  0.0589
 4532TIP3    H137791   6.287   1.596   6.848 -2.0486 -1.2481  1.3428
 4532TIP3    H237792   6.186   1.707   6.863 -0.8421  0.1709 -0.5818
 4533TIP3   OH237793   2.261   2.681   7.680 -0.5216  0.1809  0.2644
 4533TIP3    H137794   2.351   2.654   7.701 -0.9738 -0.8263  0.9773
 4533TIP3    H237795   2.261   2.776   7.692  0.3078  0.1208  0.8197
 4534TIP3   OH237796   5.996   3.167   7.856  0.5237  0.2455 -0.3387
 4534TIP3    H137797   5.986   3.210   7.941  0.8058 -0.9197  0.3093
 4534TIP3    H237798   6.003   3.239   7.794 -0.7117  1.1329  0.4909
 4535TIP3   OH237799   3.795   6.460   8.569  0.0458 -0.3604  0.2727
 4535TIP3    H137800   3.700   6.448   8.577  0.0339 -0.0175  0.7124
 4535TIP3    H237801   3.810   6.482   8.477 -0.2829 -0.5921  0.1645
 4536TIP3   OH237802   2.630   1.416   7.746 -0.0892 -0.5325  0.1935
 4536TIP3    H137803   2.655   1.324   7.751  0.8714 -0.3558 -0.9518
 4536TIP3    H237804   2.629   1.436   7.652  0.3992  0.8087  0.4458
 4537TIP3   OH237805   2.696   2.723   6.676  0.4512  0.2253  0.3185
 4537TIP3    H137806   2.752   2.695   6.748  1.4249  0.3681 -0.3681
 4537TIP3    H237807   2.711   2.818   6.670  0.6329  0.1566 -0.2918
 4538TIP3   OH237808   1.361   6.322   9.426  0.1516  0.4482 -0.5397
 4538TIP3    H137809   1.411   6.381   9.370  1.2238  1.2244  1.1512
 4538TIP3    H237810   1.377   6.353   9.515 -1.2582 -0.9009  0.2499
 4539TIP3   OH237811   1.011   4.315   7.575  0.4059 -0.1008  0.1090
 4539TIP3    H137812   1.018   4.374   7.500  1.8227  1.4677  1.4039
 4539TIP3    H237813   0.926   4.273   7.564  0.0448  0.9704 -1.7238
 4540TIP3   OH237814   1.867   3.199   8.131 -0.1452 -0.1872  0.4748
 4540TIP3    H137815   1.863   3.104   8.148  1.9064 -1.1593 -3.3037
 4540TIP3    H237816   1.783   3.219   8.088  0.3354 -0.9041 -0.8604
 4541TIP3   OH237817   6.723   3.172   8.261 -0.0316  0.0142 -0.1672
 4541TIP3    H137818   6.766   3.187   8.177 -0.6059  0.1992 -0.4346
 4541TIP3    H237819   6.785   3.119   8.311  0.8622  0.9609 -0.2319
 4542TIP3   OH237820   4.509   1.880   7.317  0.0915  0.1600 -0.1308
 4542TIP3    H137821   4.474   1.811   7.260  3.1073 -0.8008 -1.0252
 4542TIP3    H237822   4.503   1.844   7.405  0.8955 -0.9588 -0.5116
 4543TIP3   OH237823   2.360   1.518   8.256 -0.6085 -0.1324  0.0178
 4543TIP3    H137824   2.371   1.494   8.348 -1.2567  0.3612  0.2303
 4543TIP3    H237825   2.437   1.571   8.235 -1.5897  1.7891  0.9755
 4544TIP3   OH237826   6.739   0.727   9.404 -0.4697 -0.0963 -0.2162
 4544TIP3    H137827   6.735   0.750   9.496 -1.7110 -0.8893 -0.0480
 4544TIP3    H237828   6.675   0.784   9.361  0.2390  0.4047 -0.6276
 4545TIP3   OH237829   3.788   0.467   6.800 -0.0532  0.5273  0.1655
 4545TIP3    H137830   3.772   0.374   6.784 -0.2246  0.0982  2.4862
 4545TIP3    H237831   3.747   0.485   6.885 -1.0491  3.0300 -0.7500
 4546TIP3   OH237832   0.095   4.862   7.567  0.2813 -0.3154  0.4496
 4546TIP3    H137833   0.006   4.828   7.562 -1.2709  3.2144  1.2092
 4546TIP3    H237834   0.116   4.889   7.478  0.3987 -0.6837  0.3648
 4547TIP3   OH237835   3.651   3.957   8.122  0.4903  0.4179 -0.4328
 4547TIP3    H137836   3.715   3.914   8.065 -0.2342 -0.5476 -0.5356
 4547TIP3    H237837   3.682   3.940   8.210  0.5418  0.2052 -0.4910
 4548TIP3   OH237838   3.721   6.461   7.165  0.3925 -0.3123 -0.6722
 4548TIP3    H137839   3.805   6.439   7.125  0.8568  1.2795 -0.6394
 4548TIP3    H237840   3.742   6.532   7.227 -0.8459 -0.4333 -0.0946
 4549TIP3   OH237841   2.684   3.422   8.480 -0.5740 -0.4687 -0.4434
 4549TIP3    H137842   2.599   3.383   8.499 -0.1800 -0.3815  1.7862
 4549TIP3    H237843   2.664   3.512   8.455 -1.1206  0.2587  2.2361
 4550TIP3   OH237844   1.367   4.737   7.648  0.0037  0.3722  0.6883
 4550TIP3    H137845   1.422   4.802   7.691 -0.8148  0.2219  2.0319
 4550TIP3    H237846   1.298   4.719   7.712 -0.8512 -0.4098 -0.4237
 4551TIP3   OH237847   1.120   1.978   9.003 -0.5550  0.6325 -0.7552
 4551TIP3    H137848   1.183   1.941   8.941 -0.2068 -0.8487  0.4252
 4551TIP3    H237849   1.125   2.073   8.989  2.1317  0.6032 -0.5569
 4552TIP3   OH237850   7.147   0.977   7.132 -0.0592 -0.1854 -0.2270
 4552TIP3    H137851   7.118   1.066   7.152  1.3661  0.2140  0.1502
 4552TIP3    H237852   7.206   0.986   7.058  0.4341 -0.7586  0.0823
 4553TIP3   OH237853   0.815   6.240   7.146 -0.3695 -0.1687  0.0996
 4553TIP3    H137854   0.730   6.202   7.123 -0.9769  1.3634 -0.3526
 4553TIP3    H237855   0.848   6.184   7.216 -2.4617  0.0173  1.3496
 4554TIP3   OH237856   3.236   3.074   8.757  1.0078  0.2745  1.1068
 4554TIP3    H137857   3.174   3.147   8.759  1.9345  1.0764  1.9142
 4554TIP3    H237858   3.220   3.031   8.673  0.9613  1.8646  0.2706
 4555TIP3   OH237859   5.276   6.324   8.994 -0.1778 -0.0503  0.7232
 4555TIP3    H137860   5.249   6.382   9.065  1.0183  0.3126  0.9120
 4555TIP3    H237861   5.196   6.305   8.946 -0.6477  1.6103  0.7799
 4556TIP3   OH237862   7.557   1.121   9.537 -0.0611  0.1804  0.0460
 4556TIP3    H137863   7.617   1.164   9.597 -0.5296  0.2928  0.4453
 4556TIP3    H237864   7.476   1.171   9.544 -0.9151 -1.2502  1.2131
 4557TIP3   OH237865   7.103   7.095   8.573  0.0805  0.3603 -0.4900
 4557TIP3    H137866   7.114   7.114   8.480 -0.3067 -0.1696 -0.6484
 4557TIP3    H237867   7.130   7.176   8.617 -1.8450  1.4317 -1.1561
 4558TIP3   OH237868   5.652   1.566   7.857 -0.2579 -0.0143 -0.3012
 4558TIP3    H137869   5.627   1.629   7.924  0.1954  0.2942 -0.4092
 4558TIP3    H237870   5.678   1.620   7.782  1.9136 -0.2380  0.2247
 4559TIP3   OH237871   3.632   2.971   6.878 -0.3004 -0.3815  0.0055
 4559TIP3    H137872   3.626   2.920   6.959  1.1599  0.2164  0.5108
 4559TIP3    H237873   3.585   2.917   6.813  0.7945 -2.1771  0.6229
 4560TIP3   OH237874   2.299   5.135   8.171 -0.6119 -0.2528  0.0422
 4560TIP3    H137875   2.327   5.202   8.233  0.6883 -0.4549 -0.3141
 4560TIP3    H237876   2.208   5.159   8.151 -0.3822  1.0346  0.4066
 4561TIP3   OH237877   3.586   4.444   7.896 -0.7515 -0.3589  0.1652
 4561TIP3    H137878   3.630   4.466   7.978 -2.2009  0.2807  0.8156
 4561TIP3    H237879   3.500   4.486   7.903 -1.1210 -0.7707 -1.4442
 4562TIP3   OH237880   6.743   5.988   7.063  0.0727  0.4210 -0.0424
 4562TIP3    H137881   6.752   5.952   7.151  0.9047 -0.3067 -0.4125
 4562TIP3    H237882   6.802   6.064   7.062  1.7919 -0.8341 -0.6016
 4563TIP3   OH237883   5.365   4.021   8.378 -0.0403 -0.3237 -0.1911
 4563TIP3    H137884   5.323   3.971   8.307 -0.0322  0.4037 -0.7207
 4563TIP3    H237885   5.430   3.961   8.414  0.5271 -0.4366 -1.3527
 4564TIP3   OH237886   2.338   3.988   7.609 -0.7496  0.8918  0.1874
 4564TIP3    H137887   2.387   4.061   7.573 -0.9267  1.4010  0.9599
 4564TIP3    H237888   2.402   3.940   7.662 -0.6123  0.4340 -0.3885
 4565TIP3   OH237889   3.720   6.485   7.572  0.5217 -0.3053  0.3424
 4565TIP3    H137890   3.751   6.414   7.628 -0.8284  0.0004  1.5237
 4565TIP3    H237891   3.643   6.520   7.617 -0.0951  0.5336 -1.2741
 4566TIP3   OH237892   4.412   0.443   7.293 -0.2853 -0.1178  0.1838
 4566TIP3    H137893   4.460   0.458   7.211 -1.2229  2.2169 -0.0114
 4566TIP3    H237894   4.334   0.395   7.266 -0.6724  0.7800 -0.3550
 4567TIP3   OH237895   4.129   3.224   7.066 -0.0674 -0.0845 -0.4981
 4567TIP3    H137896   4.222   3.208   7.053 -0.0704  1.6246 -3.5115
 4567TIP3    H237897   4.086   3.174   6.997 -1.1898  0.8868 -0.5335
 4568TIP3   OH237898   5.287   4.574   7.467 -0.5145  0.3306  0.5062
 4568TIP3    H137899   5.248   4.649   7.511 -1.7285  1.0977 -1.7318
 4568TIP3    H237900   5.341   4.612   7.398 -0.7791 -0.8307 -0.3675
 4569TIP3   OH237901   3.194   3.071   7.472  0.0668  0.6278  0.6393
 4569TIP3    H137902   3.142   3.120   7.535 -3.3671 -0.8883 -0.7569
 4569TIP3    H237903   3.190   2.980   7.502 -0.5490  0.0700 -1.0132
 4570TIP3   OH237904   5.863   0.073   9.247  0.2808  0.5215 -0.2697
 4570TIP3    H137905   5.861   0.168   9.236  1.9706  0.6589  0.3549
 4570TIP3    H237906   5.880   0.039   9.160  0.2787  0.8280 -0.3915
 4571TIP3   OH237907   0.699   7.653   7.701  0.1184  0.0515 -0.5499
 4571TIP3    H137908   0.681   7.593   7.773 -2.3536  1.1123 -0.1549
 4571TIP3    H237909   0.781   7.697   7.725 -1.2314  1.2722  2.3284
 4572TIP3   OH237910   3.958   1.842   7.186 -0.0980 -0.3742 -0.1095
 4572TIP3    H137911   3.885   1.892   7.150  0.2450  1.0133  1.0283
 4572TIP3    H237912   4.031   1.860   7.126 -0.5924 -1.5666 -1.1086
 4573TIP3   OH237913   4.360   2.540   6.689  0.0039  0.4637 -0.1558
 4573TIP3    H137914   4.451   2.517   6.670 -0.2154 -0.3367 -0.2789
 4573TIP3    H237915   4.329   2.469   6.745 -0.5390  0.7434 -0.0943
 4574TIP3   OH237916   4.736   4.348   8.165 -0.5733  0.1183 -0.5216
 4574TIP3    H137917   4.711   4.257   8.147 -1.4770  0.2176  0.1491
 4574TIP3    H237918   4.831   4.351   8.150 -0.2318 -1.3425  1.0484
 4575TIP3   OH237919   6.375   1.462   9.039 -0.4960 -0.1889  0.5859
 4575TIP3    H137920   6.363   1.490   8.948 -1.6623  1.8059  1.3001
 4575TIP3    H237921   6.444   1.518   9.073  0.8003 -1.7453  0.6434
 4576TIP3   OH237922   6.141   5.129   6.712 -0.1117 -0.1827 -0.2296
 4576TIP3    H137923   6.103   5.103   6.795 -0.4088  0.8114 -0.0462
 4576TIP3    H237924   6.154   5.046   6.665 -1.3523 -0.6367  0.1882
 4577TIP3   OH237925   4.213   1.784   8.109  0.0933  0.4678 -0.5041
 4577TIP3    H137926   4.266   1.831   8.172 -0.4837 -1.0518  1.1889
 4577TIP3    H237927   4.223   1.833   8.027  1.6660  1.9013  0.5012
 4578TIP3   OH237928   7.220   4.480   8.110 -0.1009  0.2207 -0.1061
 4578TIP3    H137929   7.217   4.475   8.014  2.1786  0.4180 -0.2608
 4578TIP3    H237930   7.147   4.537   8.133 -0.0646  1.0515 -1.8457
 4579TIP3   OH237931   3.083   2.321   8.762  0.5680  0.1766  0.2170
 4579TIP3    H137932   3.038   2.383   8.704  0.4809 -1.1262 -1.1628
 4579TIP3    H237933   3.174   2.322   8.732  0.5464 -0.4145  0.1161
 4580TIP3   OH237934   6.502   4.767   9.418  0.4467 -0.5341 -0.2715
 4580TIP3    H137935   6.523   4.856   9.446  1.8393 -0.7310 -0.6425
 4580TIP3    H237936   6.583   4.718   9.432  0.1371 -1.4067 -1.4401
 4581TIP3   OH237937   4.961   5.610   7.825 -0.1720  0.4582  0.5391
 4581TIP3    H137938   4.913   5.655   7.895  0.2580  0.8753  0.5735
 4581TIP3    H237939   5.036   5.667   7.808 -0.6793  0.7606 -0.7977
 4582TIP3   OH237940   2.649   2.320   8.057  0.5391 -0.2931 -0.0263
 4582TIP3    H137941   2.688   2.341   7.973 -0.3117 -0.7324 -0.5465
 4582TIP3    H237942   2.565   2.280   8.035  0.0512  0.1079  1.0469
 4583TIP3   OH237943   6.247   6.102   6.966 -0.4287 -0.6407 -0.2687
 4583TIP3    H137944   6.257   6.037   7.035 -1.9577 -1.5768 -0.8899
 4583TIP3    H237945   6.337   6.121   6.938  0.0649 -2.3836  0.0210
 4584TIP3   OH237946   4.678   5.827   9.293  0.3195  0.5398 -0.1271
 4584TIP3    H137947   4.634   5.911   9.309 -1.9188 -0.1090 -2.3253
 4584TIP3    H237948   4.709   5.833   9.203  0.9268 -0.6721 -0.0157
 4585TIP3   OH237949   4.437   0.656   8.422  0.0036  0.6108  0.1382
 4585TIP3    H137950   4.345   0.649   8.395 -0.1260 -0.8288  0.8577
 4585TIP3    H237951   4.441   0.740   8.468 -0.9548  0.7006  0.0935
 4586TIP3   OH237952   1.781   7.498   8.329  0.5138 -0.1704  0.2476
 4586TIP3    H137953   1.804   7.413   8.291 -1.3921 -0.0226 -1.4520
 4586TIP3    H237954   1.760   7.479   8.420  1.3895 -1.2880  0.2332
 4587TIP3   OH237955   0.571   0.816   9.398 -0.3518 -0.0756  0.2190
 4587TIP3    H137956   0.640   0.862   9.447 -0.5847 -0.1439  0.6156
 4587TIP3    H237957   0.490   0.838   9.444 -1.0140  2.2564 -1.8194
 4588TIP3   OH237958   4.515   5.255   8.932  0.1580  0.1965  0.2038
 4588TIP3    H137959   4.593   5.201   8.943 -1.9328 -3.4489 -1.0538
 4588TIP3    H237960   4.517   5.282   8.840 -0.6520 -1.0065 -0.1818
 4589TIP3   OH237961   0.166   3.981   7.493  0.1794 -0.0769  0.0716
 4589TIP3    H137962   0.224   3.905   7.503  2.1973  1.0733 -2.0198
 4589TIP3    H237963   0.145   3.983   7.400 -0.3453  1.5799  0.1995
 4590TIP3   OH237964   6.521   2.993   8.256 -0.3968 -0.0226  0.4990
 4590TIP3    H137965   6.586   3.062   8.248 -0.0706 -0.4154 -0.3883
 4590TIP3    H237966   6.457   3.010   8.187  0.2426 -1.1732 -0.4145
 4591TIP3   OH237967   7.329   2.508   9.193 -0.5082 -0.4838  0.6261
 4591TIP3    H137968   7.383   2.440   9.234 -1.0240  0.3389  2.8345
 4591TIP3    H237969   7.269   2.536   9.263 -2.5917 -0.1089 -1.2046
 4592TIP3   OH237970   4.990   0.743   8.408  0.1742 -0.2983  0.3465
 4592TIP3    H137971   5.066   0.689   8.427 -0.5918 -0.9578  1.6235
 4592TIP3    H237972   5.024   0.811   8.349  2.0863  0.3166  2.0344
 4593TIP3   OH237973   4.029   0.147   8.322 -0.4025 -0.5354  0.6386
 4593TIP3    H137974   3.939   0.145   8.290  0.0634 -0.1561 -0.7511
 4593TIP3    H237975   4.025   0.199   8.403 -1.4475 -0.6698  0.6759
 4594TIP3   OH237976   1.587   0.604   7.830 -0.3487 -0.4086  0.0575
 4594TIP3    H137977   1.681   0.619   7.843 -0.5655  0.3712  0.7786
 4594TIP3    H237978   1.582   0.552   7.750  0.6076  0.9443 -0.9124
 4595TIP3   OH237979   3.090   6.520   7.791  0.5291  0.0011 -0.0729
 4595TIP3    H137980   3.001   6.487   7.801  0.0753  0.7352 -1.4477
 4595TIP3    H237981   3.135   6.452   7.741 -0.0136  0.7789 -1.6716
 4596TIP3   OH237982   5.000   3.489   8.546 -0.4066  0.1916 -0.3742
 4596TIP3    H137983   5.015   3.564   8.604 -0.8565 -0.4738  0.6329
 4596TIP3    H237984   5.086   3.449   8.536 -0.3539  0.2209 -0.0374
 4597TIP3   OH237985   3.260   3.014   8.058  0.4792 -0.1192 -0.3282
 4597TIP3    H137986   3.214   3.086   8.015  1.9884  0.8469 -0.4053
 4597TIP3    H237987   3.327   2.988   7.995  0.6079 -0.9185  0.1231
 4598TIP3   OH237988   6.708   1.090   9.473  0.1894 -0.1073 -0.3820
 4598TIP3    H137989   6.761   1.164   9.502  1.3192 -1.4650  1.2668
 4598TIP3    H237990   6.758   1.051   9.401  0.2281  0.0260 -0.4261
 4599TIP3   OH237991   2.413   6.593   6.831  0.2247  0.1717 -0.4694
 4599TIP3    H137992   2.441   6.511   6.872 -0.0162 -0.3885 -1.3844
 4599TIP3    H237993   2.491   6.625   6.787  0.2148  0.2264 -0.4475
 4600TIP3   OH237994   7.334   6.223   8.732 -0.2561  0.7522  0.5714
 4600TIP3    H137995   7.248   6.184   8.743  0.0563  0.4426  2.2608
 4600TIP3    H237996   7.395   6.153   8.756  0.4309  1.2274  0.2513
 4601TIP3   OH237997   4.821   5.902   8.707  0.4219  0.8501  0.0139
 4601TIP3    H137998   4.748   5.874   8.652  0.3910  4.0750 -1.8867
 4601TIP3    H237999   4.807   5.857   8.791 -1.2963 -1.8893 -1.5911
 4602TIP3   OH238000   3.773   6.762   8.547  0.7806  0.1086  0.0733
 4602TIP3    H138001   3.703   6.819   8.515  2.0670  0.3935 -2.5747
 4602TIP3    H238002   3.746   6.736   8.634 -1.4440  2.1275  0.0814
 4603TIP3   OH238003   0.889   0.698   7.754  0.1504  0.3735 -0.5576
 4603TIP3    H138004   0.949   0.640   7.708 -0.2618 -2.0429  1.7037
 4603TIP3    H238005   0.929   0.711   7.840 -1.7898 -0.0426  0.4641
 4604TIP3   OH238006   1.885   3.807   7.684 -0.5903  0.4516  0.2891
 4604TIP3    H138007   1.915   3.822   7.594  0.0989  0.9277  0.5876
 4604TIP3    H238008   1.959   3.835   7.739 -0.6706 -0.6115  0.9846
 4605TIP3   OH238009   2.616   3.365   9.234  0.6022  0.1623  0.1276
 4605TIP3    H138010   2.533   3.329   9.203  2.0450 -1.8964 -1.6657
 4605TIP3    H238011   2.642   3.307   9.306  2.9669 -2.9209 -2.8127
 4606TIP3   OH238012   6.781   4.713   8.857  0.3481  0.6046  0.1918
 4606TIP3    H138013   6.786   4.749   8.945  0.2512  0.2446  0.3445
 4606TIP3    H238014   6.872   4.694   8.833  0.2287 -1.0762  0.9579
 4607TIP3   OH238015   0.438   0.945   7.894 -0.6742  0.3210 -0.0633
 4607TIP3    H138016   0.524   0.911   7.919 -0.5610  0.0376 -0.7957
 4607TIP3    H238017   0.382   0.869   7.890 -0.5925  0.2886 -1.0111
 4608TIP3   OH238018   6.975   0.295   7.206  0.2234 -0.1348 -0.0953
 4608TIP3    H138019   6.892   0.340   7.221  0.1997 -0.8225  2.3561
 4608TIP3    H238020   6.956   0.231   7.138 -1.3283 -0.3776  0.5211
 4609TIP3   OH238021   6.624   5.556   9.051  0.1456 -0.1047  0.2930
 4609TIP3    H138022   6.681   5.503   8.996  0.8264  0.7855  0.1172
 4609TIP3    H238023   6.680   5.583   9.124 -0.1893  0.3704  0.3792
 4610TIP3   OH238024   6.159   2.723   8.039  0.3650  0.4553  0.5507
 4610TIP3    H138025   6.101   2.650   8.018 -0.5709  1.5321 -0.7776
 4610TIP3    H238026   6.115   2.768   8.110 -0.9741  1.7955 -1.0527
 4611TIP3   OH238027   3.059   1.605   6.538  0.4491  0.1165 -0.3786
 4611TIP3    H138028   3.016   1.520   6.542  0.4532  0.1592  1.1430
 4611TIP3    H238029   2.991   1.668   6.564  1.0887  0.3005  0.9386
 4612TIP3   OH238030   2.966   6.505   9.176  0.0293  0.5935 -0.3140
 4612TIP3    H138031   2.965   6.598   9.151  0.5809  0.5333 -0.5886
 4612TIP3    H238032   2.943   6.505   9.268  2.2382  1.2360  0.3155
 4613TIP3   OH238033   5.211   3.666   7.523 -0.2732  0.1146 -0.1459
 4613TIP3    H138034   5.139   3.644   7.581  0.5058  0.6741  1.0642
 4613TIP3    H238035   5.232   3.757   7.543  0.1922  0.2340 -1.1145
 4614TIP3   OH238036   1.046   7.012   7.544  0.1582 -0.7006 -0.3172
 4614TIP3    H138037   1.045   7.093   7.595  0.1253 -1.4784  0.9797
 4614TIP3    H238038   0.956   7.002   7.514  0.4240  0.3582 -1.5433
 4615TIP3   OH238039   7.058   2.979   9.046  0.2128  0.1669 -0.2686
 4615TIP3    H138040   7.071   2.934   9.129 -2.8801  0.7479  0.6412
 4615TIP3    H238041   7.109   3.060   9.054  1.2868 -0.5407  0.3213
 4616TIP3   OH238042   7.054   4.614   9.336 -0.8066 -0.6074  0.4831
 4616TIP3    H138043   7.073   4.706   9.316  1.7971 -0.9366  1.0770
 4616TIP3    H238044   7.071   4.607   9.430 -0.3391 -1.8306  0.3194
 4617TIP3   OH238045   1.254   1.107   7.795  0.2731  0.3615  0.6386
 4617TIP3    H138046   1.160   1.090   7.790  0.3932 -0.0864 -0.5450
 4617TIP3    H238047   1.287   1.038   7.852  0.0109 -0.1204  0.2209
 4618TIP3   OH238048   1.422   4.056   7.442  0.0649  0.4462  0.3425
 4618TIP3    H138049   1.503   4.019   7.478 -0.0442  0.4245  0.5620
 4618TIP3    H238050   1.422   4.027   7.351 -0.3264 -0.6014  0.6690
 4619TIP3   OH238051   4.719   7.453   6.662  0.0605  0.1669 -0.3253
 4619TIP3    H138052   4.646   7.393   6.679  0.2278 -0.2967 -1.1602
 4619TIP3    H238053   4.709   7.476   6.570  2.2002 -1.6431 -1.1126
 4620TIP3   OH238054   5.225   7.326   7.817  0.1197 -0.2801  0.3244
 4620TIP3    H138055   5.187   7.241   7.792 -0.4073  0.3592 -1.1747
 4620TIP3    H238056   5.210   7.382   7.741  0.8289  1.0540  1.1302
 4621TIP3   OH238057   6.944   1.139   9.273  0.0763  0.3779  0.1627
 4621TIP3    H138058   6.952   1.113   9.182 -2.2080 -0.8605  0.2521
 4621TIP3    H238059   6.874   1.204   9.274  0.1699  0.4820  1.0152
 4622TIP3   OH238060   1.502   0.659   8.941  0.2010 -0.1695  0.4459
 4622TIP3    H138061   1.425   0.636   8.890 -0.3156 -1.9707  1.9402
 4622TIP3    H238062   1.473   0.655   9.032  1.3857  1.8144  0.9893
 4623TIP3   OH238063   6.070   5.699   8.428 -0.2474  0.5185  0.0625
 4623TIP3    H138064   6.018   5.726   8.504 -2.1081  1.2851 -1.4092
 4623TIP3    H238065   6.021   5.731   8.353  1.1474 -0.8772 -1.5165
 4624TIP3   OH238066   1.158   6.219   6.718  0.2123  0.3283 -0.4248
 4624TIP3    H138067   1.189   6.288   6.660  0.0335  0.8164  0.0482
 4624TIP3    H238068   1.074   6.193   6.682  0.7956 -0.4629 -1.2702
 4625TIP3   OH238069   6.989   6.510   9.237  0.6043 -0.8507 -0.1525
 4625TIP3    H138070   6.980   6.486   9.329 -0.0172  0.0122  0.0151
 4625TIP3    H238071   7.025   6.599   9.239  2.2873 -1.4779 -0.7667
 4626TIP3   OH238072   4.730   1.603   7.693  0.4368  0.1115  0.3686
 4626TIP3    H138073   4.822   1.610   7.719 -0.2066 -0.9491  3.2733
 4626TIP3    H238074   4.685   1.665   7.750 -0.8161 -0.4645  0.0308
 4627TIP3   OH238075   5.694   6.867   8.242  0.8478 -0.2165  0.4816
 4627TIP3    H138076   5.615   6.916   8.264  2.2800  1.8798  1.3184
 4627TIP3    H238077   5.702   6.876   8.147  1.1093  1.2750  0.6243
 4628TIP3   OH238078   5.593   7.277   9.206 -0.1793 -0.0057  0.5632
 4628TIP3    H138079   5.628   7.227   9.132 -1.6480 -0.6539  0.2730
 4628TIP3    H238080   5.514   7.229   9.232  0.3260  0.1736  2.5941
 4629TIP3   OH238081   2.373   0.280   9.371  0.3462  0.2685 -0.2437
 4629TIP3    H138082   2.297   0.316   9.326 -0.6935  0.6957  1.7217
 4629TIP3    H238083   2.437   0.351   9.371 -0.9732  1.5794  1.9190
 4630TIP3   OH238084   1.182   1.287   9.279  0.1923 -0.2999  0.1652
 4630TIP3    H138085   1.251   1.245   9.229 -0.6610 -0.2668 -1.0758
 4630TIP3    H238086   1.114   1.306   9.215 -0.0850  1.6119  0.9560
 4631TIP3   OH238087   2.162   6.170   8.568  0.2273  0.7015 -0.5665
 4631TIP3    H138088   2.161   6.142   8.476  1.1694  2.2379 -1.0773
 4631TIP3    H238089   2.135   6.262   8.565  0.0364  0.7012  0.7348
 4632TIP3   OH238090   1.197   6.494   6.605  0.5548 -0.2595  0.6664
 4632TIP3    H138091   1.241   6.574   6.634  0.4598  0.4054 -0.9294
 4632TIP3    H238092   1.110   6.523   6.576  0.0792 -1.1315  1.1565
 4633TIP3   OH238093   2.312   6.535   7.269  0.2003  0.5131  0.2871
 4633TIP3    H138094   2.292   6.461   7.326  1.2544 -0.5515 -0.6495
 4633TIP3    H238095   2.228   6.576   7.251 -0.3209 -0.0730  1.3433
 4634TIP3   OH238096   0.271   5.831   8.370  0.1191  0.7829  0.5245
 4634TIP3    H138097   0.281   5.750   8.320  1.6975  1.2697  0.0044
 4634TIP3    H238098   0.323   5.816   8.449  1.5505  1.7500 -0.1893
 4635TIP3   OH238099   1.532   3.236   7.404 -0.5483 -0.5934 -0.4386
 4635TIP3    H138100   1.546   3.145   7.378 -2.4912 -1.3699  1.0934
 4635TIP3    H238101   1.621   3.271   7.414  0.2770 -2.7112  0.3021
 4636TIP3   OH238102   0.141   4.648   6.947 -0.0599 -0.0166 -0.2307
 4636TIP3    H138103   0.174   4.737   6.932 -0.3319  0.6707  2.7160
 4636TIP3    H238104   0.170   4.599   6.870  1.6731  2.1933 -1.1081
 4637TIP3   OH238105   6.802   0.774   8.332 -0.3358  0.3057 -0.2017
 4637TIP3    H138106   6.737   0.833   8.370  0.8260  0.7307  1.2394
 4637TIP3    H238107   6.850   0.828   8.270  1.4622  1.3115  1.9218
 4638TIP3   OH238108   2.349   3.277   9.143 -0.0419  0.0837 -0.4715
 4638TIP3    H138109   2.312   3.189   9.145 -1.4663  0.6722  0.8205
 4638TIP3    H238110   2.275   3.334   9.125  0.1059  1.3208  2.3058
 4639TIP3   OH238111   5.890   0.474   9.587  0.1183  0.7026  0.0781
 4639TIP3    H138112   5.859   0.555   9.626 -1.0552  0.5285 -0.4570
 4639TIP3    H238113   5.843   0.468   9.504  0.9104 -0.0467 -0.3322
 4640TIP3   OH238114   5.198   2.942   9.735 -0.0943  0.2880  0.2041
 4640TIP3    H138115   5.191   3.014   9.672 -1.3668 -1.1544 -1.4128
 4640TIP3    H238116   5.277   2.895   9.710  0.2978  0.6501  0.7469
 4641TIP3   OH238117   6.505   2.054   9.212  0.1699 -0.2897  0.4322
 4641TIP3    H138118   6.501   2.039   9.307  1.0596  0.9635  0.6889
 4641TIP3    H238119   6.436   2.117   9.194  0.0127 -0.5142  0.2352
 4642TIP3   OH238120   0.625   5.177   9.141  0.2748  0.7177 -0.1553
 4642TIP3    H138121   0.632   5.098   9.196 -0.1639  0.8777  0.1334
 4642TIP3    H238122   0.715   5.206   9.129  0.7347 -1.3159 -2.4497
 4643TIP3   OH238123   3.828   0.060   8.595  0.1086  0.0662 -0.0173
 4643TIP3    H138124   3.757   0.117   8.567  0.1344 -0.0302 -0.2887
 4643TIP3    H238125   3.903   0.118   8.607 -0.0199  0.1702  0.2871
 4644TIP3   OH238126   0.205   2.359   7.516  0.0567  0.3891 -0.2071
 4644TIP3    H138127   0.125   2.345   7.465  0.8368 -0.7003 -1.1776
 4644TIP3    H238128   0.247   2.434   7.474 -1.5027  2.4709  1.7010
 4645TIP3   OH238129   5.554   4.475   8.574  0.3747 -0.0757  0.0406
 4645TIP3    H138130   5.523   4.560   8.543 -0.6007 -0.1563  0.7488
 4645TIP3    H238131   5.528   4.472   8.666  0.1941 -1.2308 -0.0308
 4646TIP3   OH238132   5.946   4.124   8.141  0.3752 -0.2648 -0.4076
 4646TIP3    H138133   5.931   4.150   8.232  2.9555  0.3042 -0.0564
 4646TIP3    H238134   5.921   4.200   8.089  0.3919 -0.0003 -0.0298
 4647TIP3   OH238135   5.506   0.409   7.525  0.6966 -0.2606 -0.0540
 4647TIP3    H138136   5.588   0.375   7.489  1.4434 -0.3394  1.5980
 4647TIP3    H238137   5.507   0.502   7.502  2.1975  0.1629  1.4514
 4648TIP3   OH238138   6.407   6.287   8.863 -0.0532  0.5044 -0.5002
 4648TIP3    H138139   6.481   6.300   8.923 -0.4512  0.7425 -0.0504
 4648TIP3    H238140   6.409   6.363   8.806 -0.2014  0.7183 -0.2195
 4649TIP3   OH238141   5.783   1.215   7.157 -0.0324 -0.0532  0.0588
 4649TIP3    H138142   5.740   1.274   7.218 -0.6741 -0.4804  0.0344
 4649TIP3    H238143   5.729   1.136   7.159  1.3521 -1.0258  0.8460
 4650TIP3   OH238144   7.135   0.178   7.844  0.3082 -0.4461 -0.0897
 4650TIP3    H138145   7.223   0.205   7.818  0.5786 -0.1985  1.0516
 4650TIP3    H238146   7.077   0.242   7.803  0.4548 -1.7708 -2.5849
 4651TIP3   OH238147   3.766   5.848   8.656 -0.5253 -0.2632  0.0495
 4651TIP3    H138148   3.849   5.894   8.671 -0.6302  0.3422 -1.1399
 4651TIP3    H238149   3.701   5.901   8.701 -0.0419 -1.9445  2.9913
 4652TIP3   OH238150   1.531   5.492   8.921 -0.5383  0.5348  0.6039
 4652TIP3    H138151   1.556   5.566   8.865 -0.4328  1.2932  1.6254
 4652TIP3    H238152   1.481   5.532   8.992 -0.7566 -0.4287  1.0050
 4653TIP3   OH238153   2.902   7.581   8.650 -0.1767 -0.3895  0.0157
 4653TIP3    H138154   2.961   7.526   8.700  1.2769  0.6427 -0.4995
 4653TIP3    H238155   2.911   7.550   8.560 -0.3325 -0.1564 -0.0823
 4654TIP3   OH238156   0.878   0.901   8.222  0.3502 -0.6520 -0.6230
 4654TIP3    H138157   0.862   0.974   8.162  1.4531  0.9292  0.8818
 4654TIP3    H238158   0.815   0.914   8.294 -0.9528 -2.5075 -1.3427
 4655TIP3   OH238159   5.432   2.203   8.334 -0.0858  0.4189  0.4786
 4655TIP3    H138160   5.484   2.125   8.316 -0.4697  0.4682 -0.9707
 4655TIP3    H238161   5.399   2.230   8.248  0.0394  2.1742  0.9455
 4656TIP3   OH238162   3.966   3.957   8.154 -0.4881  0.2153  0.2800
 4656TIP3    H138163   3.904   3.897   8.112  1.1106 -1.6133  0.3528
 4656TIP3    H238164   4.009   3.903   8.221 -0.0334  1.9054  1.4037
 4657TIP3   OH238165   2.292   2.080   7.606  0.3591 -0.1366  0.0600
 4657TIP3    H138166   2.354   2.007   7.608  0.0950 -0.4241 -1.5029
 4657TIP3    H238167   2.272   2.093   7.514 -1.5485  0.2874  0.4883
 4658TIP3   OH238168   0.572   6.809   6.956 -0.2772 -0.1687  0.1517
 4658TIP3    H138169   0.582   6.714   6.943  2.1611 -0.1494  1.3029
 4658TIP3    H238170   0.522   6.816   7.038 -1.0624 -0.4269 -0.2920
 4659TIP3   OH238171   4.964   2.400   9.192 -0.0980 -0.0113 -0.4543
 4659TIP3    H138172   5.018   2.331   9.230 -0.8096 -0.4762 -0.2666
 4659TIP3    H238173   4.877   2.360   9.183 -0.3446  0.6340 -1.0029
 4660TIP3   OH238174   5.857   0.048   8.966 -0.4447 -0.0242 -0.9143
 4660TIP3    H138175   5.899   0.134   8.959  0.4701 -0.3914 -0.1682
 4660TIP3    H238176   5.916  -0.011   8.919 -0.3728 -0.4677 -0.2803
 4661TIP3   OH238177   1.090   3.927   9.182  0.3977  0.4124  1.1373
 4661TIP3    H138178   1.130   3.912   9.097  0.0384  0.4610  0.9556
 4661TIP3    H238179   1.162   3.957   9.238  0.9243 -0.9746  1.2417
 4662TIP3   OH238180   3.837   7.538   8.395  0.6931 -0.5925  0.1539
 4662TIP3    H138181   3.898   7.477   8.438  0.3129 -0.8792  0.2916
 4662TIP3    H238182   3.800   7.590   8.466 -0.8141 -1.8474  0.3563
 4663TIP3   OH238183   4.231   4.114   7.369 -0.3410 -0.0447 -0.9342
 4663TIP3    H138184   4.276   4.063   7.302  1.3532  0.8947 -0.5646
 4663TIP3    H238185   4.211   4.197   7.327 -1.0480 -0.1756 -0.8608
 4664TIP3   OH238186   4.515   4.541   7.836 -0.0429  0.3194  0.4102
 4664TIP3    H138187   4.582   4.535   7.768 -0.3858  1.5210 -0.0447
 4664TIP3    H238188   4.564   4.547   7.918  0.4318  1.7427  0.0379
 4665TIP3   OH238189   4.054   6.924   6.957 -0.4151  0.0877 -0.2921
 4665TIP3    H138190   4.134   6.903   7.004 -0.8994  0.7858  0.8773
 4665TIP3    H238191   3.989   6.940   7.025 -1.1064  1.2752 -1.1838
 4666TIP3   OH238192   4.329   5.629   8.656 -0.4092 -0.1350 -0.1092
 4666TIP3    H138193   4.326   5.550   8.709 -0.6450  1.5301  2.5568
 4666TIP3    H238194   4.245   5.672   8.672  0.0438  1.0686 -0.8027
 4667TIP3   OH238195   2.774   4.367   7.906 -0.1146 -0.2739  0.0498
 4667TIP3    H138196   2.866   4.383   7.887 -0.1206 -0.3095 -0.0088
 4667TIP3    H238197   2.753   4.430   7.975  0.1135 -0.6803  0.4937
 4668TIP3   OH238198   1.264   4.413   8.266 -0.1615 -0.2923  0.1912
 4668TIP3    H138199   1.283   4.435   8.175  2.0421  0.7012  0.8323
 4668TIP3    H238200   1.301   4.326   8.277  0.3320 -0.0605  0.3622
 4669TIP3   OH238201   1.665   3.775   7.852 -1.0609  0.3200 -0.1149
 4669TIP3    H138202   1.719   3.744   7.780  0.3977  1.1388  0.5643
 4669TIP3    H238203   1.717   3.845   7.892 -1.8632 -0.0452  1.6658
 4670TIP3   OH238204   4.503   5.561   8.886  0.3885  0.1187  0.5456
 4670TIP3    H138205   4.472   5.501   8.954  1.0599  1.1011  1.7545
 4670TIP3    H238206   4.524   5.504   8.811  0.1464 -1.0468  1.3431
 4671TIP3   OH238207   6.072   7.597   9.320 -0.2182  0.4974 -0.4284
 4671TIP3    H138208   6.024   7.523   9.357 -0.4512  0.8015 -0.1194
 4671TIP3    H238209   6.005   7.655   9.285  0.0414 -0.6833 -3.1237
 4672TIP3   OH238210   5.771   6.607   9.212  0.4636 -0.2251  0.6349
 4672TIP3    H138211   5.842   6.611   9.275  0.7113  0.7919  0.3123
 4672TIP3    H238212   5.810   6.567   9.134  0.3252 -0.8823  0.8946
 4673TIP3   OH238213   2.238   2.369   7.695 -0.5134  0.2822  0.0994
 4673TIP3    H138214   2.284   2.293   7.658  1.7492  2.3676 -1.7677
 4673TIP3    H238215   2.286   2.389   7.775  0.3021  0.9534 -0.5328
 4674TIP3   OH238216   1.228   2.951   7.275  0.3001  0.3821 -0.2602
 4674TIP3    H138217   1.195   2.871   7.314 -0.6205  1.3434  1.0072
 4674TIP3    H238218   1.200   2.947   7.184 -3.0213  0.8974  0.6036
 4675TIP3   OH238219   0.461   6.976   6.763 -0.2638  0.2308  0.2084
 4675TIP3    H138220   0.486   6.915   6.833  1.1079  0.5285  0.0124
 4675TIP3    H238221   0.536   6.975   6.703 -0.3161  1.9109  0.0644
 4676TIP3   OH238222   0.317   7.050   8.359 -0.2594 -0.3064 -0.3457
 4676TIP3    H138223   0.283   6.964   8.382 -1.4553  0.1131 -0.5028
 4676TIP3    H238224   0.294   7.105   8.434  0.1420 -0.0191 -0.4286
 4677TIP3   OH238225   6.194   6.614   7.972 -0.2859 -0.0079  0.1310
 4677TIP3    H138226   6.148   6.531   7.982 -1.0941  0.4075 -0.0716
 4677TIP3    H238227   6.129   6.681   7.993  0.1570  0.5994 -0.3804
 4678TIP3   OH238228   6.642   7.306   7.619 -0.1563 -0.4811  0.1554
 4678TIP3    H138229   6.701   7.348   7.557 -0.4541 -0.5371 -0.1664
 4678TIP3    H238230   6.559   7.352   7.607 -0.3588 -0.8531  0.1334
 4679TIP3   OH238231   3.103   5.049   7.184 -0.3496 -0.4473  0.0152
 4679TIP3    H138232   3.141   4.993   7.117 -1.1031 -0.1618 -0.6763
 4679TIP3    H238233   3.163   5.043   7.258  1.7979  1.0411 -1.4884
 4680TIP3   OH238234   1.587   7.405   7.422 -0.0857 -0.7914  0.4521
 4680TIP3    H138235   1.662   7.460   7.444 -0.1878  0.0791 -1.2234
 4680TIP3    H238236   1.620   7.347   7.353 -1.2394  0.4473 -1.2109
 4681TIP3   OH238237   4.399   2.302   7.562 -0.0082  0.1833  0.0561
 4681TIP3    H138238   4.454   2.224   7.564  1.4749  1.1724  0.0150
 4681TIP3    H238239   4.456   2.370   7.526 -1.5163  1.0940 -0.7067
 4682TIP3   OH238240   3.007   2.172   9.207  0.1119 -0.2883  0.6894
 4682TIP3    H138241   3.097   2.204   9.207 -1.2745  4.3316 -0.1098
 4682TIP3    H238242   2.979   2.182   9.116 -1.4482 -1.0436  1.0608
 4683TIP3   OH238243   4.342   6.216   8.114 -0.4531  0.2318 -0.2021
 4683TIP3    H138244   4.277   6.286   8.123  0.1511  0.6991  0.7078
 4683TIP3    H238245   4.292   6.136   8.125 -0.9230  0.5771  0.2173
 4684TIP3   OH238246   3.140   4.532   7.304  0.5301 -0.0872 -0.5462
 4684TIP3    H138247   3.088   4.603   7.341 -0.5689 -0.8916 -0.5056
 4684TIP3    H238248   3.100   4.515   7.218  0.1774 -1.2613 -0.1754
 4685TIP3   OH238249   2.371   6.153   7.691  0.5460 -0.7463  0.3836
 4685TIP3    H138250   2.368   6.193   7.778  0.8407 -1.1719  0.5933
 4685TIP3    H238251   2.280   6.129   7.672  0.7073 -2.2680  1.3482
 4686TIP3   OH238252   7.027   4.259   8.546  0.9117  0.3260 -0.3359
 4686TIP3    H138253   7.081   4.256   8.625 -1.2625  0.3680  1.2611
 4686TIP3    H238254   6.951   4.312   8.571 -0.8544 -1.3680 -1.7435
 4687TIP3   OH238255   6.425   2.602   7.960  0.4716  0.3710  0.4615
 4687TIP3    H138256   6.392   2.526   8.008 -1.6685  0.6040 -0.5274
 4687TIP3    H238257   6.369   2.675   7.989 -1.0042  0.4881 -2.3834
 4688TIP3   OH238258   1.412   4.244   9.081 -0.3519  0.0734  0.3705
 4688TIP3    H138259   1.492   4.242   9.028 -0.8691 -0.5406 -0.4142
 4688TIP3    H238260   1.433   4.302   9.154  0.8086 -0.0762  0.1788
 4689TIP3   OH238261   2.447   1.222   9.536 -0.1772 -0.5833  0.1145
 4689TIP3    H138262   2.416   1.306   9.502  0.5577 -0.1095  0.5842
 4689TIP3    H238263   2.509   1.191   9.471 -0.5575 -0.8405 -0.1305
 4690TIP3   OH238264   4.758   4.423   9.136 -0.4445  0.0909  0.3816
 4690TIP3    H138265   4.768   4.363   9.210 -2.2762 -0.0736  0.5327
 4690TIP3    H238266   4.765   4.366   9.059  0.6447  0.1410  0.4244
 4691TIP3   OH238267   5.423   5.846   7.646  0.0711  0.2947 -0.0512
 4691TIP3    H138268   5.483   5.888   7.583 -0.6521 -1.9531 -2.4121
 4691TIP3    H238269   5.478   5.826   7.722  0.6514  4.5054  0.8954
 4692TIP3   OH238270   0.106   6.479   8.574  0.3640 -0.1718 -0.3095
 4692TIP3    H138271   0.072   6.553   8.625  1.1087 -0.8557  1.2457
 4692TIP3    H238272   0.052   6.405   8.601  0.2525 -0.3886 -1.1231
 4693TIP3   OH238273   1.792   5.262   8.547  0.3983 -0.5406  0.0989
 4693TIP3    H138274   1.860   5.308   8.596  0.1019 -0.9639  0.9131
 4693TIP3    H238275   1.753   5.202   8.610 -0.1352 -0.9369 -0.5993
 4694TIP3   OH238276   6.198   6.318   9.217  0.0304 -0.3713  0.2685
 4694TIP3    H138277   6.107   6.337   9.238 -0.5361 -0.5615 -1.8583
 4694TIP3    H238278   6.218   6.375   9.142  1.0181 -1.7958 -0.5892
 4695TIP3   OH238279   6.194   4.148   8.382  0.4634  0.4164  0.4277
 4695TIP3    H138280   6.174   4.215   8.447 -1.1269  0.3961 -0.0004
 4695TIP3    H238281   6.189   4.194   8.298 -0.7669 -0.2365  0.1215
 4696TIP3   OH238282   5.063   0.445   6.672  0.1675  0.1221  0.4731
 4696TIP3    H138283   5.018   0.366   6.642  1.2078 -0.2022 -0.2991
 4696TIP3    H238284   5.156   0.426   6.659  0.5708  0.6778  2.2513
 4697TIP3   OH238285   3.295   3.418   7.829  0.4640  0.5049 -0.2528
 4697TIP3    H138286   3.319   3.455   7.914  1.7389  0.4846 -0.5768
 4697TIP3    H238287   3.237   3.346   7.850 -0.3822  1.3814  0.5111
 4698TIP3   OH238288   5.648   2.546   7.286  0.3044 -0.0638 -0.6453
 4698TIP3    H138289   5.563   2.576   7.256  1.3933  0.9468 -3.0326
 4698TIP3    H238290   5.710   2.580   7.221  2.6529  0.0055  1.4572
 4699TIP3   OH238291   5.793   6.931   6.843 -0.5561  0.2428  0.7132
 4699TIP3    H138292   5.784   6.837   6.859 -0.9368  0.1197 -0.1446
 4699TIP3    H238293   5.887   6.947   6.840 -0.4834 -0.2444  0.1933
 4700TIP3   OH238294   5.631   2.090   6.792 -0.3421  0.3625 -0.1917
 4700TIP3    H138295   5.635   2.034   6.869 -0.3841  0.9915  0.2813
 4700TIP3    H238296   5.648   2.032   6.718 -2.0048 -0.5901  0.1365
 4701TIP3   OH238297   3.566   6.558   8.044 -0.3541  0.3613  0.0967
 4701TIP3    H138298   3.532   6.577   8.132  0.4539 -1.6794  0.8955
 4701TIP3    H238299   3.497   6.508   8.002 -0.1573  0.0909  0.0949
 4702TIP3   OH238300   5.034   2.142   7.767 -0.2584  0.8621  0.2893
 4702TIP3    H138301   5.123   2.174   7.782 -0.0302  0.8614 -0.9995
 4702TIP3    H238302   5.042   2.081   7.694 -1.4613  1.4960 -0.3960
 4703TIP3   OH238303   2.242   3.531   7.659  0.1070 -0.1135 -0.9548
 4703TIP3    H138304   2.159   3.488   7.636  0.3476 -1.2435  0.1587
 4703TIP3    H238305   2.216   3.603   7.717 -0.2540  0.9652 -2.4003
 4704TIP3   OH238306   0.347   4.029   8.791 -0.0612 -0.2775 -0.6010
 4704TIP3    H138307   0.320   3.960   8.729 -0.3606 -0.4863 -0.2447
 4704TIP3    H238308   0.337   4.110   8.741 -0.0306 -0.4633 -0.9182
 4705TIP3   OH238309   3.757   4.247   8.221  0.0728  0.1764 -0.2256
 4705TIP3    H138310   3.789   4.188   8.153 -0.6133  1.1020 -1.3840
 4705TIP3    H238311   3.802   4.219   8.301  0.0276 -1.6666 -0.8094
 4706TIP3   OH238312   0.302   3.249   7.066 -0.0858 -0.2056 -0.0704
 4706TIP3    H138313   0.385   3.232   7.021  1.9585 -0.2503  3.4069
 4706TIP3    H238314   0.270   3.163   7.092  1.0981  0.0208  2.3142
 4707TIP3   OH238315   0.016   6.007   9.283 -0.1819 -0.0826 -0.3785
 4707TIP3    H138316  -0.075   5.993   9.306 -0.2454 -2.6736 -1.8256
 4707TIP3    H238317   0.012   6.060   9.203 -0.2780  1.5438  0.6595
 4708TIP3   OH238318   1.615   3.689   8.769 -0.9163 -0.3106  0.0938
 4708TIP3    H138319   1.657   3.698   8.855  1.1163 -1.3515 -0.7474
 4708TIP3    H238320   1.590   3.779   8.745  0.2864  0.2558  0.8891
 4709TIP3   OH238321   6.102   6.669   9.242  0.4310  0.0921  0.0270
 4709TIP3    H138322   6.165   6.601   9.264 -0.3568 -0.1141  1.8554
 4709TIP3    H238323   6.134   6.747   9.287  0.7173  0.6547 -1.1241
 4710TIP3   OH238324   1.697   5.626   7.634 -0.4106  0.0253 -0.2619
 4710TIP3    H138325   1.658   5.554   7.584 -2.8413 -0.3978  2.0045
 4710TIP3    H238326   1.737   5.583   7.710 -1.0613  0.9771  0.6427
 4711TIP3   OH238327   4.954   3.221   7.781  0.3713 -0.1544 -0.6841
 4711TIP3    H138328   5.041   3.196   7.814 -0.0601  0.2280  0.8523
 4711TIP3    H238329   4.972   3.291   7.718  1.1946 -0.3120 -0.6423
 4712TIP3   OH238330   3.096   5.331   8.092  0.2134 -0.1316 -0.2877
 4712TIP3    H138331   3.096   5.398   8.159  0.2045 -1.7605  1.4301
 4712TIP3    H238332   3.178   5.344   8.044 -0.3449  1.7928 -0.7885
 4713TIP3   OH238333   6.030   6.192   7.353  0.0036  1.1337  0.1144
 4713TIP3    H138334   5.985   6.238   7.424  1.4259 -0.4018  2.1111
 4713TIP3    H238335   6.119   6.228   7.354  0.4376  0.0824  0.0558
 4714TIP3   OH238336   3.589   6.736   7.843 -0.2292 -0.0899  0.1769
 4714TIP3    H138337   3.675   6.749   7.804  0.3200 -0.3374  1.2459
 4714TIP3    H238338   3.605   6.678   7.918 -1.6523 -1.9730 -0.8863
 4715TIP3   OH238339   2.116   6.553   8.216 -0.0804 -0.3136 -0.5119
 4715TIP3    H138340   2.039   6.526   8.165 -0.6346  0.4540 -0.1115
 4715TIP3    H238341   2.177   6.480   8.209 -0.0964 -0.1922 -2.3587
 4716TIP3   OH238342   5.723   0.623   9.118 -0.3195  0.2783 -0.0342
 4716TIP3    H138343   5.669   0.701   9.130  0.4319  0.6821  0.7847
 4716TIP3    H238344   5.805   0.655   9.081 -0.5451 -0.3095 -1.0817
 4717TIP3   OH238345   7.394   7.023   8.005  0.7663 -0.4524  0.3175
 4717TIP3    H138346   7.480   7.022   8.048  0.9582 -1.3750 -0.0600
 4717TIP3    H238347   7.414   7.004   7.913  0.1491 -0.8121  0.2571
 4718TIP3   OH238348   7.021   5.766   7.201  0.2423 -0.4185  0.5956
 4718TIP3    H138349   6.937   5.724   7.221  0.3140  0.2006  2.3594
 4718TIP3    H238350   6.999   5.857   7.183  0.4098 -0.5352 -0.2233
 4719TIP3   OH238351   6.951   2.140   7.587  0.0152 -0.5074 -0.1310
 4719TIP3    H138352   6.959   2.049   7.557  1.3815 -1.2027  2.1163
 4719TIP3    H238353   7.036   2.179   7.569  0.0765 -0.2688  0.6227
 4720TIP3   OH238354   0.573   4.984   7.068 -0.1081  0.2892 -0.3759
 4720TIP3    H138355   0.511   4.960   6.999 -0.2297  0.0247 -0.1755
 4720TIP3    H238356   0.629   4.907   7.078  0.0208  0.3933 -0.3006
 4721TIP3   OH238357   2.471   6.236   7.327 -0.5943 -0.1642  0.1043
 4721TIP3    H138358   2.566   6.246   7.339 -0.8931  1.4722  1.6372
 4721TIP3    H238359   2.450   6.152   7.368  0.0078  0.1767  1.1569
 4722TIP3   OH238360   6.295   0.032   7.289  0.1524 -0.1415  0.6956
 4722TIP3    H138361   6.270   0.002   7.201 -1.3975 -2.4024  1.8258
 4722TIP3    H238362   6.221   0.085   7.318  0.9924  1.2360  0.3860
 4723TIP3   OH238363   4.176   4.300   9.048  1.1170  0.4024 -0.3093
 4723TIP3    H138364   4.194   4.258   9.131 -0.2829  1.1902  0.4467
 4723TIP3    H238365   4.126   4.235   8.998 -0.8570  0.9802  0.7722
 4724TIP3   OH238366   6.293   6.527   8.240  0.0353 -0.3029  0.1926
 4724TIP3    H138367   6.243   6.552   8.162  1.3976 -1.4937 -1.1152
 4724TIP3    H238368   6.279   6.599   8.301  0.3487  1.5492 -1.8005
 4725TIP3   OH238369   2.833   1.676   7.779  0.1166  0.3164 -0.4649
 4725TIP3    H138370   2.869   1.644   7.696  0.7901  0.8815 -0.3950
 4725TIP3    H238371   2.896   1.740   7.810 -0.6760  0.9149 -0.0510
 4726TIP3   OH238372   5.468   5.413   8.655 -0.2692  0.1880 -0.0662
 4726TIP3    H138373   5.416   5.440   8.580  1.0926 -0.5979 -1.3519
 4726TIP3    H238374   5.534   5.482   8.666  1.1265 -0.8776 -1.2618
 4727TIP3   OH238375   4.596   4.076   7.039 -1.0371  0.0951 -0.3221
 4727TIP3    H138376   4.687   4.067   7.010 -1.2318 -0.8033 -0.6825
 4727TIP3    H238377   4.568   3.987   7.060 -1.4457  0.5167  1.0232
 4728TIP3   OH238378   6.720   0.358   6.956  0.0680 -0.1796  0.4878
 4728TIP3    H138379   6.809   0.333   6.929 -0.2871 -2.5019  1.2474
 4728TIP3    H238380   6.677   0.383   6.874  0.9381 -0.6166 -0.1201
 4729TIP3   OH238381   0.308   2.352   8.558  0.4488 -0.2838  0.2858
 4729TIP3    H138382   0.378   2.364   8.622 -0.1283 -1.0359  1.0817
 4729TIP3    H238383   0.351   2.362   8.474  1.1430  1.1975  0.7685
 4730TIP3   OH238384   2.014   6.615   6.861 -0.3886  0.8847  0.0083
 4730TIP3    H138385   1.989   6.567   6.782  1.9150 -0.1369 -0.1736
 4730TIP3    H238386   1.935   6.665   6.884 -2.1882 -1.2333 -1.0935
 4731TIP3   OH238387   6.213   7.216   6.826 -0.3679 -0.0954 -0.0427
 4731TIP3    H138388   6.213   7.310   6.843  1.7023  0.2563 -1.6140
 4731TIP3    H238389   6.263   7.179   6.898 -0.3034  0.1279  0.0299
 4732TIP3   OH238390   0.604   3.700   8.140  0.0464 -0.0610  0.3623
 4732TIP3    H138391   0.564   3.758   8.205  0.5790 -1.8629  2.3844
 4732TIP3    H238392   0.531   3.670   8.086 -0.5560  0.6843  0.7458
 4733TIP3   OH238393   5.232   3.253   7.927 -0.1096  0.2981  0.2631
 4733TIP3    H138394   5.231   3.228   8.019 -0.4532 -0.6776  0.0084
 4733TIP3    H238395   5.245   3.347   7.928  1.7521  0.0950  1.2752
 4734TIP3   OH238396   3.560   1.262   7.410  0.2041 -0.3067  0.4000
 4734TIP3    H138397   3.502   1.187   7.420  1.7430 -1.5061  0.6036
 4734TIP3    H238398   3.578   1.267   7.316  0.9500 -0.8676  0.5072
 4735TIP3   OH238399   4.721   2.028   7.234  0.3586 -0.2544 -0.0624
 4735TIP3    H138400   4.782   1.974   7.284  1.3078  0.5190 -0.3443
 4735TIP3    H238401   4.634   1.993   7.255  0.8303 -0.7765  1.0814
 4736TIP3   OH238402   5.685   5.657   7.656  0.0725 -0.2016  0.0711
 4736TIP3    H138403   5.713   5.654   7.564 -0.5395  0.9843 -0.1699
 4736TIP3    H238404   5.614   5.592   7.661  0.3484 -0.5255 -0.2107
 4737TIP3   OH238405   7.134   7.650   9.452  0.6493  0.5224  0.7101
 4737TIP3    H138406   7.087   7.567   9.458  3.3372 -1.1005  1.1172
 4737TIP3    H238407   7.072   7.715   9.485 -1.4762 -1.3255  0.5973
 4738TIP3   OH238408   3.587   5.008   8.676  0.1961  0.5503  0.0352
 4738TIP3    H138409   3.543   5.090   8.654 -0.6078 -0.4660 -2.6207
 4738TIP3    H238410   3.657   5.001   8.610  1.0174 -0.3469  0.9691
 4739TIP3   OH238411   1.118   1.552   7.979 -0.3410 -0.0627  0.3472
 4739TIP3    H138412   1.160   1.501   7.910 -0.4086  0.7813 -0.3314
 4739TIP3    H238413   1.174   1.539   8.056  1.0217  0.8065 -0.4633
 4740TIP3   OH238414   5.819   3.868   8.139  0.2666 -0.2584 -0.3890
 4740TIP3    H138415   5.853   3.950   8.102  1.1662 -0.6063 -0.3315
 4740TIP3    H238416   5.838   3.874   8.233 -1.4662  0.3471 -0.0274
 4741TIP3   OH238417   6.104   5.193   7.871  0.6974  0.2291 -0.1249
 4741TIP3    H138418   6.078   5.191   7.963  0.6650  1.3732 -0.0974
 4741TIP3    H238419   6.037   5.246   7.828  1.1104  0.3199 -0.6696
 4742TIP3   OH238420   5.908   5.474   9.133 -0.2328 -0.0557 -0.2707
 4742TIP3    H138421   5.897   5.429   9.217  0.2017  2.5912  1.3353
 4742TIP3    H238422   5.835   5.535   9.129 -0.0143  0.1472 -1.6463
 4743TIP3   OH238423   7.101   2.806   8.394  0.0909  0.2258  0.5846
 4743TIP3    H138424   7.167   2.835   8.332  0.4370  0.6192  1.1316
 4743TIP3    H238425   7.149   2.785   8.473 -0.1898 -1.5782  0.3067
 4744TIP3   OH238426   2.783   7.363   7.785 -0.3187 -0.2898 -0.3748
 4744TIP3    H138427   2.866   7.333   7.748  0.0360 -1.0429  0.9611
 4744TIP3    H238428   2.762   7.443   7.736  1.3022  0.0364 -0.5827
 4745TIP3   OH238429   4.613   2.448   7.959 -0.3443 -0.1262 -0.2285
 4745TIP3    H138430   4.687   2.417   7.906  0.5973  2.0570 -0.3123
 4745TIP3    H238431   4.537   2.405   7.922  0.4982  0.0727 -2.3313
 4746TIP3   OH238432   5.344   6.709   7.247  0.5039 -0.4458  0.0694
 4746TIP3    H138433   5.351   6.794   7.289 -2.4390  0.0482 -0.2050
 4746TIP3    H238434   5.312   6.728   7.158  1.3906 -1.7511 -0.5736
 4747TIP3   OH238435   2.777   6.147   8.419  0.3948 -0.0894  0.1838
 4747TIP3    H138436   2.849   6.160   8.481 -0.0884 -0.1688  0.7746
 4747TIP3    H238437   2.749   6.056   8.434  1.4303 -0.7187 -1.4097
 4748TIP3   OH238438   0.795   4.526   7.879 -0.0186 -0.0717  0.4246
 4748TIP3    H138439   0.853   4.450   7.873 -0.5061 -0.6102  2.0268
 4748TIP3    H238440   0.825   4.573   7.957 -1.4636 -0.1573  1.0691
 4749TIP3   OH238441   2.767   2.925   9.104  0.1864 -0.4223  0.3411
 4749TIP3    H138442   2.814   2.938   9.186  1.7170  0.3542 -0.6035
 4749TIP3    H238443   2.801   2.843   9.069 -1.3273 -1.3763  1.0026
 4750TIP3   OH238444   6.973   5.149   8.993  0.3349 -0.5183 -0.1527
 4750TIP3    H138445   7.001   5.058   8.986 -0.2615 -1.0912  3.2195
 4750TIP3    H238446   6.885   5.145   9.030 -0.1142  1.4629 -0.8158
 4751TIP3   OH238447   6.635   4.466   9.097 -0.1911  0.0822  0.4942
 4751TIP3    H138448   6.616   4.506   9.012 -0.1410  0.4673  0.6624
 4751TIP3    H238449   6.685   4.387   9.076 -0.9734 -0.3245  0.1110
 4752TIP3   OH238450   6.686   4.915   7.861  0.0431 -0.1502 -0.0223
 4752TIP3    H138451   6.694   5.010   7.875 -0.2353 -0.3050  1.3238
 4752TIP3    H238452   6.595   4.895   7.883 -0.1165 -0.6220 -1.0618
 4753TIP3   OH238453   3.680   2.243   6.986 -0.5670 -0.1939  0.6581
 4753TIP3    H138454   3.616   2.192   6.936  1.2840 -0.6191 -1.4473
 4753TIP3    H238455   3.720   2.301   6.921  2.8751 -1.6764  1.2145
 4754TIP3   OH238456   2.496   1.520   8.537 -0.4403  0.7056  0.0128
 4754TIP3    H138457   2.555   1.535   8.610 -0.2695 -0.7189  0.1887
 4754TIP3    H238458   2.436   1.452   8.567 -0.2317 -0.0723 -1.2215
 4755TIP3   OH238459   6.329   2.527   7.668 -0.1733  0.4594 -0.4647
 4755TIP3    H138460   6.372   2.556   7.587  2.5395  3.1864  1.7060
 4755TIP3    H238461   6.387   2.556   7.738 -2.4677 -1.5702  2.5625
 4756TIP3   OH238462   1.423   0.336   7.849  0.2690 -0.0533  0.5361
 4756TIP3    H138463   1.407   0.359   7.940  3.2015  2.0939  0.6638
 4756TIP3    H238464   1.338   0.344   7.806 -0.5302  2.5807  2.3896
 4757TIP3   OH238465   6.343   1.884   8.861  0.3321 -0.3447 -0.0811
 4757TIP3    H138466   6.393   1.939   8.801  0.3246  0.9504  1.0507
 4757TIP3    H238467   6.277   1.943   8.898  0.2568 -1.1399  1.0925
 4758TIP3   OH238468   2.228   2.357   6.637 -0.6264  0.0242  0.7427
 4758TIP3    H138469   2.138   2.332   6.655 -0.6306 -1.8890 -1.4388
 4758TIP3    H238470   2.267   2.279   6.596  2.6277  0.0511  3.2991
 4759TIP3   OH238471   3.645   1.319   6.669  0.3148  0.2689  0.3615
 4759TIP3    H138472   3.571   1.327   6.608  0.2091 -0.1656  0.4267
 4759TIP3    H238473   3.622   1.377   6.741 -0.2363 -0.2865  0.6435
 4760TIP3   OH238474   2.050   3.541   7.400  0.1624  0.7915  0.0306
 4760TIP3    H138475   2.056   3.468   7.339 -1.5679 -1.1604  2.0261
 4760TIP3    H238476   1.987   3.600   7.360 -3.0132 -1.7181  0.9255
 4761TIP3   OH238477   0.570   4.522   8.940  0.0937  0.1554 -0.3330
 4761TIP3    H138478   0.566   4.431   8.912  2.9673  0.0644 -0.8023
 4761TIP3    H238479   0.564   4.572   8.859  2.6988  0.1292 -0.6250
 4762TIP3   OH238480   5.700   3.068   7.079  0.5556 -0.3330  0.0066
 4762TIP3    H138481   5.684   2.992   7.134  0.2288 -0.5308 -0.3614
 4762TIP3    H238482   5.653   3.051   6.998 -0.5448  0.7971  0.3713
 4763TIP3   OH238483   7.069   4.238   8.855 -0.2262 -0.1774  0.2203
 4763TIP3    H138484   7.071   4.318   8.907  0.5327  0.2443 -0.4321
 4763TIP3    H238485   7.095   4.169   8.915  3.6250  0.6725 -0.1673
 4764TIP3   OH238486   6.718   6.180   8.244 -0.3493  0.5814 -0.2785
 4764TIP3    H138487   6.785   6.168   8.311 -1.0129  0.6663  0.4100
 4764TIP3    H238488   6.757   6.242   8.182  0.6800 -0.3116 -0.5488
 4765TIP3   OH238489   5.437   2.030   7.822 -0.3697 -0.4767  0.4821
 4765TIP3    H138490   5.439   2.063   7.733  2.8163  0.6417  0.8382
 4765TIP3    H238491   5.412   1.938   7.813 -3.5289  0.4192 -1.1134
 4766TIP3   OH238492   1.301   7.264   9.409 -0.2210  0.5083  0.1769
 4766TIP3    H138493   1.228   7.317   9.441 -0.1911  1.0265 -0.5697
 4766TIP3    H238494   1.342   7.319   9.342  0.8234  0.2101  0.5392
 4767TIP3   OH238495   0.750   1.980   8.779  0.5374 -0.5468  0.0409
 4767TIP3    H138496   0.662   2.003   8.751  0.3921 -0.3793  0.6306
 4767TIP3    H238497   0.782   2.057   8.825  1.3812 -0.2277 -1.0392
 4768TIP3   OH238498   3.590   2.155   7.679 -0.0537  0.2803  0.4233
 4768TIP3    H138499   3.606   2.136   7.586 -2.1493 -0.3417  0.1320
 4768TIP3    H238500   3.626   2.079   7.725 -0.1496 -0.0302 -0.0009
 4769TIP3   OH238501   0.464   2.356   8.328 -0.4723 -0.5397 -0.3722
 4769TIP3    H138502   0.493   2.265   8.336  0.8789 -0.1424 -0.4236
 4769TIP3    H238503   0.498   2.384   8.243 -0.8496  0.0262 -0.3430
 4770TIP3   OH238504   3.571   2.081   8.173  0.6126  0.7298 -0.0286
 4770TIP3    H138505   3.575   2.006   8.114 -0.9437 -1.0792  2.0030
 4770TIP3    H238506   3.645   2.068   8.233  0.0833  0.5821  0.5948
 4771TIP3   OH238507   7.443   3.896   7.768  0.3458 -0.7362  0.6146
 4771TIP3    H138508   7.505   3.854   7.708 -1.1724  0.1963 -1.7551
 4771TIP3    H238509   7.417   3.977   7.723 -0.9681 -0.0367  2.5070
 4772TIP3   OH238510   7.235   5.956   9.119  0.2393 -0.9488  0.2228
 4772TIP3    H138511   7.152   5.972   9.163  0.0906 -1.9911  0.3302
 4772TIP3    H238512   7.211   5.937   9.028  0.3768 -1.0506  0.2071
 4773TIP3   OH238513   3.250   1.444   7.525 -0.1179  0.3313 -0.3793
 4773TIP3    H138514   3.222   1.423   7.436  0.3505 -3.1132  0.1755
 4773TIP3    H238515   3.183   1.406   7.582 -1.0886  3.5447  0.8795
 4774TIP3   OH238516   3.331   1.675   6.538 -0.8008  0.7074  0.0041
 4774TIP3    H138517   3.243   1.637   6.538 -1.2286  1.6300  0.8950
 4774TIP3    H238518   3.317   1.766   6.564  0.5571  0.5458  1.4438
 4775TIP3   OH238519   6.457   4.100   7.849  0.1769 -0.1335  0.1738
 4775TIP3    H138520   6.407   4.166   7.897 -0.8116  0.4430 -1.5530
 4775TIP3    H238521   6.540   4.092   7.898 -0.0736  1.6547  0.9728
 4776TIP3   OH238522   3.631   2.040   6.625 -0.0680  0.2880 -0.1630
 4776TIP3    H138523   3.577   2.020   6.549  0.3173  0.9559 -0.6184
 4776TIP3    H238524   3.713   1.993   6.610  0.4723  1.3999 -0.7654
 4777TIP3   OH238525   4.731   1.822   8.313 -0.5116  0.0068  0.5815
 4777TIP3    H138526   4.720   1.729   8.292 -1.6812  0.1913  0.3062
 4777TIP3    H238527   4.786   1.856   8.243 -0.7131 -0.3230  0.2548
 4778TIP3   OH238528   3.301   4.385   7.773  0.0607  0.2635 -0.6826
 4778TIP3    H138529   3.297   4.454   7.706 -1.6497  0.2479 -0.6519
 4778TIP3    H238530   3.386   4.344   7.760  0.8024  1.8764 -1.2012
 4779TIP3   OH238531   2.060   6.637   7.431  0.4240  0.3601  0.4170
 4779TIP3    H138532   1.982   6.687   7.411  0.1132 -0.3564 -0.1888
 4779TIP3    H238533   2.033   6.546   7.426  1.5173  0.0637 -0.8049
 4780TIP3   OH238534   3.058   3.584   6.677 -0.2780  0.1032  0.4703
 4780TIP3    H138535   3.055   3.678   6.663 -2.4653  0.0544  0.2612
 4780TIP3    H238536   2.967   3.555   6.670  0.3686 -2.0912  0.1433
 4781TIP3   OH238537   0.197   6.934   8.872 -0.3038 -0.4791 -0.1027
 4781TIP3    H138538   0.258   6.995   8.912  1.7404 -0.9832 -2.2239
 4781TIP3    H238539   0.117   6.986   8.858  0.0109  0.5491  1.6008
 4782TIP3   OH238540   5.320   5.437   9.161  0.2984  0.2508  0.0073
 4782TIP3    H138541   5.256   5.450   9.091 -2.3445 -0.3861  2.1596
 4782TIP3    H238542   5.278   5.472   9.239  2.6606 -0.1102  1.5399
 4783TIP3   OH238543   0.048   1.704   8.017 -0.2618 -0.1497  0.8024
 4783TIP3    H138544   0.051   1.779   7.958  0.2207  0.1133  1.1534
 4783TIP3    H238545  -0.034   1.716   8.067 -1.5466 -1.2518 -0.9184
 4784TIP3   OH238546   2.937   5.836   7.464 -0.3747  0.0967 -0.6035
 4784TIP3    H138547   3.005   5.805   7.524 -1.1397 -1.5945 -0.5404
 4784TIP3    H238548   2.966   5.807   7.378  0.4931  2.1199 -1.0388
 4785TIP3   OH238549   6.116   4.595   7.849 -0.1073 -0.2437 -0.0473
 4785TIP3    H138550   6.100   4.502   7.865 -1.4230 -0.0193 -0.0013
 4785TIP3    H238551   6.103   4.606   7.755 -0.4757 -0.0141  0.0274
 4786TIP3   OH238552   2.772   5.233   9.602 -0.0691 -0.3547 -0.1053
 4786TIP3    H138553   2.860   5.224   9.637 -0.2671  0.2451  0.5697
 4786TIP3    H238554   2.717   5.182   9.660  0.0464 -2.2493 -1.5653
 4787TIP3   OH238555   1.240   7.067   8.071  0.1035  0.0095 -0.0718
 4787TIP3    H138556   1.145   7.062   8.080  0.2154 -1.4846  0.5691
 4787TIP3    H238557   1.260   7.006   8.000  0.6933 -0.7872  0.7592
 4788TIP3   OH238558   6.434   6.613   7.036 -0.5831  0.0253  0.6757
 4788TIP3    H138559   6.397   6.701   7.031  1.1630  0.7903  0.7406
 4788TIP3    H238560   6.366   6.556   6.999 -1.1812  1.5630 -0.6856
 4789TIP3   OH238561   6.436   4.628   8.620 -0.8589  0.2405  0.1703
 4789TIP3    H138562   6.356   4.575   8.616 -0.9958  0.2100  2.3527
 4789TIP3    H238563   6.404   4.718   8.625 -0.7539  0.2548  0.6115
 4790TIP3   OH238564   0.210   1.819   9.184  0.8186  0.2953 -0.0614
 4790TIP3    H138565   0.167   1.756   9.125  1.4631 -1.7792  1.5502
 4790TIP3    H238566   0.149   1.892   9.189  0.1917  0.0218 -2.3169
 4791TIP3   OH238567   2.178   1.394   6.824  0.0560  0.4938 -0.8793
 4791TIP3    H138568   2.126   1.324   6.785 -0.3454  0.4759 -0.3258
 4791TIP3    H238569   2.161   1.387   6.918  0.8432  0.6650 -0.7151
 4792TIP3   OH238570   5.100   7.107   7.729  0.0033 -0.3825 -0.0797
 4792TIP3    H138571   5.136   7.053   7.658  1.2486  0.5279 -0.1606
 4792TIP3    H238572   5.106   7.051   7.807  2.2857 -0.0498  0.0552
 4793TIP3   OH238573   2.059   0.906   8.515  0.1571 -0.0344  0.2079
 4793TIP3    H138574   2.020   0.820   8.500  1.5145 -0.7858  0.8939
 4793TIP3    H238575   2.115   0.921   8.438 -1.4457  1.0774 -0.8142
 4794TIP3   OH238576   3.098   5.644   9.595 -0.0114  0.3015 -0.3301
 4794TIP3    H138577   3.152   5.601   9.662 -1.0018 -1.1337 -0.3990
 4794TIP3    H238578   3.047   5.573   9.557 -2.6756  1.7063  0.3964
 4795TIP3   OH238579   7.487   4.070   9.552  0.2857 -0.5481  0.1359
 4795TIP3    H138580   7.402   4.101   9.522  0.3887 -0.7081 -0.3298
 4795TIP3    H238581   7.479   3.974   9.555 -0.2711 -0.4697  2.2912
 4796TIP3   OH238582   6.680   7.236   8.295  0.3577 -0.1377 -0.1337
 4796TIP3    H138583   6.695   7.201   8.207 -0.1946 -0.8318  0.0341
 4796TIP3    H238584   6.592   7.275   8.290  1.0277  1.4360 -0.3680
 4797TIP3   OH238585   0.635   3.557   8.478  0.0124  0.1405  0.4712
 4797TIP3    H138586   0.637   3.478   8.426 -0.1751  0.2169  0.3473
 4797TIP3    H238587   0.553   3.599   8.455  0.6616  0.9953 -0.3963
 4798TIP3   OH238588   4.232   0.645   6.928 -0.6847 -0.3849 -0.5718
 4798TIP3    H138589   4.222   0.630   7.022 -0.2027  0.7085 -0.3258
 4798TIP3    H238590   4.143   0.636   6.893 -1.2171  1.1093  0.3014
 4799TIP3   OH238591   3.177   1.002   8.492 -0.0848  0.4268  0.5880
 4799TIP3    H138592   3.135   0.976   8.410  1.4045  0.1847 -0.1229
 4799TIP3    H238593   3.202   1.093   8.478  0.0517  0.4244  0.8170
 4800TIP3   OH238594   5.945   3.974   8.495  0.7797  0.4271  0.3742
 4800TIP3    H138595   6.038   3.974   8.516  0.4086  0.3379  2.2022
 4800TIP3    H238596   5.926   4.064   8.471  0.7773  1.2322  3.0439
 4801TIP3   OH238597   5.384   6.992   7.344  0.4845  0.0960 -0.2813
 4801TIP3    H138598   5.423   7.053   7.407 -0.7980 -0.2623  0.9017
 4801TIP3    H238599   5.355   7.048   7.272  1.2134  0.6208 -0.1768
 4802TIP3   OH238600   7.216   2.409   8.883 -0.2496 -0.4227 -0.2524
 4802TIP3    H138601   7.227   2.481   8.946  0.8701 -2.1189  1.5849
 4802TIP3    H238602   7.124   2.384   8.892 -0.3339 -0.0326  0.0040
 4803TIP3   OH238603   1.193   6.313   8.773  0.8376  0.0792 -0.2120
 4803TIP3    H138604   1.131   6.386   8.774 -0.4856 -0.9205  2.2616
 4803TIP3    H238605   1.209   6.296   8.681 -1.8163  1.0587 -0.9472
 4804TIP3   OH238606   6.873   1.462   8.787  0.2826  0.5920 -0.2222
 4804TIP3    H138607   6.808   1.392   8.776  0.7085  0.0291  0.7521
 4804TIP3    H238608   6.904   1.479   8.698 -1.3564  1.0538 -0.7480
 4805TIP3   OH238609   4.728   0.761   7.152 -0.7502 -0.6837  0.1854
 4805TIP3    H138610   4.657   0.749   7.089  0.7671 -1.4049 -1.4694
 4805TIP3    H238611   4.716   0.690   7.215 -0.6933 -1.6930 -0.9026
 4806TIP3   OH238612   6.707   4.271   8.285 -0.0979  0.4857  0.2789
 4806TIP3    H138613   6.623   4.312   8.307 -0.3584 -0.0991  0.3992
 4806TIP3    H238614   6.684   4.182   8.260  0.4095  0.5526 -0.4417
 4807TIP3   OH238615   1.659   2.963   8.661 -0.4466 -0.0006  0.2754
 4807TIP3    H138616   1.563   2.959   8.660 -0.4694  0.4995 -0.3233
 4807TIP3    H238617   1.680   3.042   8.610  0.2632  0.2780  0.9757
 4808TIP3   OH238618   2.027   2.078   8.100  0.2367 -0.4116 -0.6055
 4808TIP3    H138619   2.060   1.993   8.129 -0.4628 -0.2316  0.8420
 4808TIP3    H238620   1.939   2.061   8.068  0.4445 -0.3647 -1.2216
 4809TIP3   OH238621   6.084   1.345   8.267  0.5530 -0.0868  0.1546
 4809TIP3    H138622   6.066   1.271   8.326  0.0654  1.2115  1.7099
 4809TIP3    H238623   6.011   1.345   8.205 -0.9964  0.7422  1.8907
 4810TIP3   OH238624   4.390   4.422   6.801  0.6024  0.8605 -0.2882
 4810TIP3    H138625   4.437   4.339   6.795 -0.3922  0.2900 -0.3477
 4810TIP3    H238626   4.302   4.402   6.770 -0.2728  1.4248  1.6987
 4811TIP3   OH238627   0.113   3.527   9.280 -0.1617  0.3347  0.0926
 4811TIP3    H138628   0.078   3.493   9.362 -0.1193  0.6040  0.2226
 4811TIP3    H238629   0.166   3.603   9.306 -1.1080  1.1375 -0.3008
 4812TIP3   OH238630   7.170   1.572   9.518  0.2437  0.4684  0.3941
 4812TIP3    H138631   7.209   1.559   9.431  0.1239  0.6009  0.3202
 4812TIP3    H238632   7.075   1.573   9.501  0.2369  3.9208  0.0351
 4813TIP3   OH238633   6.376   4.997   8.123 -0.1021  0.5340 -0.1977
 4813TIP3    H138634   6.329   5.075   8.152  0.9930  1.2004 -0.1495
 4813TIP3    H238635   6.458   4.999   8.172  0.5117  0.0635 -1.1696
 4814TIP3   OH238636   1.061   1.484   6.687 -0.0702  0.4524 -0.1397
 4814TIP3    H138637   1.028   1.394   6.692 -1.7639  0.8712 -2.3032
 4814TIP3    H238638   0.983   1.539   6.693  0.7231  1.7048 -0.7235
 4815TIP3   OH238639   0.675   7.007   8.546  0.4103 -0.8453  0.1573
 4815TIP3    H138640   0.613   6.975   8.612 -1.0304 -1.8952 -1.5927
 4815TIP3    H238641   0.665   6.945   8.473  0.2992  1.4846 -1.9090
 4816TIP3   OH238642   0.844   6.464   7.592 -0.3926 -0.2217 -0.1199
 4816TIP3    H138643   0.854   6.370   7.575 -0.4418 -0.2080 -0.2247
 4816TIP3    H238644   0.883   6.477   7.678 -2.3929 -0.7525  0.9405
 4817TIP3   OH238645   6.675   0.971   9.048  0.0108  0.2394  0.7002
 4817TIP3    H138646   6.607   0.969   9.116  0.4493 -0.0846  1.1394
 4817TIP3    H238647   6.692   0.879   9.029  0.5170  0.3108  0.7884
 4818TIP3   OH238648   6.454   1.312   8.612  0.0190  0.2074  0.7828
 4818TIP3    H138649   6.399   1.371   8.560  0.0951  0.3922  0.9090
 4818TIP3    H238650   6.414   1.226   8.601  2.2494 -0.5826 -2.8179
 4819TIP3   OH238651   6.041   3.503   9.124 -0.4757 -0.2305  0.2829
 4819TIP3    H138652   6.009   3.593   9.127 -1.2595 -0.5123  0.5312
 4819TIP3    H238653   6.137   3.512   9.123 -0.5498  0.6165 -0.3456
 4820TIP3   OH238654   6.311   1.052   7.408  0.4703 -0.0440  0.5162
 4820TIP3    H138655   6.352   1.042   7.322 -0.4784  1.0392 -0.0920
 4820TIP3    H238656   6.368   1.114   7.455 -0.2852  1.2533 -0.2292
 4821TIP3   OH238657   5.885   0.664   8.173  0.9071  0.4576 -0.3162
 4821TIP3    H138658   5.973   0.699   8.169  0.4235  1.6360 -2.3595
 4821TIP3    H238659   5.857   0.659   8.081 -0.6063 -1.3226  0.1663
 4822TIP3   OH238660   0.196   2.213   8.829  0.2262  0.6269 -0.1426
 4822TIP3    H138661   0.150   2.139   8.788  0.1486  1.6024 -1.9272
 4822TIP3    H238662   0.229   2.264   8.756  1.2320  1.7909  1.0724
 4823TIP3   OH238663   0.065   5.352   7.226 -0.1866  0.4535  0.2173
 4823TIP3    H138664   0.090   5.274   7.176 -0.6596 -0.4892  1.4093
 4823TIP3    H238665   0.088   5.426   7.169  0.8857 -0.5281 -0.6601
 4824TIP3   OH238666   7.502   0.995   8.115 -0.1000  0.2166 -0.1438
 4824TIP3    H138667   7.563   0.959   8.050  0.5117 -0.1036  0.5926
 4824TIP3    H238668   7.539   1.080   8.139 -0.2026  0.2361 -0.0510
 4825TIP3   OH238669   5.022   0.314   8.007 -0.1195  0.3238  0.2605
 4825TIP3    H138670   4.934   0.283   7.984 -0.1472  1.0502 -0.7004
 4825TIP3    H238671   5.020   0.407   7.986  1.9374 -0.2615 -3.1918
 4826TIP3   OH238672   4.701   6.960   7.914 -0.1123 -0.3864  0.7866
 4826TIP3    H138673   4.746   7.016   7.850 -2.0224  3.2450  2.3546
 4826TIP3    H238674   4.626   6.925   7.866  1.3756 -2.2389 -0.3584
 4827TIP3   OH238675   6.960   5.639   8.466  0.3505 -0.3104  0.0936
 4827TIP3    H138676   6.913   5.575   8.411 -2.4735 -0.3051  2.2894
 4827TIP3    H238677   7.052   5.613   8.458 -0.3270 -2.5760 -1.6934
 4828TIP3   OH238678   0.389   6.928   8.647  0.3874 -0.3184 -0.3953
 4828TIP3    H138679   0.345   6.998   8.598 -0.4263 -1.6755 -1.6967
 4828TIP3    H238680   0.328   6.908   8.719 -1.1148 -2.0124 -2.0424
 4829TIP3   OH238681   1.477   1.387   6.911  0.0843 -0.2180  0.2015
 4829TIP3    H138682   1.392   1.403   6.870  0.9491  1.1724 -1.1450
 4829TIP3    H238683   1.486   1.456   6.977  1.2834  1.3954 -1.5469
 4830TIP3   OH238684   0.583   3.440   7.801  0.1196  0.0407  0.0884
 4830TIP3    H138685   0.507   3.459   7.857 -0.2823 -0.7269 -0.1784
 4830TIP3    H238686   0.651   3.500   7.831 -0.1516 -0.2157  1.2689
 4831TIP3   OH238687   7.515   1.544   9.700  0.3721  0.4940  0.2918
 4831TIP3    H138688   7.589   1.577   9.751  1.1523  1.4684 -1.3626
 4831TIP3    H238689   7.550   1.469   9.652  0.9516  2.0587 -1.9354
 4832TIP3   OH238690   2.575   1.246   8.373  0.2822  0.1095 -0.1617
 4832TIP3    H138691   2.550   1.277   8.286 -0.2878  1.0178  0.3083
 4832TIP3    H238692   2.516   1.173   8.390  1.2005 -0.8588 -1.0185
 4833TIP3   OH238693   5.411   0.895   9.348 -0.2366 -0.4425  0.4249
 4833TIP3    H138694   5.408   0.812   9.396 -2.6730  0.2075  1.5912
 4833TIP3    H238695   5.451   0.957   9.409  0.6359 -0.5186 -0.0565
 4834TIP3   OH238696   2.534   2.131   9.160 -0.5373 -0.4208  0.3439
 4834TIP3    H138697   2.481   2.151   9.238 -0.4218 -0.2674  0.3831
 4834TIP3    H238698   2.550   2.216   9.120  0.3728 -0.3730  0.7766
 4835TIP3   OH238699   1.387   3.134   6.881  0.0727  0.5742 -0.1443
 4835TIP3    H138700   1.321   3.203   6.873  0.5778  1.1367  0.4164
 4835TIP3    H238701   1.465   3.179   6.914 -0.0250 -0.5167  1.7094
 4836TIP3   OH238702   2.651   2.357   9.047  0.1141  0.2982 -0.0784
 4836TIP3    H138703   2.632   2.426   8.984  0.4416 -0.0794 -0.6021
 4836TIP3    H238704   2.727   2.312   9.012  0.4919  0.2653  0.7453
 4837TIP3   OH238705   2.968   3.400   7.416 -0.0289  0.7967  0.0827
 4837TIP3    H138706   2.924   3.444   7.489 -0.3476 -0.7289  0.8516
 4837TIP3    H238707   3.061   3.411   7.435 -0.0219 -2.0059  2.3852
 4838TIP3   OH238708   4.658   0.400   8.004 -0.3192 -0.2367 -0.2573
 4838TIP3    H138709   4.715   0.466   8.042 -0.6534 -0.4927  0.7115
 4838TIP3    H238710   4.636   0.342   8.077 -0.6242 -0.9909 -0.9326
 4839TIP3   OH238711   6.130   2.399   8.842 -0.7602 -0.2934  0.0695
 4839TIP3    H138712   6.191   2.339   8.800  0.2833  0.0875  0.9843
 4839TIP3    H238713   6.169   2.417   8.928 -2.4446 -0.4819  0.9247
 4840TIP3   OH238714   1.969   2.221   6.694  0.1993  0.7792  0.0060
 4840TIP3    H138715   1.919   2.188   6.769  0.8466  0.3602  0.2668
 4840TIP3    H238716   1.907   2.273   6.644 -0.0889  1.6211  1.1858
 4841TIP3   OH238717   0.445   6.197   9.313  0.0831  0.3756 -0.0695
 4841TIP3    H138718   0.513   6.149   9.361 -0.4616  0.2915  0.6407
 4841TIP3    H238719   0.363   6.158   9.344 -0.2773  0.0328 -1.3880
 4842TIP3   OH238720   7.107   6.395   9.002 -0.4025  0.3768 -0.2674
 4842TIP3    H138721   7.038   6.339   8.966 -1.4942  1.1296  0.5741
 4842TIP3    H238722   7.063   6.447   9.069  0.6274  2.0681 -0.8357
 4843TIP3   OH238723   7.583   5.166   9.080 -0.1422 -0.2106 -0.4209
 4843TIP3    H138724   7.610   5.077   9.103  0.2158 -0.4238 -1.6004
 4843TIP3    H238725   7.488   5.160   9.068 -0.2109 -0.2799  0.1112
 4844TIP3   OH238726   5.068   1.012   6.696 -0.1673  0.1559  0.2053
 4844TIP3    H138727   5.027   0.968   6.622  0.8094 -0.5533  0.0658
 4844TIP3    H238728   5.083   1.101   6.665  0.0450 -0.0813 -0.3797
 4845TIP3   OH238729   0.147   2.933   6.945 -0.0406 -0.2524  0.3062
 4845TIP3    H138730   0.120   3.021   6.921 -3.0419 -1.2572 -0.4181
 4845TIP3    H238731   0.156   2.936   7.040  0.4306  0.9231  0.2438
 4846TIP3   OH238732   3.582   0.701   7.405  0.3126 -0.1597  0.0425
 4846TIP3    H138733   3.591   0.665   7.317 -1.6392 -1.0638  0.1649
 4846TIP3    H238734   3.561   0.625   7.460 -0.5962  0.6863  0.9074
 4847TIP3   OH238735   6.554   4.286   7.645 -0.4846  0.7251  0.0135
 4847TIP3    H138736   6.500   4.357   7.610 -0.7101  0.2613 -0.5957
 4847TIP3    H238737   6.525   4.275   7.736 -1.3571  0.5370 -0.2853
 4848TIP3   OH238738   4.665   4.616   7.580 -0.5950 -0.0810  0.7446
 4848TIP3    H138739   4.725   4.553   7.620  0.6415 -0.3814 -1.4587
 4848TIP3    H238740   4.622   4.568   7.510  0.2071  1.3781 -0.8391
 4849TIP3   OH238741   7.550   4.180   7.833  0.0840  0.1495 -0.1753
 4849TIP3    H138742   7.475   4.236   7.813  0.1630  0.4381  0.3238
 4849TIP3    H238743   7.588   4.159   7.748 -1.8590 -1.8188 -0.6605
 4850TIP3   OH238744   5.297   7.527   8.270 -0.1410 -0.2203 -0.5623
 4850TIP3    H138745   5.371   7.468   8.281 -0.2744 -0.2576  0.2458
 4850TIP3    H238746   5.228   7.472   8.233 -0.1619 -0.5010 -0.1199
 4851TIP3   OH238747   0.751   1.071   6.595 -0.2375  0.7738  0.3564
 4851TIP3    H138748   0.783   1.152   6.633  0.1779  0.8078 -0.0532
 4851TIP3    H238749   0.819   1.007   6.614 -0.1552  0.7276 -0.0806
 4852TIP3   OH238750   6.541   3.463   9.086 -0.6716 -0.1772  0.6854
 4852TIP3    H138751   6.519   3.380   9.128 -1.4059 -0.1980  0.2739
 4852TIP3    H238752   6.510   3.454   8.996 -1.0738  0.6630  0.7261
 4853TIP3   OH238753   4.749   2.619   7.282 -0.1132  0.0956 -0.3857
 4853TIP3    H138754   4.813   2.640   7.214 -2.0621  0.0346 -2.3463
 4853TIP3    H238755   4.664   2.632   7.240 -1.4543  0.9356  2.3321
 4854TIP3   OH238756   2.507   7.652   8.153 -0.2375 -0.5377  0.1356
 4854TIP3    H138757   2.511   7.557   8.164 -2.3404 -0.7414 -0.4624
 4854TIP3    H238758   2.418   7.676   8.179  0.4397  1.3822  0.9034
 4855TIP3   OH238759   6.240   1.586   7.347  0.1697  0.4741  0.3672
 4855TIP3    H138760   6.304   1.632   7.293  1.9572 -2.4132 -0.1721
 4855TIP3    H238761   6.165   1.571   7.289 -0.2546  2.1306  0.4202
 4856TIP3   OH238762   0.238   6.779   8.417 -0.1243 -0.0330 -0.1300
 4856TIP3    H138763   0.228   6.726   8.497  0.1407  0.9459  0.5695
 4856TIP3    H238764   0.153   6.821   8.405  0.6285  2.0695  1.3089
 4857TIP3   OH238765   4.237   1.407   7.693  0.2398  0.3767  0.3920
 4857TIP3    H138766   4.285   1.453   7.624 -0.4346  1.4000  0.5846
 4857TIP3    H238767   4.156   1.457   7.703 -0.6153 -0.9883  0.4658
 4858TIP3   OH238768   1.221   2.998   9.114  0.1701  0.1667  0.4540
 4858TIP3    H138769   1.314   2.997   9.092 -0.2603 -0.5226 -1.6141
 4858TIP3    H238770   1.205   2.914   9.157  0.3011 -0.2416 -0.2757
 4859TIP3   OH238771   3.262   1.232   7.832 -0.5847 -0.3607 -0.2245
 4859TIP3    H138772   3.338   1.209   7.885 -1.1488 -0.8126  0.4134
 4859TIP3    H238773   3.187   1.205   7.886 -1.1619 -1.2115 -1.4225
 4860TIP3   OH238774   1.954   1.112   7.861  0.3496 -0.5222 -0.3020
 4860TIP3    H138775   1.917   1.087   7.776 -0.7481 -1.2063  0.3481
 4860TIP3    H238776   1.903   1.061   7.925 -0.1497  1.3981  0.9129
 4861TIP3   OH238777   2.721   1.540   8.363 -0.1244  0.0786 -0.0134
 4861TIP3    H138778   2.762   1.456   8.347 -0.2914 -0.1570  0.7225
 4861TIP3    H238779   2.645   1.519   8.417  0.1566  0.7533  0.6650
 4862TIP3   OH238780   4.517   1.528   8.096 -0.2036  0.1877 -0.6257
 4862TIP3    H138781   4.483   1.460   8.038  0.6837 -1.7739  1.0090
 4862TIP3    H238782   4.494   1.498   8.184  2.4122  0.6325  0.3108
 4863TIP3   OH238783   2.356   1.381   9.314 -0.6341  0.2727  0.2135
 4863TIP3    H138784   2.325   1.449   9.254  1.0266 -0.1170 -1.1621
 4863TIP3    H238785   2.318   1.300   9.281 -1.5900  0.3453  1.0982
 4864TIP3   OH238786   6.363   5.332   6.817  0.5983  0.2697 -0.1524
 4864TIP3    H138787   6.367   5.424   6.791  0.4044  0.6001  0.9126
 4864TIP3    H238788   6.315   5.289   6.747 -0.5953  1.2529  0.0267
 4865TIP3   OH238789   0.594   2.376   8.091  0.5635 -0.7528 -0.1608
 4865TIP3    H138790   0.644   2.296   8.107 -1.9639 -2.4134 -0.1741
 4865TIP3    H238791   0.592   2.385   7.996  1.0335 -0.5149 -0.1534
 4866TIP3   OH238792   1.451   3.553   8.139  0.0454 -0.0788 -0.7909
 4866TIP3    H138793   1.468   3.481   8.079 -0.8035 -1.1502  0.2154
 4866TIP3    H238794   1.371   3.528   8.185  0.0643  1.2302  0.0092
 4867TIP3   OH238795   5.801   2.746   7.920 -0.0739  0.0464  1.1913
 4867TIP3    H138796   5.785   2.840   7.924  0.4725  0.3037 -1.1857
 4867TIP3    H238797   5.718   2.708   7.891  0.5683  0.2009 -0.9720
 4868TIP3   OH238798   3.714   5.548   8.462 -0.0776  0.1859  0.4487
 4868TIP3    H138799   3.757   5.609   8.402  0.9677 -2.1673 -1.3336
 4868TIP3    H238800   3.630   5.530   8.421 -0.6855  0.8866  1.3338
 4869TIP3   OH238801   7.306   3.083   7.233 -0.4063 -0.3910 -0.1088
 4869TIP3    H138802   7.324   3.056   7.143 -1.4347  1.7279 -1.0065
 4869TIP3    H238803   7.215   3.113   7.231 -0.4874 -0.4256  1.6877
 4870TIP3   OH238804   5.241   4.518   8.809  0.1650  0.0442 -0.3025
 4870TIP3    H138805   5.234   4.608   8.840  0.2661  0.1190 -0.4997
 4870TIP3    H238806   5.217   4.465   8.886 -2.7638  0.2699 -0.9569
 4871TIP3   OH238807   1.323   2.112   9.775  0.0394 -0.4328 -0.0758
 4871TIP3    H138808   1.286   2.102   9.863  0.1468 -0.5010 -0.0379
 4871TIP3    H238809   1.416   2.091   9.785  0.0335 -0.5304 -0.2249
 4872TIP3   OH238810   5.887   4.234   8.378 -0.3260  0.3749 -0.9354
 4872TIP3    H138811   5.793   4.243   8.394 -0.1172  0.6337  0.2690
 4872TIP3    H238812   5.922   4.322   8.396  0.2485  0.0608 -0.4829
 4873TIP3   OH238813   6.688   0.337   7.718 -0.2818  0.0980  0.2711
 4873TIP3    H138814   6.636   0.315   7.795 -2.1834  2.1269 -0.3509
 4873TIP3    H238815   6.660   0.275   7.651 -1.7900  1.0267  0.0107
 4874TIP3   OH238816   1.776   3.641   7.028  0.5807 -0.1156 -0.3145
 4874TIP3    H138817   1.785   3.695   6.950  0.7250 -1.4795 -1.2746
 4874TIP3    H238818   1.847   3.577   7.021  0.2934 -0.5612  0.6926
 4875TIP3   OH238819   1.205   2.760   9.295 -0.6852 -0.3444 -0.8018
 4875TIP3    H138820   1.200   2.763   9.391 -0.9299 -0.0783 -0.8202
 4875TIP3    H238821   1.246   2.676   9.276  2.7479  1.0592 -0.3394
 4876TIP3   OH238822   2.299   6.066   7.045 -0.3617  0.1566 -0.0483
 4876TIP3    H138823   2.213   6.091   7.078 -0.6001 -1.5774  0.7233
 4876TIP3    H238824   2.285   5.986   6.996  0.7744 -0.0305 -0.1109
 4877TIP3   OH238825   5.344   3.155   8.446 -0.1189  0.3558 -0.1430
 4877TIP3    H138826   5.280   3.139   8.515 -2.6616 -0.8234 -2.5311
 4877TIP3    H238827   5.426   3.120   8.479 -1.2015 -0.0735  2.2720
 4878TIP3   OH238828   4.555   5.050   8.716  0.1538  0.0746 -0.1593
 4878TIP3    H138829   4.506   5.108   8.657  1.1843  0.8566 -0.2968
 4878TIP3    H238830   4.493   5.026   8.784 -0.4297  1.0015 -0.3477
 4879TIP3   OH238831   0.922   6.791   6.858  0.6600  0.2382  0.1725
 4879TIP3    H138832   1.015   6.810   6.871  0.5923  1.0513 -0.4409
 4879TIP3    H238833   0.881   6.877   6.850 -0.2547 -0.0945  1.1077
 4880TIP3   OH238834   7.398   6.307   9.496 -0.0280  0.4500 -0.4533
 4880TIP3    H138835   7.445   6.335   9.417 -0.4226 -0.4976 -1.0456
 4880TIP3    H238836   7.438   6.223   9.519  1.2227  1.4817  1.3600
 4881TIP3   OH238837   6.173   0.257   7.052 -0.1873  0.0879 -0.3827
 4881TIP3    H138838   6.210   0.169   7.059  1.7310  0.9980  2.9914
 4881TIP3    H238839   6.083   0.242   7.023 -0.2955 -3.0815  1.1008
 4882TIP3   OH238840   4.174   4.617   7.112  0.0661  0.1920  0.3006
 4882TIP3    H138841   4.088   4.656   7.130 -0.0157 -0.4965  1.5088
 4882TIP3    H238842   4.155   4.537   7.064  0.0219 -0.0378  0.7007
 4883TIP3   OH238843   0.645   2.008   9.124 -0.2294  0.1079 -0.2076
 4883TIP3    H138844   0.699   2.073   9.079 -1.5487  1.1520 -0.3303
 4883TIP3    H238845   0.630   2.046   9.210  1.5114 -1.4615  0.8561
 4884TIP3   OH238846   1.697   2.700   7.799 -0.1899  0.0308  0.0991
 4884TIP3    H138847   1.785   2.734   7.782 -1.0792  2.2591 -0.3118
 4884TIP3    H238848   1.645   2.728   7.724 -1.7447  0.6590  1.3582
 4885TIP3   OH238849   3.924   6.383   7.757 -0.2084 -0.0848 -0.0039
 4885TIP3    H138850   3.947   6.378   7.664  2.2644  2.4281  0.3717
 4885TIP3    H238851   3.990   6.329   7.801 -0.9700 -0.7117  0.4026
 4886TIP3   OH238852   7.004   4.955   8.277 -0.1472 -0.1865  0.6348
 4886TIP3    H138853   7.016   5.013   8.352  1.0913  1.6184 -0.8518
 4886TIP3    H238854   7.066   4.884   8.292  1.5415  1.1741  0.4406
 4887TIP3   OH238855   3.086   7.501   9.617 -0.5823 -0.2394  1.1774
 4887TIP3    H138856   3.147   7.561   9.574 -0.5125 -1.7518 -1.0457
 4887TIP3    H238857   3.002   7.547   9.616 -0.4001  0.1068  0.0972
 4888TIP3   OH238858   4.379   5.247   6.884 -0.8022 -0.0038 -0.6603
 4888TIP3    H138859   4.287   5.258   6.907 -0.4437  2.7134 -0.2017
 4888TIP3    H238860   4.419   5.333   6.899  1.4814 -0.6291 -2.4180
 4889TIP3   OH238861   6.692   6.855   7.926 -0.2240 -0.0948  0.4399
 4889TIP3    H138862   6.748   6.779   7.940  0.2782  0.3584  0.9360
 4889TIP3    H238863   6.603   6.820   7.924 -0.1174 -0.5250  2.0863
 4890TIP3   OH238864   1.856   6.423   8.184 -0.2154  0.0023  0.3276
 4890TIP3    H138865   1.764   6.442   8.167 -0.3906 -0.3731  0.8542
 4890TIP3    H238866   1.898   6.433   8.098 -0.0845  3.7296  0.6358
 4891TIP3   OH238867   3.004   5.489   8.839 -0.5471  0.3101  0.2653
 4891TIP3    H138868   2.978   5.523   8.925  3.3120 -1.5113  2.4483
 4891TIP3    H238869   3.043   5.403   8.858  0.3258 -0.2775 -3.3822
 4892TIP3   OH238870   3.316   7.390   8.150  0.2146  0.3427 -0.3775
 4892TIP3    H138871   3.232   7.383   8.105  0.2008  0.0494 -0.3115
 4892TIP3    H238872   3.293   7.410   8.241  0.0632 -2.3297  0.2619
 4893TIP3   OH238873   2.592   6.336   6.787 -0.1635  0.3648  0.0363
 4893TIP3    H138874   2.680   6.302   6.770 -0.4588  0.6104 -2.3545
 4893TIP3    H238875   2.606   6.428   6.812  0.3815 -0.3433  2.6220
 4894TIP3   OH238876   1.135   2.717   7.376 -0.3816  0.2704 -0.0157
 4894TIP3    H138877   1.160   2.640   7.427 -1.3711  0.7412  1.2085
 4894TIP3    H238878   1.046   2.737   7.404 -0.0097  2.0875 -0.0315
 4895TIP3   OH238879   3.953   4.813   8.682 -0.1817  0.0275  0.5826
 4895TIP3    H138880   4.040   4.851   8.669  0.1926 -1.3181 -1.1976
 4895TIP3    H238881   3.916   4.864   8.754  1.7719  1.1351  0.8916
 4896TIP3   OH238882   3.856   4.718   7.553 -0.1746 -1.2163  0.1169
 4896TIP3    H138883   3.928   4.656   7.566  0.4836 -0.5929 -0.4539
 4896TIP3    H238884   3.797   4.673   7.493  0.2328 -1.3517 -0.1899
 4897TIP3   OH238885   4.973   6.505   9.335  0.2975 -0.0065 -0.0385
 4897TIP3    H138886   4.955   6.585   9.286 -0.3693 -0.5197 -0.6557
 4897TIP3    H238887   5.035   6.456   9.281  1.0235  0.2621  0.5301
 4898TIP3   OH238888   2.554   1.015   9.339 -0.3447 -0.4374  0.1022
 4898TIP3    H138889   2.524   0.942   9.393 -2.3386 -1.7703 -2.5731
 4898TIP3    H238890   2.630   0.980   9.293 -1.0273 -0.7103 -0.8408
 4899TIP3   OH238891   3.355   6.892   7.851 -0.3058  0.2754 -0.2343
 4899TIP3    H138892   3.441   6.851   7.860 -0.3863  0.0475 -0.5133
 4899TIP3    H238893   3.293   6.823   7.874 -0.4057  0.5453  0.3373
 4900TIP3   OH238894   2.367   7.309   6.966 -0.1325 -0.6747  0.1301
 4900TIP3    H138895   2.386   7.339   7.055  0.7759  1.9752 -0.8312
 4900TIP3    H238896   2.284   7.261   6.973 -0.2935 -0.1551  2.3238
 4901TIP3   OH238897   2.572   0.623   7.080 -0.5436  0.2996  0.7021
 4901TIP3    H138898   2.619   0.652   7.002  0.4088 -1.1270  0.7185
 4901TIP3    H238899   2.480   0.617   7.052 -0.5092  1.5521  0.2273
 4902TIP3   OH238900   6.750   0.959   7.490 -1.0054  0.3335  0.1781
 4902TIP3    H138901   6.747   1.041   7.440 -3.2688  0.9984  1.2943
 4902TIP3    H238902   6.731   0.984   7.580  3.2638 -0.7969  1.6395
 4903TIP3   OH238903   4.531   5.181   7.755  0.2323  0.2358 -0.0584
 4903TIP3    H138904   4.607   5.233   7.730  0.7752 -0.3445  0.3406
 4903TIP3    H238905   4.471   5.188   7.681  0.6822  0.6878 -0.3842
 4904TIP3   OH238906   7.149   6.093   8.123 -0.3446 -0.2753  0.7500
 4904TIP3    H138907   7.078   6.030   8.111 -0.4714 -0.0830  0.4896
 4904TIP3    H238908   7.227   6.049   8.089 -0.6752  0.2207 -0.7244
 4905TIP3   OH238909   1.832   6.521   8.591  0.2034  0.2688 -0.0677
 4905TIP3    H138910   1.799   6.551   8.676 -0.6020 -0.3421 -0.1578
 4905TIP3    H238911   1.760   6.472   8.553  0.7622  0.0428 -0.8603
 4906TIP3   OH238912   1.002   3.559   7.485  0.5799  0.1847 -0.2854
 4906TIP3    H138913   1.072   3.501   7.514  0.8065  1.0114  0.9057
 4906TIP3    H238914   1.039   3.605   7.410  1.6903  1.2431  0.8510
 4907TIP3   OH238915   3.987   3.421   8.794 -0.1597  0.1824  0.1526
 4907TIP3    H138916   3.981   3.348   8.855  1.1660 -0.7023 -0.7273
 4907TIP3    H238917   4.051   3.480   8.832 -1.5634  1.1798  1.0946
 4908TIP3   OH238918   1.494   5.475   7.193 -0.3283 -0.1448 -0.4452
 4908TIP3    H138919   1.428   5.433   7.137 -0.1032 -0.1797 -0.6878
 4908TIP3    H238920   1.547   5.526   7.132  0.2242 -0.5802 -0.3315
 4909TIP3   OH238921   4.358   0.329   6.949 -0.6538 -0.1719  0.4980
 4909TIP3    H138922   4.439   0.364   6.984 -0.2899 -1.5634  1.1294
 4909TIP3    H238923   4.385   0.266   6.882 -1.2611  0.3690 -0.2701
 4910TIP3   OH238924   0.832   0.857   9.076 -0.0365 -0.1792  0.2803
 4910TIP3    H138925   0.800   0.908   9.150  0.9524 -1.0926  1.3885
 4910TIP3    H238926   0.768   0.872   9.007 -1.3415  0.2030  1.5219
 4911TIP3   OH238927   6.656   7.234   8.716  0.3188 -0.0501  0.4495
 4911TIP3    H138928   6.713   7.249   8.640  0.8922 -0.2309  0.8353
 4911TIP3    H238929   6.717   7.220   8.789 -0.2294  0.5250  1.0291
 4912TIP3   OH238930   0.221   3.386   9.589 -0.6460 -0.2546 -0.0089
 4912TIP3    H138931   0.317   3.388   9.582 -0.7319  3.1044 -2.5850
 4912TIP3    H238932   0.193   3.333   9.515 -0.8394 -1.0616  0.6245
 4913TIP3   OH238933   1.593   2.344   8.815  0.6443 -0.2411 -0.0287
 4913TIP3    H138934   1.581   2.303   8.729 -0.6905  0.4249 -0.1859
 4913TIP3    H238935   1.659   2.412   8.799 -0.6707  0.8926 -0.9241
 4914TIP3   OH238936   3.617   2.691   7.996  0.2823  0.2277 -0.1610
 4914TIP3    H138937   3.601   2.680   8.090 -1.1252  0.2565 -0.3777
 4914TIP3    H238938   3.621   2.786   7.983  0.3665  0.2254 -0.1555
 4915TIP3   OH238939   6.365   0.829   8.926  0.4383  0.4872 -0.8549
 4915TIP3    H138940   6.316   0.815   9.007 -0.1764  1.1276 -1.1054
 4915TIP3    H238941   6.447   0.782   8.939 -0.4329 -1.0297 -0.6224
 4916TIP3   OH238942   6.412   7.398   8.687 -0.6133 -0.4360  0.6228
 4916TIP3    H138943   6.474   7.328   8.669 -0.2368 -0.2780  1.2959
 4916TIP3    H238944   6.461   7.461   8.739 -0.4240  1.1518 -1.3366
 4917TIP3   OH238945   3.794   1.386   7.852 -0.0133  0.2276 -0.0450
 4917TIP3    H138946   3.704   1.363   7.830  0.7242 -1.4595 -1.5223
 4917TIP3    H238947   3.848   1.331   7.796  2.0006 -0.8108  2.6515
 4918TIP3   OH238948   5.148   6.153   6.617  1.0076 -0.2139 -0.7054
 4918TIP3    H138949   5.155   6.110   6.702  0.8715  0.0698 -0.5480
 4918TIP3    H238950   5.237   6.183   6.598  1.0391 -0.2844 -0.6675
 4919TIP3   OH238951   7.358   2.723   8.910  0.2281 -0.3736 -0.5863
 4919TIP3    H138952   7.402   2.718   8.994 -3.1308  0.6792  1.4548
 4919TIP3    H238953   7.354   2.817   8.890 -3.1188 -0.0840  0.7183
 4920TIP3   OH238954   3.453   4.245   8.198  0.4522 -0.3189  0.1684
 4920TIP3    H138955   3.543   4.260   8.227  1.3723 -0.6925 -2.2453
 4920TIP3    H238956   3.462   4.197   8.116 -1.8777  1.2527 -1.1359
 4921TIP3   OH238957   3.138   3.203   7.857  0.1079  0.6094 -0.1744
 4921TIP3    H138958   3.127   3.119   7.812 -0.4422  0.4132  0.3226
 4921TIP3    H238959   3.050   3.230   7.882  0.4116  0.6281  0.9377
 4922TIP3   OH238960   7.516   4.551   8.961  0.0549  0.5171  0.4905
 4922TIP3    H138961   7.457   4.476   8.971  0.2100  0.4597  1.0177
 4922TIP3    H238962   7.592   4.528   9.014 -0.9062  2.0988  2.7101
 4923TIP3   OH238963   7.324   6.645   8.698 -0.6370  0.0943 -0.2643
 4923TIP3    H138964   7.291   6.577   8.639 -1.8369  0.2663  0.1798
 4923TIP3    H238965   7.348   6.598   8.778  0.3793 -0.0483 -0.6292
 4924TIP3   OH238966   7.490   5.443   8.163 -0.5438  0.0857 -0.0026
 4924TIP3    H138967   7.457   5.353   8.172 -1.4189  0.3680 -0.2512
 4924TIP3    H238968   7.527   5.446   8.074  0.3872 -0.2997  0.3615
 4925TIP3   OH238969   6.472   2.350   7.441  0.6029 -0.1079 -0.7174
 4925TIP3    H138970   6.456   2.443   7.424  1.3603  0.6963  2.2682
 4925TIP3    H238971   6.553   2.330   7.394  0.7014  0.8780 -0.9870
 4926TIP3   OH238972   6.180   1.620   9.137  0.2976 -0.4966  0.1935
 4926TIP3    H138973   6.235   1.559   9.088 -1.3845 -2.0943  0.1765
 4926TIP3    H238974   6.117   1.651   9.072  1.5919  1.9718 -0.0004
 4927TIP3   OH238975   1.756   7.356   8.627  0.1503 -0.5273  0.2769
 4927TIP3    H138976   1.796   7.395   8.704  1.4510  1.7235 -1.3949
 4927TIP3    H238977   1.793   7.268   8.622  0.2004 -0.6366  2.0643
 4928TIP3   OH238978   4.765   3.013   8.063 -0.4723 -0.7665 -0.2093
 4928TIP3    H138979   4.755   3.021   7.968 -0.7725 -0.3871 -0.1460
 4928TIP3    H238980   4.749   2.920   8.080  1.4397 -1.2404 -0.7484
 4929TIP3   OH238981   2.221   6.616   9.432  0.1638 -0.1560  0.0604
 4929TIP3    H138982   2.168   6.671   9.373  0.5383 -0.8654 -0.9734
 4929TIP3    H238983   2.229   6.668   9.512 -0.5126  0.7683 -0.4404
 4930TIP3   OH238984   4.331   4.926   9.265  0.6203  0.2591 -0.3591
 4930TIP3    H138985   4.410   4.944   9.214  0.3717  1.5956 -0.2967
 4930TIP3    H238986   4.335   4.987   9.339  0.0477 -0.3831  0.2157
 4931TIP3   OH238987   0.003   1.487   6.685 -0.4085  0.1174 -0.1928
 4931TIP3    H138988  -0.079   1.527   6.655  0.2175  0.3219 -1.7588
 4931TIP3    H238989   0.067   1.558   6.680 -0.2927  0.2139  1.9519
 4932TIP3   OH238990   2.434   6.312   8.685 -0.5579 -0.1954 -0.2044
 4932TIP3    H138991   2.417   6.377   8.753  1.0236 -1.3519  1.4145
 4932TIP3    H238992   2.355   6.258   8.683 -0.7557  0.0531  0.5108
 4933TIP3   OH238993   5.578   1.373   7.297 -0.1249  0.5504 -0.3887
 4933TIP3    H138994   5.507   1.370   7.360 -0.5081  3.5013 -0.5482
 4933TIP3    H238995   5.540   1.413   7.219  0.5395 -2.2617 -2.3288
 4934TIP3   OH238996   1.822   2.653   8.229  0.4139 -0.4910 -0.0527
 4934TIP3    H138997   1.729   2.673   8.234  0.6673  0.6792  0.1613
 4934TIP3    H238998   1.828   2.583   8.164 -0.5322 -0.0355 -0.6410
 4935TIP3   OH238999   4.453   6.591   8.228 -0.5500  0.0576  0.3405
 4935TIP3    H139000   4.494   6.677   8.231 -0.9489  0.2490  0.2475
 4935TIP3    H239001   4.365   6.604   8.262 -0.9209 -0.1354 -0.5200
 4936TIP3   OH239002   6.122   0.236   7.387 -0.2235 -0.1369 -0.6367
 4936TIP3    H139003   6.134   0.315   7.335  0.4363  0.2996  0.1514
 4936TIP3    H239004   6.192   0.240   7.453 -1.0671 -0.6483  0.3120
 4937TIP3   OH239005   2.656   1.496   8.753 -0.0470 -0.8408 -0.4069
 4937TIP3    H139006   2.727   1.543   8.708  0.3259  1.0939  1.9455
 4937TIP3    H239007   2.701   1.448   8.823 -0.9435 -0.1604  0.6699
 4938TIP3   OH239008   3.856   6.318   9.485  0.0485 -0.1801  0.2384
 4938TIP3    H139009   3.851   6.406   9.522  0.6212 -0.1804  0.3225
 4938TIP3    H239010   3.831   6.260   9.557 -0.2801 -0.0889  0.1970
 4939TIP3   OH239011   0.508   2.363   9.084  0.0064  0.2639  0.0097
 4939TIP3    H139012   0.566   2.420   9.134  0.3249 -0.5016  0.5386
 4939TIP3    H239013   0.564   2.324   9.017  0.1621 -0.6074  0.6273
 4940TIP3   OH239014   6.205   0.653   9.544 -0.0669 -0.4054 -0.0994
 4940TIP3    H139015   6.143   0.716   9.507 -0.0998 -0.5415 -0.2793
 4940TIP3    H239016   6.161   0.569   9.537 -0.3312 -0.3536  0.8336
 4941TIP3   OH239017   0.683   7.575   8.202 -0.1000  0.1448  0.6144
 4941TIP3    H139018   0.759   7.632   8.187 -0.3352  1.1658  2.8552
 4941TIP3    H239019   0.627   7.590   8.126  0.6672  1.5340  0.2745
 4942TIP3   OH239020   6.426   4.385   8.298  0.1459 -0.5454 -0.5513
 4942TIP3    H139021   6.482   4.390   8.376  0.4102  0.2698 -0.7839
 4942TIP3    H239022   6.337   4.392   8.333  0.2783  0.2538 -0.3464
 4943TIP3   OH239023   1.063   6.117   8.584 -0.2123  0.5869  0.7639
 4943TIP3    H139024   1.124   6.044   8.591 -0.5551  0.0832 -0.9963
 4943TIP3    H239025   0.977   6.078   8.599 -0.3888  0.6197 -0.1028
 4944TIP3   OH239026   0.518   3.013   9.426 -0.1303  0.0809 -0.0529
 4944TIP3    H139027   0.532   3.034   9.518  0.6876  0.6412 -0.2868
 4944TIP3    H239028   0.488   3.095   9.387  1.9010  0.5566 -0.7387
 4945TIP3   OH239029   4.939   1.492   8.404  0.4387  0.3258 -0.2691
 4945TIP3    H139030   4.850   1.512   8.373 -0.0028 -0.3053  0.5315
 4945TIP3    H239031   4.985   1.463   8.325  0.2115  1.5066 -0.8667
 4946TIP3   OH239032   0.060   2.043   9.206  0.5207  0.2950 -0.2737
 4946TIP3    H139033  -0.028   2.068   9.177  0.3476  0.0091 -0.0074
 4946TIP3    H239034   0.114   2.121   9.189  0.4621  0.0901 -1.4601
 4947TIP3   OH239035   3.352   2.388   8.718 -0.1346  0.4473  0.3829
 4947TIP3    H139036   3.392   2.371   8.803 -1.9134 -1.7682  0.8819
 4947TIP3    H239037   3.423   2.424   8.665  1.0187  1.9915  2.7684
 4948TIP3   OH239038   7.610   3.615   8.061 -0.1732  0.0829  0.6570
 4948TIP3    H139039   7.550   3.677   8.020  0.2479 -0.1472 -0.3554
 4948TIP3    H239040   7.674   3.670   8.107 -0.6972  0.3455  1.0832
 4949TIP3   OH239041   6.418   7.412   9.115 -0.0928  0.0480 -0.4236
 4949TIP3    H139042   6.465   7.495   9.126 -0.2198  0.1240 -0.4602
 4949TIP3    H239043   6.368   7.402   9.196  0.6006 -0.4253 -0.0359
 4950TIP3   OH239044   0.079   1.632   9.049 -0.6031  0.4074  1.0626
 4950TIP3    H139045   0.007   1.614   9.110 -1.1485  1.5836  0.7947
 4950TIP3    H239046   0.074   1.561   8.985  0.3042 -1.1524  2.6404
 4951TIP3   OH239047   4.914   7.525   8.650 -0.2428  0.2134  0.7353
 4951TIP3    H139048   4.840   7.465   8.646  0.1046 -0.1981 -2.5208
 4951TIP3    H239049   4.879   7.608   8.618  0.7762 -0.1850 -1.5910
 4952TIP3   OH239050   1.553   4.817   8.911 -0.1871 -0.0378  0.4557
 4952TIP3    H139051   1.521   4.891   8.858  1.0633  0.7399  0.7409
 4952TIP3    H239052   1.492   4.746   8.892 -1.2157  0.9554 -0.1150
 4953TIP3   OH239053   5.980   0.029   8.599 -0.4872 -0.4769 -0.6733
 4953TIP3    H139054   5.925  -0.046   8.577  0.5009 -1.0042 -1.4100
 4953TIP3    H239055   6.013   0.010   8.687 -0.7532 -0.5898 -0.5974
 4954TIP3   OH239056   2.126   3.000   7.195 -0.3265  0.2681 -0.0289
 4954TIP3    H139057   2.203   2.995   7.138 -0.1053  0.1382  0.2737
 4954TIP3    H239058   2.138   2.928   7.257 -0.3799  0.6186  0.3953
 4955TIP3   OH239059   5.725   2.309   9.341 -0.2194  0.3043  0.2236
 4955TIP3    H139060   5.709   2.354   9.259  1.5042 -1.6273 -1.2793
 4955TIP3    H239061   5.645   2.260   9.358 -0.3076  0.1082 -0.7284
 4956TIP3   OH239062   7.608   6.254   8.603  0.2492  0.1166  0.4156
 4956TIP3    H139063   7.524   6.291   8.630  0.1863 -1.1166  2.0478
 4956TIP3    H239064   7.597   6.159   8.612  1.3091 -0.1714 -0.9368
 4957TIP3   OH239065   6.183   4.535   8.419 -0.3846  0.0267  0.4497
 4957TIP3    H139066   6.140   4.620   8.410 -3.2229 -1.1660  1.4885
 4957TIP3    H239067   6.169   4.492   8.335  0.0553  0.1546  0.3083
 4958TIP3   OH239068   6.168   7.391   8.946  0.2887 -0.3363  0.4284
 4958TIP3    H139069   6.249   7.428   8.982  0.9310  0.0554 -1.3168
 4958TIP3    H239070   6.139   7.328   9.012  1.3879  0.3443  1.6084
 4959TIP3   OH239071   0.576   2.821   9.003 -0.1377 -0.3659 -0.2098
 4959TIP3    H139072   0.522   2.774   9.067  0.4883 -1.0267 -0.1577
 4959TIP3    H239073   0.518   2.889   8.968 -0.4225  0.1986  1.2583
 4960TIP3   OH239074   3.636   7.464   7.859 -0.2375 -1.0167 -0.1753
 4960TIP3    H139075   3.593   7.549   7.875  0.5060 -0.7093  0.2498
 4960TIP3    H239076   3.670   7.439   7.944 -2.0511 -2.6777  0.1264
 4961TIP3   OH239077   1.780   7.100   9.252  0.7607  0.4733  0.1707
 4961TIP3    H139078   1.832   7.034   9.207  0.5726 -0.9701  1.9422
 4961TIP3    H239079   1.767   7.064   9.340  1.6794  3.4222  1.6333
 4962TIP3   OH239080   1.787   1.500   7.538  1.2211  0.4120 -0.1959
 4962TIP3    H139081   1.734   1.560   7.486 -2.2329 -0.5324  1.9149
 4962TIP3    H239082   1.805   1.547   7.619 -0.4102 -0.7880  0.9444
 4963TIP3   OH239083   1.384   5.742   6.819  0.8889 -0.4153  0.4835
 4963TIP3    H139084   1.461   5.709   6.773  1.0429 -0.9984  1.1237
 4963TIP3    H239085   1.333   5.787   6.753  0.6756 -1.9613 -0.4635
 4964TIP3   OH239086   6.859   6.304   8.935  0.3088 -0.1687 -0.8112
 4964TIP3    H139087   6.877   6.211   8.944 -1.9199 -0.7303 -1.3827
 4964TIP3    H239088   6.793   6.323   9.002  1.5150  1.2937  0.0425
 4965TIP3   OH239089   2.263   0.141   8.238  0.0061  0.0047 -0.7200
 4965TIP3    H139090   2.235   0.222   8.195 -0.1451 -0.2434 -1.0989
 4965TIP3    H239091   2.301   0.169   8.321 -0.9014  0.3948 -0.4193
 4966TIP3   OH239092   2.890   2.914   9.338 -0.9107  0.3157 -0.2052
 4966TIP3    H139093   2.863   2.957   9.419  0.1774 -0.3149  0.5192
 4966TIP3    H239094   2.891   2.821   9.360  0.5833  0.2292 -0.5654
 4967TIP3   OH239095   5.143   6.745   9.509  0.2852  0.0354 -0.1100
 4967TIP3    H139096   5.134   6.840   9.515  0.0089  0.1314 -1.5974
 4967TIP3    H239097   5.057   6.714   9.479 -0.2870 -0.9359  2.2623
 4968TIP3   OH239098   0.549   0.097   7.511  0.7049 -0.6157 -0.6522
 4968TIP3    H139099   0.581   0.034   7.575  1.9188  0.9248  0.3411
 4968TIP3    H239100   0.596   0.178   7.532 -2.5357  1.3296 -0.3290
 4969TIP3   OH239101   3.398   1.981   9.704 -0.0804  0.1017  0.3459
 4969TIP3    H139102   3.395   1.890   9.676 -0.8827 -0.3474  1.8169
 4969TIP3    H239103   3.490   1.996   9.727  0.6486  0.5228 -2.4528
 4970TIP3   OH239104   3.539   6.194   8.067  0.0396 -0.3975  0.0470
 4970TIP3    H139105   3.630   6.222   8.058  0.0663  0.1883  1.8390
 4970TIP3    H239106   3.488   6.275   8.060 -0.3560 -0.7051 -0.7999
 4971TIP3   OH239107   7.075   5.677   9.204 -0.4944 -0.6326  0.4053
 4971TIP3    H139108   7.123   5.752   9.240 -2.7271  1.0246  0.1663
 4971TIP3    H239109   7.133   5.642   9.137  0.2207  1.5962 -0.2504
 4972TIP3   OH239110   2.663   1.544   6.496  0.7397 -0.3183 -0.4275
 4972TIP3    H139111   2.666   1.601   6.418  1.0224  0.6052  0.2452
 4972TIP3    H239112   2.585   1.490   6.482 -0.8811  1.7580 -0.0728
 4973TIP3   OH239113   1.213   1.354   8.827 -0.0847 -0.0722 -0.5677
 4973TIP3    H139114   1.179   1.386   8.744 -0.4427 -0.9495 -0.7574
 4973TIP3    H239115   1.239   1.264   8.810 -2.4262 -1.0973  0.8657
 4974TIP3   OH239116   5.889   5.276   6.731 -0.1842 -0.1452  0.0990
 4974TIP3    H139117   5.833   5.204   6.762  1.3821 -1.1367  0.7846
 4974TIP3    H239118   5.969   5.232   6.701 -0.5602  1.0193 -2.9684
 4975TIP3   OH239119   5.963   1.420   7.647 -0.4744 -0.6569 -0.1978
 4975TIP3    H139120   5.912   1.500   7.635  0.2239 -0.6176 -3.9507
 4975TIP3    H239121   5.948   1.369   7.568  1.5792 -2.8189  0.6870
 4976TIP3   OH239122   4.929   3.386   7.999 -0.1829  0.1544  0.1128
 4976TIP3    H139123   5.009   3.433   7.973 -0.3448  0.0651 -0.5697
 4976TIP3    H239124   4.920   3.316   7.935 -0.5959 -0.0772  0.4186
 4977TIP3   OH239125   5.008   7.299   8.925  0.1926  0.3795 -0.2922
 4977TIP3    H139126   5.012   7.391   8.951 -1.1009  0.1058  1.0992
 4977TIP3    H239127   4.917   7.274   8.942  0.6702 -1.3144 -0.0285
 4978TIP3   OH239128   4.616   1.731   7.914 -0.3346 -0.4352 -0.0017
 4978TIP3    H139129   4.589   1.679   7.990 -0.2880  0.8229  0.9194
 4978TIP3    H239130   4.700   1.769   7.939 -0.1849 -0.2224 -0.7957
 4979TIP3   OH239131   5.387   7.133   8.102 -0.1838  0.0667 -0.3989
 4979TIP3    H139132   5.402   7.079   8.180 -1.0500  0.9746  0.4216
 4979TIP3    H239133   5.315   7.089   8.056 -0.2500  0.0031 -0.2362
 4980TIP3   OH239134   1.012   5.317   8.132  0.4405  0.2597  0.2869
 4980TIP3    H139135   0.985   5.397   8.087  0.0161 -0.0700 -0.0494
 4980TIP3    H239136   1.108   5.322   8.136  0.4675  0.3843 -0.4698
 4981TIP3   OH239137   3.690   2.256   8.818 -0.4767  0.4958 -0.1416
 4981TIP3    H139138   3.739   2.194   8.871 -0.1179 -0.7047 -1.7717
 4981TIP3    H239139   3.756   2.298   8.763 -0.7902  1.9582  0.5561
 4982TIP3   OH239140   2.632   7.369   8.018 -0.1923 -0.2492 -0.7521
 4982TIP3    H139141   2.667   7.334   7.936  0.2739  0.7283 -0.9833
 4982TIP3    H239142   2.706   7.417   8.057 -0.3759 -0.7851  0.2896
 4983TIP3   OH239143   5.814   5.483   9.487 -0.2227  0.0730  0.1255
 4983TIP3    H139144   5.753   5.413   9.463  1.2294 -0.5158 -2.2099
 4983TIP3    H239145   5.774   5.562   9.452 -1.1051  0.1811  1.3497
 4984TIP3   OH239146   1.632   6.350   7.185 -0.0607  0.1923 -0.2372
 4984TIP3    H139147   1.637   6.411   7.112 -1.8440 -0.6953 -1.1688
 4984TIP3    H239148   1.570   6.392   7.246 -0.1843 -0.0222 -0.2151
 4985TIP3   OH239149   7.260   0.834   8.375  0.1257  0.0055 -0.4916
 4985TIP3    H139150   7.261   0.792   8.461  1.4808 -1.2234 -1.0553
 4985TIP3    H239151   7.342   0.806   8.334 -0.9265 -0.2417 -2.5651
 4986TIP3   OH239152   1.109   5.805   7.513 -0.0810  0.2637  0.2133
 4986TIP3    H139153   1.173   5.827   7.445 -0.6638 -0.0741 -0.4493
 4986TIP3    H239154   1.146   5.728   7.557 -0.2109 -0.1650 -0.4167
 4987TIP3   OH239155   4.213   0.223   7.196  0.1053  0.0583  0.6897
 4987TIP3    H139156   4.243   0.282   7.127  1.2340  0.4008  1.4331
 4987TIP3    H239157   4.210   0.137   7.155 -1.2500  0.5687 -0.3254
 4988TIP3   OH239158   4.276   6.906   9.029  0.2641 -0.4274 -0.6429
 4988TIP3    H139159   4.353   6.853   9.050  1.6640  1.7254 -0.0482
 4988TIP3    H239160   4.254   6.882   8.939  1.9290 -0.7608 -0.9851
 4989TIP3   OH239161   2.824   2.542   7.758  0.4374  0.0203  0.0070
 4989TIP3    H139162   2.835   2.620   7.703  1.7283  1.5425  2.2119
 4989TIP3    H239163   2.874   2.562   7.837  0.2711 -2.8323  0.9519
 4990TIP3   OH239164   0.028   2.700   9.540  0.3699  0.3258 -0.0211
 4990TIP3    H139165   0.028   2.792   9.514 -1.0769  0.6450  0.9922
 4990TIP3    H239166   0.093   2.658   9.483 -3.2946  0.6552 -5.1208
 4991TIP3   OH239167   2.287   0.008   9.184 -0.0608  0.0928  0.6790
 4991TIP3    H139168   2.300   0.014   9.279  0.9503 -0.9451  0.6303
 4991TIP3    H239169   2.192   0.004   9.173 -0.2180  0.7654  1.5944
 4992TIP3   OH239170   2.390   0.866   8.772  0.1459  0.1653 -0.5273
 4992TIP3    H139171   2.360   0.779   8.800 -2.5089  1.5375  1.3108
 4992TIP3    H239172   2.453   0.892   8.839 -0.5133  0.3817  0.0282
 4993TIP3   OH239173   6.619   7.262   9.458 -0.0197 -0.3602  0.2927
 4993TIP3    H139174   6.594   7.347   9.494  1.0335  1.0188 -1.9656
 4993TIP3    H239175   6.557   7.201   9.496 -2.0650  1.7237  0.5367
 4994TIP3   OH239176   1.965   3.502   7.694 -0.3462 -0.2144 -0.3392
 4994TIP3    H139177   1.963   3.518   7.599  2.4093 -1.2376 -0.6486
 4994TIP3    H239178   1.946   3.587   7.733 -1.3011  0.2810 -1.7733
 4995TIP3   OH239179   1.176   0.026   8.849  0.1392  0.3383 -0.7370
 4995TIP3    H139180   1.192   0.073   8.931 -0.5168  0.9609 -0.9572
 4995TIP3    H239181   1.082   0.008   8.850  0.4760 -1.6334 -0.3131
 4996TIP3   OH239182   4.211   1.531   8.016 -0.0321  0.6858  0.2711
 4996TIP3    H139183   4.278   1.524   7.948 -0.7421 -0.1295 -0.3639
 4996TIP3    H239184   4.227   1.616   8.057  1.1469  0.6613 -0.1237
 4997TIP3   OH239185   0.277   1.209   8.073  1.0121  0.7009 -0.3684
 4997TIP3    H139186   0.189   1.241   8.093  0.3193  0.1839 -2.3704
 4997TIP3    H239187   0.335   1.259   8.130 -0.6880 -0.2081  2.3577
 4998TIP3   OH239188   0.620   2.741   9.440  0.2527 -0.0749  0.6366
 4998TIP3    H139189   0.707   2.761   9.475  0.6166  0.3805 -0.4782
 4998TIP3    H239190   0.580   2.827   9.423 -0.0189 -0.2841  0.1989
 4999TIP3   OH239191   7.322   5.784   9.369 -0.5027  0.3590 -0.7995
 4999TIP3    H139192   7.396   5.725   9.355 -0.7499 -0.0281 -0.4800
 4999TIP3    H239193   7.358   5.871   9.351 -0.1422  0.1162 -1.2929
 5000TIP3   OH239194   6.359   4.313   7.195  0.0015 -0.1716 -0.1308
 5000TIP3    H139195   6.349   4.250   7.124 -0.2920  0.3315 -0.5446
 5000TIP3    H239196   6.429   4.371   7.166 -0.0943  0.0150  0.0048
 5001TIP3   OH239197   3.481   1.835   7.497 -0.3172 -0.4091 -0.5058
 5001TIP3    H139198   3.428   1.913   7.484 -0.0474  0.1684  1.5231
 5001TIP3    H239199   3.550   1.841   7.431 -0.4516  0.9248 -0.5477
 5002TIP3   OH239200   2.133   5.077   8.801 -0.0187  0.5020  0.0105
 5002TIP3    H139201   2.136   5.131   8.880 -1.9962  1.4359 -0.4866
 5002TIP3    H239202   2.104   4.991   8.832 -0.1682  0.6814  0.3797
 5003TIP3   OH239203   4.925   2.870   9.081  0.4667 -0.2061 -0.0588
 5003TIP3    H139204   4.860   2.813   9.123  1.0361  0.6553  2.1399
 5003TIP3    H239205   4.884   2.957   9.080  1.4886  0.3319  1.2813
 5004TIP3   OH239206   0.724   4.746   7.161  0.2885  0.3567 -0.6076
 5004TIP3    H139207   0.809   4.789   7.152  1.7588 -1.7802  1.7736
 5004TIP3    H239208   0.745   4.654   7.181 -2.4769  0.2162  2.4548
 5005TIP3   OH239209   2.905   4.753   8.285 -0.2835 -0.3584  0.3131
 5005TIP3    H139210   2.860   4.700   8.219 -0.8197 -1.6257  1.6594
 5005TIP3    H239211   2.841   4.766   8.354  0.7526 -0.4197  1.3180
 5006TIP3   OH239212   6.223   5.760   8.133 -1.1085  0.3175  0.3595
 5006TIP3    H139213   6.207   5.712   8.215 -0.5982 -0.6371 -0.0881
 5006TIP3    H239214   6.316   5.751   8.117 -1.2091  0.4650 -0.3534
 5007TIP3   OH239215   5.130   6.966   8.000  0.1148  0.0661  0.2054
 5007TIP3    H139216   5.116   6.994   8.091  1.5548  0.7408  0.2529
 5007TIP3    H239217   5.212   6.916   8.003  1.2773  1.7901 -1.0137
 5008TIP3   OH239218   1.423   5.502   7.694 -0.6300 -0.1471 -0.2525
 5008TIP3    H139219   1.456   5.413   7.706  0.2104 -0.1731 -2.3644
 5008TIP3    H239220   1.482   5.556   7.746  0.5243 -0.5860 -1.0583
 5009TIP3   OH239221   6.352   0.628   6.964  0.1345  0.0875  0.3892
 5009TIP3    H139222   6.272   0.595   6.922  0.5170  1.2224 -1.3343
 5009TIP3    H239223   6.328   0.714   6.998  0.7086  0.6301 -0.5322
 5010TIP3   OH239224   6.499   7.279   7.907  0.0910 -0.6960  0.1007
 5010TIP3    H139225   6.547   7.231   7.840 -0.3635  0.1882 -0.8845
 5010TIP3    H239226   6.544   7.363   7.914 -0.0620 -0.6582  0.6656
 5011TIP3   OH239227   3.392   4.820   7.739  0.3518 -0.1555 -0.4680
 5011TIP3    H139228   3.400   4.903   7.786  0.6355 -0.1161 -0.5826
 5011TIP3    H239229   3.363   4.757   7.805 -0.6730  0.2071 -0.5609
 5012TIP3   OH239230   1.953   5.982   6.964 -0.2064  0.0400 -0.2392
 5012TIP3    H139231   1.973   5.909   7.023  1.1542 -1.5684 -2.5163
 5012TIP3    H239232   1.858   5.993   6.970 -0.2796 -1.1185  1.0486
 5013TIP3   OH239233   4.407   2.604   9.809 -0.1354 -0.6061 -0.2500
 5013TIP3    H139234   4.400   2.518   9.850  0.4900 -0.2121  0.7020
 5013TIP3    H239235   4.497   2.632   9.824 -0.8933  1.2005  1.5004
 5014TIP3   OH239236   5.075   1.768   8.499 -0.1087  0.1314  0.1788
 5014TIP3    H139237   5.048   1.840   8.557 -1.0047  1.8831 -2.2368
 5014TIP3    H239238   4.997   1.715   8.489  0.5596 -1.3067  1.9793
 5015TIP3   OH239239   1.147   7.375   8.919 -0.3046  0.0867  0.3565
 5015TIP3    H139240   1.232   7.419   8.910 -0.5186  0.3337 -0.5188
 5015TIP3    H239241   1.102   7.393   8.837 -0.9638 -0.5689  0.5671
 5016TIP3   OH239242   7.507   7.425   7.746  0.1711 -0.0067 -0.4412
 5016TIP3    H139243   7.431   7.367   7.749  0.2079 -0.2253 -2.5114
 5016TIP3    H239244   7.583   7.366   7.750  0.2059 -0.0797 -1.7273
 5017TIP3   OH239245   0.356   1.552   9.046 -0.0069  0.0428 -0.0466
 5017TIP3    H139246   0.350   1.487   8.976  1.3311  0.2126 -0.3399
 5017TIP3    H239247   0.281   1.610   9.031  0.6339  0.5015 -1.8045
 5018TIP3   OH239248   3.013   2.545   8.602  0.3313 -0.4955  0.2375
 5018TIP3    H139249   3.008   2.526   8.508  0.7269 -1.0117  0.3204
 5018TIP3    H239250   2.961   2.625   8.612  2.5642  1.2548 -0.9055
 5019TIP3   OH239251   5.953   3.755   8.875  0.5452 -0.6560 -0.1126
 5019TIP3    H139252   5.880   3.697   8.856  0.1427 -0.0730 -0.3933
 5019TIP3    H239253   5.940   3.780   8.967 -0.3630  0.4700 -0.5235
 5020TIP3   OH239254   2.233   6.823   8.038 -0.3950  0.0872 -0.0649
 5020TIP3    H139255   2.323   6.792   8.047 -0.1506  0.7729 -0.0344
 5020TIP3    H239256   2.220   6.879   8.115 -0.8544 -0.0216 -0.0603
 5021TIP3   OH239257   4.499   7.568   9.640  0.0422 -0.3928  0.3906
 5021TIP3    H139258   4.572   7.510   9.663  0.7259  0.0748 -0.5312
 5021TIP3    H239259   4.540   7.654   9.627 -0.4461 -0.3909 -1.4035
 5022TIP3   OH239260   6.601   1.695   8.234  0.3785  0.2196 -0.3703
 5022TIP3    H139261   6.630   1.608   8.259 -0.9922  0.3638  2.0341
 5022TIP3    H239262   6.547   1.682   8.156  1.0027 -0.9231 -0.6220
 5023TIP3   OH239263   2.823   1.959   7.519 -0.0921  0.2335  0.3173
 5023TIP3    H139264   2.866   2.003   7.445  0.7161 -0.1997  0.5158
 5023TIP3    H239265   2.756   1.904   7.478  0.0261  0.3624 -0.0532
 5024TIP3   OH239266   5.176   0.786   9.246  0.1249 -0.3412 -0.6518
 5024TIP3    H139267   5.255   0.820   9.289  0.6186 -3.7174  1.4887
 5024TIP3    H239268   5.209   0.722   9.182 -0.8112 -0.8944 -0.6040
 5025TIP3   OH239269   0.542   6.453   7.818  0.0612 -0.1081  0.0751
 5025TIP3    H139270   0.546   6.395   7.893  0.0975 -0.6405 -0.3321
 5025TIP3    H239271   0.534   6.395   7.742 -3.2373  0.4439 -0.1448
 5026TIP3   OH239272   4.375   0.705   7.441  0.0750 -0.1442 -0.9279
 5026TIP3    H139273   4.364   0.633   7.379 -0.2840  1.3662 -2.6919
 5026TIP3    H239274   4.344   0.782   7.395  0.6985  1.2215  0.8075
 5027TIP3   OH239275   4.862   6.770   9.277 -0.2458 -0.1766  0.1741
 5027TIP3    H139276   4.823   6.853   9.303  0.2499 -0.0975  0.6786
 5027TIP3    H239277   4.952   6.791   9.254 -0.0310 -0.6119  0.5880
 5028TIP3   OH239278   2.871   3.738   8.772  0.4532  0.0721  0.1900
 5028TIP3    H139279   2.907   3.773   8.691 -1.6767  0.8118 -0.4796
 5028TIP3    H239280   2.783   3.710   8.750  0.2928 -0.9847  1.9501
 5029TIP3   OH239281   6.045   5.684   7.932  0.0297 -0.4678 -0.7977
 5029TIP3    H139282   6.100   5.703   8.009 -0.2362 -2.9181  0.0766
 5029TIP3    H239283   6.068   5.753   7.869  1.3245  0.7724  0.9302
 5030TIP3   OH239284   3.880   2.320   7.663 -0.3332 -0.2403  0.7947
 5030TIP3    H139285   3.891   2.228   7.642  1.6167  0.0402  0.4108
 5030TIP3    H239286   3.892   2.325   7.758  0.3123 -0.2916  0.7176
 5031TIP3   OH239287   0.056   7.546   9.153  0.4555  0.4753  0.3488
 5031TIP3    H139288   0.131   7.499   9.189  0.3308  0.2769  0.3500
 5031TIP3    H239289   0.093   7.627   9.117  0.3440  1.6412  2.6749
 5032TIP3   OH239290   0.720   3.826   8.846 -0.4616  0.2463 -0.2029
 5032TIP3    H139291   0.637   3.807   8.803 -0.6200 -2.1158  1.0025
 5032TIP3    H239292   0.786   3.782   8.793 -0.5500 -1.8059  1.2689
 5033TIP3   OH239293   7.185   0.367   7.620 -0.3268  0.2838 -0.0006
 5033TIP3    H139294   7.237   0.439   7.585  0.1594 -0.0379  0.0614
 5033TIP3    H239295   7.114   0.410   7.668  0.6878  0.7341  1.1343
 5034TIP3   OH239296   1.557   2.296   8.315  0.5193 -0.7447  0.4454
 5034TIP3    H139297   1.523   2.212   8.285  0.1628 -1.4685  2.6827
 5034TIP3    H239298   1.623   2.319   8.250 -1.6570 -1.0790 -2.0325
 5035TIP3   OH239299   1.197   2.042   8.657  0.2826  0.4522 -0.1098
 5035TIP3    H139300   1.218   2.014   8.567  0.5590  0.8973 -0.1867
 5035TIP3    H239301   1.247   1.983   8.713 -1.8907 -1.5722 -0.1448
 5036TIP3   OH239302   4.282   7.593   7.881  0.1021 -0.4886  0.1797
 5036TIP3    H139303   4.244   7.621   7.964  1.4867  0.1616  0.6146
 5036TIP3    H239304   4.245   7.654   7.816  2.9351  2.4568  1.0796
 5037TIP3   OH239305   1.514   1.401   9.126  0.2355  0.0433 -0.0230
 5037TIP3    H139306   1.578   1.352   9.177  0.7444 -0.6164 -1.2386
 5037TIP3    H239307   1.566   1.449   9.061 -0.4033  0.5969 -0.1415
 5038TIP3   OH239308   6.052   1.404   8.919 -0.6771 -0.0901 -0.0957
 5038TIP3    H139309   5.992   1.475   8.941  0.4203  0.5622  0.9267
 5038TIP3    H239310   6.122   1.446   8.868 -1.5672 -1.0255 -2.2105
 5039TIP3   OH239311   1.863   6.834   7.374 -0.7082  0.3548 -0.4240
 5039TIP3    H139312   1.926   6.865   7.308  0.4619 -1.9775 -0.5080
 5039TIP3    H239313   1.782   6.820   7.325 -1.2517  2.8988 -0.4159
 5040TIP3   OH239314   4.535   0.084   8.456  0.9279  0.8343  0.0123
 5040TIP3    H139315   4.454   0.084   8.405  1.5515  0.4123 -1.0046
 5040TIP3    H239316   4.539  -0.003   8.495  0.9779  0.8095 -0.0502
 5041TIP3   OH239317   1.581   3.568   9.207  1.0429 -0.2978  0.0668
 5041TIP3    H139318   1.486   3.559   9.203  1.2368 -2.8326 -1.6399
 5041TIP3    H239319   1.605   3.544   9.296  0.1568 -0.9654  0.1329
 5042TIP3   OH239320   5.543   5.144   8.585 -0.5851  0.0599 -0.0587
 5042TIP3    H139321   5.549   5.199   8.663 -1.1237 -0.3029  0.2408
 5042TIP3    H239322   5.579   5.060   8.612  0.5644  0.3531 -0.6151
 5043TIP3   OH239323   4.047   4.937   8.403 -0.2028  0.4544 -0.1762
 5043TIP3    H139324   4.119   4.881   8.375 -1.5115 -0.5694 -1.6465
 5043TIP3    H239325   4.083   5.026   8.401  1.1900 -0.0974 -0.2457
 5044TIP3   OH239326   3.263   5.359   9.711 -0.0052  0.1707 -0.8401
 5044TIP3    H139327   3.282   5.431   9.772 -0.3509 -0.2017 -0.2826
 5044TIP3    H239328   3.349   5.324   9.687  0.1209 -0.0192 -0.1425
 5045TIP3   OH239329   4.217   5.144   8.371  0.7205 -0.6374  0.3973
 5045TIP3    H139330   4.265   5.096   8.303 -0.0226  0.8682 -1.2575
 5045TIP3    H239331   4.284   5.191   8.419  1.2399 -1.5881  0.6293
 5046TIP3   OH239332   0.528   2.372   8.709  0.9618 -0.0136 -0.0224
 5046TIP3    H139333   0.528   2.278   8.726  0.9192 -0.0496 -0.2235
 5046TIP3    H239334   0.614   2.390   8.670  0.9611  0.0276 -0.0050
 5047TIP3   OH239335   2.709   5.810   8.531  0.2526  0.6902  0.3547
 5047TIP3    H139336   2.785   5.849   8.574 -1.8970  2.3964  2.9394
 5047TIP3    H239337   2.705   5.721   8.566  0.5568  0.9001  0.9359
 5048TIP3   OH239338   4.310   5.787   7.209  0.0978  0.0632  0.6564
 5048TIP3    H139339   4.283   5.758   7.122 -0.8474 -0.4364  1.0987
 5048TIP3    H239340   4.253   5.861   7.228  0.0733 -0.0368  0.9800
 5049TIP3   OH239341   1.540   1.674   9.262  0.9335 -0.1654 -0.3926
 5049TIP3    H139342   1.492   1.591   9.255  1.0428 -0.2311 -0.3731
 5049TIP3    H239343   1.580   1.686   9.176 -0.2572  0.5965 -0.8491
 5050TIP3   OH239344   7.535   5.068   7.856  0.1547 -0.0513 -0.0689
 5050TIP3    H139345   7.473   5.041   7.924  0.1476  1.2122  0.4455
 5050TIP3    H239346   7.606   5.004   7.862 -0.5382 -0.8288  0.1135
 5051TIP3   OH239347   2.946   1.237   9.372  0.0933  0.2245 -0.7924
 5051TIP3    H139348   2.998   1.309   9.408  1.0608 -1.3666  1.2546
 5051TIP3    H239349   2.867   1.236   9.426  0.3790 -0.5943 -0.3657
 5052TIP3   OH239350   2.998   1.320   7.623  0.6333 -0.0615 -0.6361
 5052TIP3    H139351   2.951   1.254   7.674  0.4234  1.5240  1.3547
 5052TIP3    H239352   2.949   1.327   7.542 -2.2138  0.9326  1.0199
 5053TIP3   OH239353   0.174   5.352   9.473 -0.2792 -0.0787  0.3959
 5053TIP3    H139354   0.265   5.323   9.462 -0.6002 -1.4022  1.0295
 5053TIP3    H239355   0.178   5.447   9.465  1.2935 -0.0508  1.1547
 5054TIP3   OH239356   1.149   2.524   7.610 -0.6973 -0.1456  0.2870
 5054TIP3    H139357   1.195   2.510   7.693 -0.8278  0.5054  0.4728
 5054TIP3    H239358   1.068   2.475   7.619 -0.2768 -0.8831  0.1576
 5055TIP3   OH239359   7.501   0.981   7.701 -0.0414 -0.3291  0.3057
 5055TIP3    H139360   7.429   1.044   7.706 -0.9309 -1.3816  2.3707
 5055TIP3    H239361   7.477   0.923   7.628 -1.7740 -1.1197  1.4213
 5056TIP3   OH239362   5.876   5.395   8.192 -0.4665  0.0306 -0.1447
 5056TIP3    H139363   5.854   5.310   8.231 -0.3165  0.1377  0.1730
 5056TIP3    H239364   5.803   5.452   8.216 -0.2082  0.1885  0.2787
 5057TIP3   OH239365   4.704   5.564   9.546 -0.1552  0.6211 -0.3119
 5057TIP3    H139366   4.612   5.587   9.535 -0.7613 -1.7932 -0.9903
 5057TIP3    H239367   4.733   5.537   9.459  0.7531 -0.0667  0.1860
 5058TIP3   OH239368   0.433   1.755   8.784 -0.1072 -0.0708 -0.3297
 5058TIP3    H139369   0.420   1.790   8.873  0.5829 -1.0599  0.1719
 5058TIP3    H239370   0.412   1.662   8.791 -1.5480  0.1252 -1.5663
 5059TIP3   OH239371   0.467   4.090   9.031  0.0033  0.4045 -0.0287
 5059TIP3    H139372   0.452   4.059   8.941 -3.3354 -1.0868  0.9067
 5059TIP3    H239373   0.512   4.018   9.074 -1.0848 -0.1425  0.2239
 5060TIP3   OH239374   6.291   2.962   6.966 -0.4369  0.0124  0.0188
 5060TIP3    H139375   6.219   2.911   7.002  0.0972 -0.8460 -0.0926
 5060TIP3    H239376   6.357   2.897   6.942 -0.4342  0.6083 -1.7443
 5061TIP3   OH239377   4.103   0.087   6.965  0.1431  0.4929 -0.6904
 5061TIP3    H139378   4.054   0.005   6.961 -0.0398  0.5499  0.2109
 5061TIP3    H239379   4.127   0.105   6.874  0.2532 -0.5939 -0.8905
 5062TIP3   OH239380   5.910   5.234   7.086 -0.3980  0.5568 -0.2045
 5062TIP3    H139381   5.831   5.284   7.063 -0.6635 -0.0612 -0.6578
 5062TIP3    H239382   5.897   5.148   7.046  0.4756  0.4210 -0.2258
 5063TIP3   OH239383   3.254   0.675   8.703 -0.3523  0.1925  0.7015
 5063TIP3    H139384   3.181   0.726   8.737 -0.8125  0.4314 -0.6046
 5063TIP3    H239385   3.310   0.659   8.780 -0.7830  1.6479  1.3517
 5064TIP3   OH239386   7.182   2.742   8.644 -0.0057 -0.0563  0.0450
 5064TIP3    H139387   7.219   2.723   8.730  0.7709  2.3701  0.3134
 5064TIP3    H239388   7.098   2.784   8.663 -0.6502 -1.0696 -0.4624
 5065TIP3   OH239389   5.609   6.585   7.350 -0.0886 -0.4223 -0.1604
 5065TIP3    H139390   5.540   6.624   7.295  0.4426  0.6279 -0.0936
 5065TIP3    H239391   5.565   6.564   7.432 -0.1887  0.8623  0.1270
 5066TIP3   OH239392   2.036   0.222   8.409  0.4755 -0.0545 -0.4565
 5066TIP3    H139393   1.962   0.259   8.361  0.5227  0.8172  0.1124
 5066TIP3    H239394   2.089   0.179   8.342  0.8682  1.6766 -1.3321
 5067TIP3   OH239395   5.682   6.929   9.103 -0.3547  0.8870 -0.1820
 5067TIP3    H139396   5.733   6.991   9.050  0.9965 -1.0788 -1.3129
 5067TIP3    H239397   5.643   6.869   9.039  2.8581 -2.7485  0.8572
 5068TIP3   OH239398   7.261   3.838   9.237 -0.5103 -0.2884 -0.0452
 5068TIP3    H139399   7.338   3.781   9.235 -0.2890 -0.0279  0.8110
 5068TIP3    H239400   7.265   3.886   9.154  1.2551  1.0039  0.7039
 5069TIP3   OH239401   5.796   6.593   7.927 -0.0197  0.1393  0.0195
 5069TIP3    H139402   5.712   6.633   7.901 -0.8224 -1.1118  0.6163
 5069TIP3    H239403   5.859   6.665   7.921 -1.3015  1.3524  0.4368
 5070TIP3   OH239404   3.002   0.146   8.982  0.1601  0.2532  0.2367
 5070TIP3    H139405   3.035   0.232   9.008 -0.4346  1.2428 -2.0886
 5070TIP3    H239406   2.953   0.116   9.058  0.6609  1.7931  1.2304
 5071TIP3   OH239407   6.343   3.669   7.938  0.2551  0.3214 -0.5182
 5071TIP3    H139408   6.274   3.602   7.929  1.5077 -1.2416  0.9778
 5071TIP3    H239409   6.326   3.710   8.023  0.6131  0.6171 -0.5893
 5072TIP3   OH239410   4.549   1.666   8.521  0.3784  0.6794 -0.2838
 5072TIP3    H139411   4.534   1.717   8.442  2.0057  2.4675  0.4859
 5072TIP3    H239412   4.632   1.699   8.556  0.6832 -1.3967  1.1492
 5073TIP3   OH239413   5.159   6.307   7.591  0.0380 -1.1914  0.1684
 5073TIP3    H139414   5.117   6.246   7.531 -0.9958  0.5677 -0.9918
 5073TIP3    H239415   5.088   6.366   7.617  1.5773  1.4848 -1.3268
 5074TIP3   OH239416   0.322   6.615   7.955 -0.1681  0.4726  0.0478
 5074TIP3    H139417   0.398   6.563   7.930 -1.8143 -2.4478  0.5463
 5074TIP3    H239418   0.322   6.613   8.051  0.0947  2.0578  0.1060
 5075TIP3   OH239419   0.186   2.953   7.837  0.3013  0.7479 -0.0684
 5075TIP3    H139420   0.177   3.047   7.853  1.4231  1.1530 -1.6271
 5075TIP3    H239421   0.279   2.935   7.850  0.3966  0.1998 -1.3502
 5076TIP3   OH239422   0.288   0.072   7.511 -0.1834 -0.3977  0.4946
 5076TIP3    H139423   0.263   0.072   7.603  0.7454 -1.3526  0.7662
 5076TIP3    H239424   0.384   0.072   7.512 -0.1577 -0.8021 -0.4702
 5077TIP3   OH239425   5.049   2.528   8.600 -0.3054 -0.6673 -0.0200
 5077TIP3    H139426   5.002   2.448   8.577  0.1360 -0.8767 -0.2188
 5077TIP3    H239427   5.097   2.506   8.679  1.0496 -1.1156 -0.9241
 5078TIP3   OH239428   4.068   1.734   6.543  0.0119 -0.4847 -0.5292
 5078TIP3    H139429   4.105   1.654   6.504 -0.3722 -1.6201  1.3023
 5078TIP3    H239430   4.025   1.779   6.470  1.7427 -1.0463 -1.9490
 5079TIP3   OH239431   4.882   1.315   9.079 -0.2968 -0.2888 -0.0283
 5079TIP3    H139432   4.974   1.331   9.100  0.2253 -2.5208 -0.2587
 5079TIP3    H239433   4.833   1.376   9.134  1.2513 -0.7344  1.9629
 5080TIP3   OH239434   6.247   1.870   7.005  0.0074 -0.0048  0.0385
 5080TIP3    H139435   6.154   1.888   7.015  0.5249  3.4455 -0.0314
 5080TIP3    H239436   6.289   1.956   7.006  3.3353 -1.4356  1.1577
 5081TIP3   OH239437   6.369   0.487   8.159 -0.1673 -0.1789  0.0670
 5081TIP3    H139438   6.291   0.523   8.202  0.1483  0.8250 -0.1919
 5081TIP3    H239439   6.415   0.563   8.125  0.8349 -0.7808  0.0474
 5082TIP3   OH239440   2.617   3.251   6.921 -0.5783  0.2817 -0.1635
 5082TIP3    H139441   2.706   3.220   6.905 -1.4945 -2.3456 -0.6441
 5082TIP3    H239442   2.625   3.309   6.997  1.5084 -0.0618 -0.0690
 5083TIP3   OH239443   7.338   5.351   9.477  0.6570  0.5552  0.3126
 5083TIP3    H139444   7.407   5.356   9.410  0.7993 -0.7451  0.3390
 5083TIP3    H239445   7.364   5.278   9.533 -1.0042 -0.3346  0.0015
 5084TIP3   OH239446   1.922   1.434   8.655 -0.6493  0.1612  0.5039
 5084TIP3    H139447   1.844   1.440   8.709  0.2197 -0.5275  1.9019
 5084TIP3    H239448   1.945   1.525   8.635 -0.8243  0.4415  1.5557
 5085TIP3   OH239449   4.203   4.741   7.604  0.2702  0.1779  0.2542
 5085TIP3    H139450   4.236   4.651   7.605 -1.0754 -0.3948 -1.1203
 5085TIP3    H239451   4.150   4.749   7.683  0.1130 -0.3525  0.2019
 5086TIP3   OH239452   6.446   1.997   8.585  0.1676 -0.2264  0.1797
 5086TIP3    H139453   6.480   2.050   8.513  3.4479 -2.1505  0.0966
 5086TIP3    H239454   6.424   1.913   8.545  2.3850 -1.4504  1.3166
 5087TIP3   OH239455   3.387   1.631   7.207 -0.3016 -0.0079  0.0605
 5087TIP3    H139456   3.354   1.721   7.204 -0.7680 -0.1868 -1.3283
 5087TIP3    H239457   3.313   1.579   7.239 -0.2966  0.0129  0.1041
 5088TIP3   OH239458   3.256   4.179   7.048  0.1686  0.2403  0.0959
 5088TIP3    H139459   3.339   4.217   7.078  0.2215  0.1513  0.0616
 5088TIP3    H239460   3.279   4.132   6.968  0.1673 -0.1654  0.3326
 5089TIP3   OH239461   1.878   6.859   6.922  0.2616 -0.0678  0.2741
 5089TIP3    H139462   1.815   6.929   6.902  0.8080  0.6202  0.9040
 5089TIP3    H239463   1.912   6.881   7.009  1.7016 -0.1776 -0.2356
 5090TIP3   OH239464   7.312   1.982   8.235  0.2111  0.2324  0.0842
 5090TIP3    H139465   7.308   2.061   8.181  0.1120 -0.5326 -1.0708
 5090TIP3    H239466   7.339   1.913   8.174 -0.4568 -0.7708  0.8881
 5091TIP3   OH239467   6.510   3.306   8.354  0.2434  0.8712  0.6473
 5091TIP3    H139468   6.481   3.231   8.407 -0.9674  1.0888  0.3178
 5091TIP3    H239469   6.596   3.280   8.322 -0.4806 -0.7319 -0.1018
 5092TIP3   OH239470   0.141   7.407   8.749  0.6745 -0.4731  0.5602
 5092TIP3    H139471   0.178   7.475   8.805 -0.9574  3.2840 -2.3934
 5092TIP3    H239472   0.054   7.390   8.786 -1.0395  3.1320 -1.2700
 5093TIP3   OH239473   5.581   2.675   7.734 -0.0617  0.3754 -0.0575
 5093TIP3    H139474   5.504   2.723   7.764 -1.1162 -1.6914  0.6862
 5093TIP3    H239475   5.615   2.728   7.661  0.0454  3.2878  1.9193
 5094TIP3   OH239476   2.411   2.111   8.131  0.3186 -0.1987  0.0712
 5094TIP3    H139477   2.380   2.029   8.092  1.2088  0.5469 -2.4238
 5094TIP3    H239478   2.336   2.170   8.123  0.3195 -0.2110 -0.0369
 5095TIP3   OH239479   4.763   0.653   7.623  0.1156  0.2970 -0.2300
 5095TIP3    H139480   4.751   0.560   7.641 -0.0874  0.3610 -0.0302
 5095TIP3    H239481   4.858   0.666   7.627  0.1998 -0.0459 -1.0032
 5096TIP3   OH239482   4.534   4.160   8.236  0.2089  0.4761  0.5934
 5096TIP3    H139483   4.443   4.172   8.266 -0.1212 -0.9937  0.2480
 5096TIP3    H239484   4.572   4.100   8.300  0.8289  0.7679  0.5012
 5097TIP3   OH239485   0.868   1.059   8.462 -0.0698 -0.1781 -0.0537
 5097TIP3    H139486   0.910   1.030   8.543 -0.3518 -1.4222 -0.3313
 5097TIP3    H239487   0.933   1.114   8.419 -1.0021  3.2729  2.4698
 5098TIP3   OH239488   6.920   3.953   8.163  0.0736  0.9167  0.4796
 5098TIP3    H139489   6.953   4.039   8.191  0.4444  0.8837  0.1477
 5098TIP3    H239490   6.996   3.908   8.128 -0.4704  1.1788 -1.1275
 5099TIP3   OH239491   7.418   6.049   9.287 -0.3076 -0.3410 -0.2345
 5099TIP3    H139492   7.348   6.022   9.228 -0.3838  0.6417 -0.6066
 5099TIP3    H239493   7.401   6.141   9.306  0.0621 -0.4735  0.8448
 5100TIP3   OH239494   4.932   6.993   7.420 -0.4620  0.0250 -0.0780
 5100TIP3    H139495   4.917   7.076   7.375 -0.0002 -0.5194 -1.2797
 5100TIP3    H239496   5.020   7.001   7.456 -0.1061 -0.2372 -0.8773
 5101TIP3   OH239497   3.242   2.801   6.954  0.2921  0.7957 -0.1392
 5101TIP3    H139498   3.279   2.860   7.020  0.2622  0.2909  0.3381
 5101TIP3    H239499   3.187   2.857   6.900  1.7822  1.5817 -0.9026
 5102TIP3   OH239500   2.997   1.318   6.612  0.4877 -0.5592 -0.0823
 5102TIP3    H139501   3.063   1.249   6.623  0.3636 -0.4987  1.2306
 5102TIP3    H239502   2.917   1.272   6.590  0.2912 -0.9014  1.2664
 5103TIP3   OH239503   4.059   7.520   8.743  0.3359  0.2413  0.2481
 5103TIP3    H139504   4.148   7.487   8.748  0.3024  0.2516  1.0334
 5103TIP3    H239505   4.065   7.611   8.771 -0.2385 -0.3936  2.7283
 5104TIP3   OH239506   6.643   5.446   8.695 -0.3114  0.4641 -0.2093
 5104TIP3    H139507   6.706   5.430   8.766  0.1010  0.8539 -0.4793
 5104TIP3    H239508   6.559   5.417   8.730 -0.2839  1.5225  0.7923
 5105TIP3   OH239509   0.464   5.457   8.957 -0.2372  0.2170  0.2423
 5105TIP3    H139510   0.409   5.403   9.014 -0.8343 -0.2918 -0.7659
 5105TIP3    H239511   0.479   5.537   9.006 -1.9653  0.4065  0.5412
 5106TIP3   OH239512   1.470   5.193   8.516  0.1033  0.0472 -0.2965
 5106TIP3    H139513   1.517   5.175   8.434 -1.1984 -1.1102 -0.8190
 5106TIP3    H239514   1.395   5.133   8.515  0.3531 -0.3958  2.0169
 5107TIP3   OH239515   5.360   1.757   8.454  0.4088 -0.2419 -0.0771
 5107TIP3    H139516   5.354   1.846   8.420  0.5779  0.1276  0.8463
 5107TIP3    H239517   5.275   1.740   8.493  0.2424 -0.6350 -0.6070
 5108TIP3   OH239518   6.634   5.020   9.416  0.0452 -0.6779  0.3162
 5108TIP3    H139519   6.598   5.023   9.328  1.6813 -0.8375 -0.4080
 5108TIP3    H239520   6.696   5.093   9.420 -1.8410  0.9380  2.2511
 5109TIP3   OH239521   1.776   2.665   7.453  0.1394  0.3632  0.5418
 5109TIP3    H139522   1.761   2.718   7.375 -1.0696 -2.5924 -1.4364
 5109TIP3    H239523   1.865   2.632   7.444  0.3574  0.8391  0.9541
 5110TIP3   OH239524   0.861   4.715   9.361 -0.0083  0.5192  0.0236
 5110TIP3    H139525   0.867   4.620   9.375  0.4763  0.1357 -2.3126
 5110TIP3    H239526   0.767   4.732   9.356 -0.1246 -0.2884 -1.6888
 5111TIP3   OH239527   2.615   6.463   8.549  0.0940 -0.3261 -0.2540
 5111TIP3    H139528   2.707   6.466   8.574  0.3352 -0.6425 -1.0830
 5111TIP3    H239529   2.577   6.396   8.606  0.2892  0.0679  0.3494
 5112TIP3   OH239530   2.661   7.494   9.200 -0.6715 -0.1182  0.4439
 5112TIP3    H139531   2.668   7.484   9.295  2.9367 -0.7481  0.2582
 5112TIP3    H239532   2.684   7.585   9.184  1.7248 -0.7165  0.0992
 5113TIP3   OH239533   4.777   3.921   9.341  0.4403  0.2614  0.5029
 5113TIP3    H139534   4.722   3.963   9.408 -1.4984  0.4646 -1.1364
 5113TIP3    H239535   4.795   3.834   9.377 -2.9930 -0.7386  0.1615
 5114TIP3   OH239536   1.126   7.164   6.691  0.4819  0.0400 -0.4946
 5114TIP3    H139537   1.035   7.193   6.686 -0.3960 -2.1769  0.9622
 5114TIP3    H239538   1.134   7.125   6.778  2.7787 -0.0419 -0.6769
 5115TIP3   OH239539   7.381   3.384   7.143 -0.5934 -0.0163  0.1000
 5115TIP3    H139540   7.476   3.392   7.133 -0.4557  0.1362  1.3778
 5115TIP3    H239541   7.359   3.306   7.092  0.2076 -0.0570 -0.2126
 5116TIP3   OH239542   6.622   4.635   8.400 -0.4137 -0.3739 -0.0397
 5116TIP3    H139543   6.551   4.614   8.461 -1.8290 -0.5884 -1.6634
 5116TIP3    H239544   6.644   4.726   8.418 -0.1136 -0.7020  1.4011
 5117TIP3   OH239545   3.375   0.077   9.163 -0.7051  0.0565  0.0175
 5117TIP3    H139546   3.447   0.093   9.102 -0.3525 -1.2702  0.0672
 5117TIP3    H239547   3.310   0.144   9.141  0.1426  0.6918 -0.6400
 5118TIP3   OH239548   6.470   5.835   7.994  0.4854 -0.6116 -0.3297
 5118TIP3    H139549   6.483   5.905   7.930  0.2141  0.2156  0.4904
 5118TIP3    H239550   6.477   5.879   8.079 -0.9544 -1.3294  0.2073
 5119TIP3   OH239551   2.592   5.834   7.129 -0.1480 -0.1434 -0.0207
 5119TIP3    H139552   2.544   5.868   7.204 -0.9716  0.5143 -0.8216
 5119TIP3    H239553   2.530   5.778   7.083  0.1753 -0.1246 -0.4917
 5120TIP3   OH239554   6.630   4.032   9.140 -0.0216 -0.4609 -0.2008
 5120TIP3    H139555   6.643   3.950   9.189  0.3928  0.2508  0.9339
 5120TIP3    H239556   6.576   4.086   9.198  1.5288  0.8907  0.0665
 5121TIP3   OH239557   5.050   1.128   7.524 -0.1657  0.4076  0.0168
 5121TIP3    H139558   5.131   1.119   7.575 -0.2690  1.6419  0.4360
 5121TIP3    H239559   5.072   1.092   7.438 -0.2257 -2.4791  1.0920
 5122TIP3   OH239560   6.683   3.194   7.113  0.7347 -0.0446 -0.2512
 5122TIP3    H139561   6.763   3.225   7.155  0.5914  1.3007 -0.9082
 5122TIP3    H239562   6.653   3.123   7.169  2.7880 -1.1217 -0.4171
 5123TIP3   OH239563   3.319   7.083   9.364  0.2764  0.2546 -0.0401
 5123TIP3    H139564   3.348   7.128   9.444 -0.1048 -0.1374  0.3247
 5123TIP3    H239565   3.241   7.034   9.391  0.0408  0.2568 -0.6965
 5124TIP3   OH239566   0.908   1.774   9.625 -0.1932 -0.1049 -0.4028
 5124TIP3    H139567   0.815   1.752   9.623 -0.0786 -0.5193 -1.1753
 5124TIP3    H239568   0.953   1.692   9.608  0.2707  0.4231 -1.8280
 5125TIP3   OH239569   2.723   4.757   7.370  0.1444  0.2122  0.3346
 5125TIP3    H139570   2.634   4.793   7.371  0.2625  0.6890 -1.6437
 5125TIP3    H239571   2.725   4.701   7.292  1.2643 -0.6897  0.9798
 5126TIP3   OH239572   7.473   4.592   8.677 -0.4384  0.3607  0.6846
 5126TIP3    H139573   7.549   4.626   8.631 -0.1672 -0.1817  0.7172
 5126TIP3    H239574   7.509   4.540   8.748 -0.8160 -0.4423  0.3096
 5127TIP3   OH239575   1.146   2.638   8.609 -0.2171  0.2014  0.1300
 5127TIP3    H139576   1.098   2.607   8.686 -0.0607 -1.0042 -0.2325
 5127TIP3    H239577   1.083   2.692   8.561 -0.3668  0.8137  1.0016
 5128TIP3   OH239578   7.532   0.158   7.266 -0.0339 -0.6615  0.5468
 5128TIP3    H139579   7.513   0.081   7.212 -2.8279  0.6236 -0.5107
 5128TIP3    H239580   7.477   0.148   7.344 -0.5702  0.2861  0.3174
 5129TIP3   OH239581   0.365   3.082   7.492 -0.3327 -0.3198 -0.0020
 5129TIP3    H139582   0.278   3.106   7.526 -0.1545  0.2491  0.0580
 5129TIP3    H239583   0.346   3.023   7.420 -0.8400  0.7875 -0.8170
 5130TIP3   OH239584   7.394   7.474   8.780  0.5367  0.0137  0.4737
 5130TIP3    H139585   7.435   7.476   8.694 -1.8561  3.9881 -0.8156
 5130TIP3    H239586   7.301   7.468   8.762  0.0726 -2.4395  3.0423
 5131TIP3   OH239587   3.766   0.536   8.788 -0.0989  0.8763 -0.8120
 5131TIP3    H139588   3.850   0.579   8.803 -0.0900  0.6738 -0.2751
 5131TIP3    H239589   3.743   0.496   8.872  1.0512 -2.2463 -1.8120
 5132TIP3   OH239590   6.865   2.978   9.375 -0.2297  0.2184  0.4589
 5132TIP3    H139591   6.810   2.900   9.370 -1.1218  0.7467  1.6434
 5132TIP3    H239592   6.954   2.946   9.357 -0.6079 -1.0201  0.7147
 5133TIP3   OH239593   1.678   5.111   7.897 -0.4168  0.6197  0.5652
 5133TIP3    H139594   1.630   5.132   7.817 -0.0851  0.5935  0.3605
 5133TIP3    H239595   1.619   5.053   7.946  0.1577 -0.9506 -0.5343
 5134TIP3   OH239596   1.119   4.721   8.718  0.1528  0.7103  0.0944
 5134TIP3    H139597   1.089   4.812   8.726  1.1477  0.9746  1.0128
 5134TIP3    H239598   1.090   4.694   8.631 -2.0973  1.1782  0.6143
 5135TIP3   OH239599   3.331   1.089   7.606 -0.4961 -0.5420 -0.1876
 5135TIP3    H139600   3.260   1.094   7.542 -0.2970  1.4408 -0.3142
 5135TIP3    H239601   3.298   1.138   7.682  0.2427 -0.7003  0.2464
 5136TIP3   OH239602   3.665   7.185   6.865 -0.4638  0.5364 -0.6457
 5136TIP3    H139603   3.606   7.148   6.931 -0.8618 -1.7743 -2.1634
 5136TIP3    H239604   3.723   7.244   6.914 -1.1881 -0.5386  1.6339
 5137TIP3   OH239605   0.236   4.743   8.653 -0.1272 -0.0456 -0.0996
 5137TIP3    H139606   0.171   4.755   8.723 -1.0135 -0.5482 -0.8053
 5137TIP3    H239607   0.184   4.713   8.578  0.8353  0.2798 -0.9117
 5138TIP3   OH239608   6.342   2.960   9.461 -0.0419 -0.3615 -0.0330
 5138TIP3    H139609   6.264   2.958   9.405 -0.8779  0.3366  1.0598
 5138TIP3    H239610   6.343   2.875   9.505  1.4941 -1.5622 -2.1676
 5139TIP3   OH239611   4.823   4.996   8.716  0.4858 -0.1261  0.1925
 5139TIP3    H139612   4.838   5.087   8.742 -0.4850  0.3400 -0.8127
 5139TIP3    H239613   4.729   4.990   8.699  0.5579 -1.2795  0.0961
 5140TIP3   OH239614   0.600   3.249   8.457  0.4775  0.2200 -0.4910
 5140TIP3    H139615   0.673   3.204   8.498  0.0074 -0.5877 -0.5122
 5140TIP3    H239616   0.524   3.225   8.510 -0.1273 -0.7756 -1.7626
 5141TIP3   OH239617   4.441   2.335   8.529  0.5997 -0.1908  0.1756
 5141TIP3    H139618   4.514   2.295   8.576 -0.6044 -1.0251  1.4446
 5141TIP3    H239619   4.481   2.376   8.452  2.3725 -0.6583  0.7899
 5142TIP3   OH239620   5.033   2.906   7.744 -0.0615  0.0660 -0.3148
 5142TIP3    H139621   5.032   2.848   7.669 -0.2437  0.8418 -0.9277
 5142TIP3    H239622   5.085   2.981   7.715  1.4224 -0.4175  0.9480
 5143TIP3   OH239623   0.591   0.426   8.184  0.2720 -0.5782 -0.2905
 5143TIP3    H139624   0.563   0.342   8.222 -1.6423  1.1704  2.5085
 5143TIP3    H239625   0.662   0.455   8.240  0.6760 -0.1124 -1.0249
 5144TIP3   OH239626   2.386   4.986   9.423 -0.3328 -0.3025 -0.5920
 5144TIP3    H139627   2.457   5.050   9.419  0.5532 -1.2555 -0.5433
 5144TIP3    H239628   2.427   4.908   9.459 -1.4233 -0.8682 -0.5508
 5145TIP3   OH239629   2.554   7.267   7.493 -0.9386 -0.1461 -0.1670
 5145TIP3    H139630   2.601   7.345   7.461 -1.0807  0.9355  2.0719
 5145TIP3    H239631   2.471   7.301   7.527 -1.1470 -1.3348  0.5650
 5146TIP3   OH239632   0.482   0.867   9.133 -0.5244 -1.0347 -0.1685
 5146TIP3    H139633   0.462   0.949   9.177  0.6715 -0.9910  0.3126
 5146TIP3    H239634   0.537   0.819   9.195  2.4660 -0.3722 -2.0808
 5147TIP3   OH239635   6.181   1.688   7.978 -0.0074 -0.1296  0.1188
 5147TIP3    H139636   6.181   1.619   7.912  2.1001  0.5173 -0.6278
 5147TIP3    H239637   6.241   1.657   8.045 -0.4088  0.2211  0.6507
 5148TIP3   OH239638   0.293   4.841   9.005  0.1652 -0.4814 -0.4857
 5148TIP3    H139639   0.301   4.752   9.041  0.8500 -0.9933 -1.8179
 5148TIP3    H239640   0.378   4.857   8.963  1.3469  2.1504  2.5113
 5149TIP3   OH239641   6.103   4.754   9.051  0.3815 -0.2407  0.2438
 5149TIP3    H139642   6.161   4.794   9.115  0.4352 -1.2296  0.8444
 5149TIP3    H239643   6.055   4.688   9.101 -1.3100  0.5869 -0.2264
 5150TIP3   OH239644   4.667   4.602   8.072 -0.0983  0.4416  0.1744
 5150TIP3    H139645   4.660   4.533   8.137 -1.3804  0.5799  0.2193
 5150TIP3    H239646   4.759   4.604   8.048  0.3518  0.2158  1.7839
 5151TIP3   OH239647   1.171   4.511   7.729  0.4466  0.0460 -0.3763
 5151TIP3    H139648   1.121   4.592   7.722 -0.3460  0.0340  3.3780
 5151TIP3    H239649   1.110   4.442   7.705  0.2607  0.3590 -0.8100
 5152TIP3   OH239650   4.903   6.260   7.836 -0.1702 -0.3131  0.4095
 5152TIP3    H139651   4.950   6.181   7.810 -1.5161 -1.1509  0.4363
 5152TIP3    H239652   4.858   6.236   7.917 -1.1024  0.2778  0.0838
 5153TIP3   OH239653   0.296   6.025   9.113 -0.2431 -0.5891  0.3430
 5153TIP3    H139654   0.305   6.074   9.032  1.0575 -2.8032 -0.9432
 5153TIP3    H239655   0.343   6.077   9.178 -1.0986  1.0975 -0.3312
 5154TIP3   OH239656   6.627   2.655   7.642  0.2382  0.1037  0.3538
 5154TIP3    H139657   6.623   2.746   7.670 -1.2329 -0.2497  1.4427
 5154TIP3    H239658   6.641   2.659   7.547  1.9409  1.4024  0.6199
 5155TIP3   OH239659   0.311   7.139   8.090 -0.0163  0.4854  0.0544
 5155TIP3    H139660   0.244   7.206   8.103  0.2278  0.8783 -0.6717
 5155TIP3    H239661   0.307   7.085   8.170 -1.7378  0.0077 -0.3161
 5156TIP3   OH239662   1.269   5.748   7.055  0.2220  0.2365  0.5557
 5156TIP3    H139663   1.314   5.746   6.971  0.3298 -2.3369  0.5924
 5156TIP3    H239664   1.262   5.656   7.081 -3.1973  0.6265  1.5588
 5157TIP3   OH239665   1.303   3.631   6.984  0.5138 -0.0582  0.4195
 5157TIP3    H139666   1.262   3.547   6.966  0.0248  0.3436 -0.4285
 5157TIP3    H239667   1.230   3.689   7.007  0.5035  0.7553 -1.4521
 5158TIP3   OH239668   2.562   2.475   7.553  0.2922  0.1442 -0.3861
 5158TIP3    H139669   2.587   2.385   7.574 -0.5435 -0.5128 -2.0349
 5158TIP3    H239670   2.470   2.469   7.527 -0.7171  1.9606  2.2972
 5159TIP3   OH239671   2.812   7.300   9.099  0.3999  0.0170 -0.1432
 5159TIP3    H139672   2.874   7.305   9.172  1.5633  1.1698 -1.1549
 5159TIP3    H239673   2.750   7.371   9.115 -0.9892 -1.4128  1.1038
 5160TIP3   OH239674   5.343   4.363   8.389 -0.3498  0.2667 -0.2947
 5160TIP3    H139675   5.433   4.379   8.418 -0.4319  2.4983 -1.0738
 5160TIP3    H239676   5.289   4.387   8.463 -0.3561 -1.5186  0.3405
 5161TIP3   OH239677   0.495   2.094   8.762  0.2418 -0.4624  0.5758
 5161TIP3    H139678   0.434   2.076   8.691  0.1305  0.5399  0.4023
 5161TIP3    H239679   0.455   2.053   8.839 -0.7025  0.2346  0.4767
 5162TIP3   OH239680   3.198   3.962   8.594  0.1461  0.0545  0.4830
 5162TIP3    H139681   3.229   4.034   8.648 -1.1620  1.2892 -0.3465
 5162TIP3    H239682   3.157   4.004   8.519  3.3373 -1.5419 -2.4705
 5163TIP3   OH239683   4.950   1.396   7.882 -0.2666 -0.0809 -0.2502
 5163TIP3    H139684   4.940   1.489   7.861  1.1640  0.1522  0.0582
 5163TIP3    H239685   4.888   1.352   7.823 -0.1796  0.9762 -1.1727
 5164TIP3   OH239686   7.419   2.095   9.171  0.3906 -0.6294  0.2856
 5164TIP3    H139687   7.458   2.176   9.205 -0.0931  0.1011 -0.8438
 5164TIP3    H239688   7.446   2.028   9.234  1.4317  0.2694  0.8499
 5165TIP3   OH239689   5.304   6.516   8.691  0.0667 -0.2036  0.2890
 5165TIP3    H139690   5.331   6.557   8.773  3.9216 -0.0916 -0.8493
 5165TIP3    H239691   5.307   6.422   8.709  0.6146 -0.1724  0.3879
 5166TIP3   OH239692   4.022   1.622   8.686  0.5820  0.1588 -0.0207
 5166TIP3    H139693   4.070   1.629   8.769  0.8373 -0.5087 -0.1054
 5166TIP3    H239694   4.089   1.631   8.619  0.3504  0.8623 -0.1582
 5167TIP3   OH239695   1.075   3.674   8.187 -0.0450 -0.1321 -0.1434
 5167TIP3    H139696   1.087   3.640   8.099 -2.6471 -1.7925  0.0384
 5167TIP3    H239697   1.133   3.621   8.241 -0.3459 -0.8864 -0.5469
 5168TIP3   OH239698   3.023   5.710   9.315 -0.2478  0.1857 -0.3324
 5168TIP3    H139699   3.016   5.730   9.408  1.2289 -0.0542 -0.1398
 5168TIP3    H239700   3.114   5.730   9.294 -0.5474  0.1837 -1.7223
 5169TIP3   OH239701   5.914   4.994   7.592 -0.3830  0.1367  0.4615
 5169TIP3    H139702   5.840   5.039   7.552  0.3126  1.9730  1.1062
 5169TIP3    H239703   5.879   4.957   7.673 -0.6194  0.9873  0.7593
 5170TIP3   OH239704   1.544   3.289   7.038 -0.1214  0.2023 -0.1446
 5170TIP3    H139705   1.605   3.336   7.096 -0.2334 -0.5264  0.5795
 5170TIP3    H239706   1.468   3.272   7.093  0.0985 -1.2268 -0.2602
 5171TIP3   OH239707   0.392   2.398   7.187 -0.4754 -0.4858 -0.4923
 5171TIP3    H139708   0.470   2.369   7.235 -0.6007 -0.3969 -0.2346
 5171TIP3    H239709   0.424   2.467   7.128 -0.1435 -1.2391 -1.2231
 5172TIP3   OH239710   6.466   5.594   7.805  0.0002  0.0940 -0.1816
 5172TIP3    H139711   6.397   5.563   7.864  0.8742 -1.1306  0.2283
 5172TIP3    H239712   6.470   5.688   7.821 -3.4949  0.7896 -2.2706
 5173TIP3   OH239713   2.997   0.752   7.891  0.7560  0.0523 -0.0376
 5173TIP3    H139714   3.035   0.731   7.806  0.4175 -0.3095 -0.1009
 5173TIP3    H239715   2.902   0.742   7.879  0.7496 -0.8534  0.6085
 5174TIP3   OH239716   2.537   1.145   7.369 -0.0479  0.5348  0.2669
 5174TIP3    H139717   2.463   1.192   7.330 -1.2542 -0.9953  0.5948
 5174TIP3    H239718   2.585   1.109   7.295 -1.4563 -1.0728  0.0635
 5175TIP3   OH239719   1.243   0.436   8.354  0.5273 -0.1938 -0.4837
 5175TIP3    H139720   1.241   0.352   8.400 -0.0847 -1.1297 -2.1599
 5175TIP3    H239721   1.177   0.488   8.398  0.1086 -0.9890 -0.1463
 5176TIP3   OH239722   5.053   1.016   8.041 -0.1742  0.1876  0.3249
 5176TIP3    H139723   5.044   0.930   8.000 -0.7180 -0.0752  0.9608
 5176TIP3    H239724   5.109   1.000   8.117  1.3604  0.7958 -0.6514
 5177TIP3   OH239725   4.836   7.499   8.081 -0.0811  0.2100  0.5362
 5177TIP3    H139726   4.827   7.414   8.038 -0.7888  0.7261 -0.3786
 5177TIP3    H239727   4.930   7.516   8.082 -0.0355  0.1407 -0.7727
 5178TIP3   OH239728   4.928   2.575   7.792 -0.4142  0.2842  0.5240
 5178TIP3    H139729   4.935   2.505   7.727  0.9024  0.2939  0.6198
 5178TIP3    H239730   4.888   2.534   7.869  1.0642 -0.6063  0.8624
 5179TIP3   OH239731   2.533   6.912   8.312  0.1052 -0.6111 -0.4855
 5179TIP3    H139732   2.572   6.988   8.268 -1.4522 -1.0871 -2.8933
 5179TIP3    H239733   2.443   6.938   8.330  0.1523 -1.1643  0.6186
 5180TIP3   OH239734   1.211   1.477   6.911 -0.0672  0.3303 -0.1867
 5180TIP3    H139735   1.169   1.471   6.825 -0.0345  0.0821 -0.1882
 5180TIP3    H239736   1.148   1.435   6.970  0.9685 -1.7499 -0.4739
 5181TIP3   OH239737   1.674   2.144   7.497  0.7201 -0.0783 -0.1298
 5181TIP3    H139738   1.619   2.140   7.418  0.2379  1.5600  0.0826
 5181TIP3    H239739   1.614   2.175   7.566  1.4432 -0.2463  0.5867
 5182TIP3   OH239740   0.966   0.640   8.989  0.0863  0.1417 -0.3652
 5182TIP3    H139741   0.957   0.583   9.065  2.3546 -1.0282 -0.8943
 5182TIP3    H239742   0.916   0.718   9.012  0.4044 -0.3084  2.1701
 5183TIP3   OH239743   1.860   0.676   7.875  0.9007 -0.1274  0.1586
 5183TIP3    H139744   1.945   0.679   7.919  0.5138  1.7091  0.8580
 5183TIP3    H239745   1.812   0.752   7.909  0.0702  0.5996 -2.4225
 5184TIP3   OH239746   1.356   1.866   8.022  0.1431 -0.2569 -0.1161
 5184TIP3    H139747   1.303   1.899   7.950 -0.9067  0.9011  1.1183
 5184TIP3    H239748   1.295   1.816   8.076  0.9092 -1.0988 -0.0055
 5185TIP3   OH239749   2.475   6.984   8.945 -0.6020  0.4971  0.0823
 5185TIP3    H139750   2.420   7.004   8.869  1.3185  0.0276 -1.5166
 5185TIP3    H239751   2.546   7.047   8.940 -0.5037  0.5511  1.6198
 5186TIP3   OH239752   7.580   2.351   8.403 -0.0611  0.5197  0.4318
 5186TIP3    H139753   7.612   2.441   8.388  2.3597 -0.4861 -1.1580
 5186TIP3    H239754   7.486   2.356   8.387  0.3504  2.3469 -2.0287
 5187TIP3   OH239755   3.412   4.030   8.024  0.3504 -0.2271  0.3888
 5187TIP3    H139756   3.497   3.987   8.034 -0.1748 -1.4153 -0.1172
 5187TIP3    H239757   3.349   3.959   8.024 -0.4688  0.4460 -1.4113
 5188TIP3   OH239758   2.780   1.978   9.156  0.4415  0.6571 -0.1908
 5188TIP3    H139759   2.836   2.041   9.202  0.2338  0.3004  0.5589
 5188TIP3    H239760   2.694   2.020   9.154  0.7295  1.2512 -1.4339
 5189TIP3   OH239761   2.805   3.804   8.168  0.0031 -0.2695  0.2827
 5189TIP3    H139762   2.711   3.809   8.153 -0.4185 -2.1960  1.8935
 5189TIP3    H239763   2.821   3.867   8.238 -0.1779 -0.4008  0.4407
 5190TIP3   OH239764   5.939   4.677   8.651 -0.2298 -0.3244 -0.7053
 5190TIP3    H139765   5.948   4.758   8.702 -1.8312 -1.0476  0.8211
 5190TIP3    H239766   6.018   4.627   8.671 -0.2010 -0.0146 -0.0194
 5191TIP3   OH239767   2.740   6.824   8.477 -0.5108 -0.1256 -0.6427
 5191TIP3    H139768   2.659   6.812   8.526 -0.6061  0.3716 -0.6664
 5191TIP3    H239769   2.718   6.887   8.409  0.1082  0.7236 -0.0881
 5192TIP3   OH239770   0.874   4.008   8.541  0.0760 -0.1721  0.5153
 5192TIP3    H139771   0.945   4.007   8.605  0.6562 -1.9031 -0.0916
 5192TIP3    H239772   0.817   3.936   8.568  0.6520 -1.3433 -1.1881
 5193TIP3   OH239773   7.090   4.693   8.947  0.3676 -0.6036  0.1245
 5193TIP3    H139774   7.078   4.788   8.947 -2.3523 -0.8544 -1.3451
 5193TIP3    H239775   7.179   4.680   8.917  0.5979  1.4763 -0.2275
 5194TIP3   OH239776   1.381   1.592   7.413  0.4796  0.2023 -0.7342
 5194TIP3    H139777   1.304   1.618   7.363 -0.6110  2.8547  2.0507
 5194TIP3    H239778   1.372   1.497   7.423 -0.3495 -0.1140 -3.6008
 5195TIP3   OH239779   5.669   5.372   7.166  0.1582 -0.4169 -0.3362
 5195TIP3    H139780   5.665   5.467   7.153  1.8593 -0.3620 -0.5654
 5195TIP3    H239781   5.577   5.345   7.165 -0.3081  1.0600 -1.4497
 5196TIP3   OH239782   3.378   5.318   8.078 -0.6797  0.3677  0.2226
 5196TIP3    H139783   3.429   5.248   8.037 -1.2929  0.0906 -0.0678
 5196TIP3    H239784   3.424   5.399   8.054  0.1141  0.0604  0.6793
 5197TIP3   OH239785   0.047   7.644   6.921  0.2219 -0.0367 -0.4463
 5197TIP3    H139786   0.088   7.660   6.836  0.5141 -0.7536 -0.4501
 5197TIP3    H239787   0.099   7.574   6.960  0.6777  0.9327  0.7453
 5198TIP3   OH239788   2.819   0.414   7.364 -0.3646 -0.2494  0.0041
 5198TIP3    H139789   2.835   0.440   7.455 -0.7509  0.1365 -0.0356
 5198TIP3    H239790   2.865   0.331   7.354  0.0456 -0.0753  0.4271
 5199TIP3   OH239791   5.579   2.840   8.357  0.3646  0.5288  0.2859
 5199TIP3    H139792   5.605   2.932   8.362  1.0170  0.3203  0.9633
 5199TIP3    H239793   5.608   2.802   8.440 -2.8446  0.4387  1.4804
 5200TIP3   OH239794   0.645   2.474   7.835 -0.4899  0.4252  0.1367
 5200TIP3    H139795   0.582   2.545   7.820 -0.8589  0.3062  1.0991
 5200TIP3    H239796   0.620   2.406   7.772 -1.0007  0.5863  0.1656
 5201TIP3   OH239797   1.549   1.059   7.738  0.0109 -0.3810  0.3158
 5201TIP3    H139798   1.494   1.035   7.663  1.0076 -2.1419  0.1062
 5201TIP3    H239799   1.544   1.154   7.741 -1.4049 -0.3734 -0.9415
 5202TIP3   OH239800   6.552   5.768   9.232 -0.6325 -0.5270 -0.5557
 5202TIP3    H139801   6.473   5.719   9.257  0.3981 -1.8877  0.1759
 5202TIP3    H239802   6.572   5.735   9.144 -0.4831 -0.7270 -0.4489
 5203TIP3   OH239803   5.483   2.914   6.695 -0.5707  0.1897  0.1968
 5203TIP3    H139804   5.543   2.886   6.625 -0.7869  1.6892 -0.6212
 5203TIP3    H239805   5.529   2.893   6.776 -0.1875 -1.3127 -0.3696
 5204TIP3   OH239806   6.038   4.783   8.396  0.0323  0.2688 -0.2013
 5204TIP3    H139807   5.977   4.808   8.465  0.5173  1.0467 -0.0497
 5204TIP3    H239808   6.051   4.862   8.345  0.0003 -0.1959 -0.9464
 5205TIP3   OH239809   4.720   2.177   6.879 -0.2929  0.0333  0.6457
 5205TIP3    H139810   4.756   2.097   6.840  0.9923  0.4458  0.9431
 5205TIP3    H239811   4.625   2.165   6.875 -0.2653 -0.0007 -2.5419
 5206TIP3   OH239812   0.516   0.195   8.353  0.1558 -0.1536 -0.0288
 5206TIP3    H139813   0.479   0.269   8.401  1.0364  0.8026 -0.7689
 5206TIP3    H239814   0.553   0.138   8.420 -2.4927 -1.1129  0.7351
 5207TIP3   OH239815   0.988   1.388   7.031 -0.3808 -0.2495  0.1671
 5207TIP3    H139816   0.949   1.302   7.015  1.0677 -0.8177 -0.4271
 5207TIP3    H239817   0.922   1.434   7.082 -2.0846 -0.9684 -1.2491
 5208TIP3   OH239818   1.881   6.000   8.558  0.6769  0.1038 -0.4839
 5208TIP3    H139819   1.831   6.081   8.546 -1.3884 -1.2010 -1.0605
 5208TIP3    H239820   1.965   6.030   8.594 -0.2135  2.4446 -0.1426
 5209TIP3   OH239821   0.952   0.145   8.462 -0.8944 -0.0415  0.6079
 5209TIP3    H139822   0.977   0.053   8.464  0.9994  0.4431  1.6487
 5209TIP3    H239823   0.883   0.153   8.528  0.2579 -0.3997  1.9009
 5210TIP3   OH239824   6.724   1.906   9.145  0.5849 -0.1337  0.5148
 5210TIP3    H139825   6.788   1.955   9.197  0.0635  1.2155 -0.0785
 5210TIP3    H239826   6.639   1.943   9.170  0.3756  1.5337 -2.1902
 5211TIP3   OH239827   4.211   0.472   8.620  0.4538  0.4989  0.0434
 5211TIP3    H139828   4.232   0.532   8.692  2.0777 -1.2927  1.1784
 5211TIP3    H239829   4.278   0.404   8.626 -0.3951 -0.6217 -2.1380
 5212TIP3   OH239830   3.664   0.260   7.147  0.1773  0.3020  0.1008
 5212TIP3    H139831   3.696   0.350   7.152 -0.6180  0.5376  1.3582
 5212TIP3    H239832   3.681   0.223   7.233  0.4445 -0.7503 -0.3815
 5213TIP3   OH239833   5.463   5.655   8.156  0.3462  0.0441  0.0088
 5213TIP3    H139834   5.483   5.655   8.062  0.1883 -2.2622 -0.0753
 5213TIP3    H239835   5.373   5.624   8.162  0.9711 -1.7004  0.9853
 5214TIP3   OH239836   7.504   4.898   8.334 -0.4221 -0.5210 -0.3059
 5214TIP3    H139837   7.491   4.818   8.283  1.7862 -1.4505  0.4764
 5214TIP3    H239838   7.566   4.950   8.282 -0.3838 -0.1791  0.0711
 5215TIP3   OH239839   5.300   1.903   8.170 -0.0207 -0.4858  0.0681
 5215TIP3    H139840   5.264   1.816   8.185  0.4873 -0.5822  0.8412
 5215TIP3    H239841   5.224   1.961   8.170 -0.3040 -0.8527  0.2361
 5216TIP3   OH239842   2.053   4.112   7.821 -0.0609 -0.5559  0.6166
 5216TIP3    H139843   2.135   4.110   7.772 -0.1975  0.9069  0.2949
 5216TIP3    H239844   2.074   4.071   7.904  0.6612 -1.3382  0.0709
 5217TIP3   OH239845   2.513   7.469   7.164 -0.1722  0.1094 -0.0641
 5217TIP3    H139846   2.528   7.516   7.246 -0.6756  1.6897 -0.8244
 5217TIP3    H239847   2.576   7.397   7.165  0.7643  0.9101  1.0736
 5218TIP3   OH239848   3.292   7.446   9.231  0.4677 -0.0377  0.6830
 5218TIP3    H139849   3.321   7.537   9.227  3.1494 -0.6831  2.3251
 5218TIP3    H239850   3.369   7.395   9.203 -1.3297 -1.8112 -1.3412
 5219TIP3   OH239851   1.043   1.854   9.258 -0.3873 -0.0314  0.3032
 5219TIP3    H139852   1.036   1.919   9.188  1.0286  0.2259  0.3509
 5219TIP3    H239853   1.096   1.784   9.220  0.7709  0.3083  1.2179
 5220TIP3   OH239854   4.178   2.095   8.370 -0.1966  0.0306 -0.1283
 5220TIP3    H139855   4.231   2.093   8.450  0.3234 -0.3264 -0.4735
 5220TIP3    H239856   4.088   2.086   8.400 -0.0301  0.1806  0.4363
 5221TIP3   OH239857   2.596   5.561   6.768 -0.0410  0.0496  0.3689
 5221TIP3    H139858   2.633   5.472   6.766 -0.2232 -0.0737  1.7177
 5221TIP3    H239859   2.626   5.601   6.686  0.8546 -0.9274  0.1945
 5222TIP3   OH239860   4.286   3.123   8.682 -0.0327  0.0315  0.5642
 5222TIP3    H139861   4.301   3.049   8.741 -1.5384  0.0922  1.0428
 5222TIP3    H239862   4.191   3.129   8.673  0.1361  0.3575 -1.4696
 5223TIP3   OH239863   3.825   7.416   7.443  0.0598 -0.7600 -0.0113
 5223TIP3    H139864   3.860   7.340   7.491  1.2641  0.0082  0.3897
 5223TIP3    H239865   3.731   7.411   7.456  0.0297 -2.6080 -0.6357
 5224TIP3   OH239866   6.570   2.954   7.686 -0.3314 -0.1305  0.1930
 5224TIP3    H139867   6.549   2.927   7.775  0.8763 -0.6147  0.3459
 5224TIP3    H239868   6.502   2.914   7.632 -0.2157 -1.0915  0.7402
 5225TIP3   OH239869   1.741   3.703   9.015  0.0164 -0.2787  0.2865
 5225TIP3    H139870   1.702   3.782   9.053  1.1661 -0.0252  0.9566
 5225TIP3    H239871   1.717   3.633   9.076 -1.9390 -0.7013 -0.8584
 5226TIP3   OH239872   4.848   1.164   7.688  0.0808  0.0353 -0.0996
 5226TIP3    H139873   4.794   1.093   7.654 -0.1628  0.0746  0.2035
 5226TIP3    H239874   4.924   1.167   7.629  0.1183 -0.5081 -0.0772
 5227TIP3   OH239875   5.242   1.213   9.297 -0.2348 -0.1671  0.2458
 5227TIP3    H139876   5.294   1.176   9.226 -0.4476 -0.2149  0.1138
 5227TIP3    H239877   5.305   1.258   9.352 -0.1741  0.5394 -0.3931
 5228TIP3   OH239878   7.096   1.821   8.618 -0.2585 -0.0564  0.5859
 5228TIP3    H139879   7.142   1.905   8.625  1.4937 -0.8352 -0.7635
 5228TIP3    H239880   7.074   1.814   8.525 -3.1250  0.2227  1.1387
 5229TIP3   OH239881   3.231   6.189   9.392 -0.4453  0.1593  0.0258
 5229TIP3    H139882   3.145   6.148   9.379 -0.7348  0.7196  0.1251
 5229TIP3    H239883   3.293   6.117   9.385 -0.8659 -0.1453 -0.7531
 5230TIP3   OH239884   1.027   6.375   8.468 -0.1340 -0.4744 -0.1663
 5230TIP3    H139885   1.058   6.285   8.475  0.5807 -0.3576 -1.4774
 5230TIP3    H239886   0.943   6.376   8.514  0.2188 -1.6213  0.5113
 5231TIP3   OH239887   4.267   4.726   9.032  0.9457 -0.2600 -0.2245
 5231TIP3    H139888   4.325   4.655   9.058  0.3920  0.1382  2.4091
 5231TIP3    H239889   4.181   4.701   9.067  0.0633  0.2966 -1.9137
 5232TIP3   OH239890   4.420   3.154   7.932 -0.2255 -0.5516 -0.1155
 5232TIP3    H139891   4.489   3.172   7.996 -1.0908  0.8442  0.4503
 5232TIP3    H239892   4.383   3.239   7.911 -1.3258 -1.2040 -0.9330
 5233TIP3   OH239893   6.302   5.413   7.991 -0.1146  0.0865 -0.0544
 5233TIP3    H139894   6.253   5.337   7.960 -0.1833 -0.2511  0.8490
 5233TIP3    H239895   6.257   5.439   8.072 -0.1589  1.1608 -0.4003
 5234TIP3   OH239896   6.367   2.133   6.949  0.8257 -0.3749  1.0384
 5234TIP3    H139897   6.440   2.156   6.891 -0.9100  0.9803 -0.7486
 5234TIP3    H239898   6.359   2.208   7.008 -0.4656  0.5544 -0.2462
 5235TIP3   OH239899   2.917   1.126   8.322  0.1155 -0.1553 -0.2725
 5235TIP3    H139900   2.902   1.032   8.314  2.4805 -0.6630  0.4586
 5235TIP3    H239901   2.888   1.162   8.238 -1.1150 -1.4708 -0.4478
 5236TIP3   OH239902   0.835   5.946   8.043 -0.6035 -0.4050  0.4239
 5236TIP3    H139903   0.909   5.934   7.984  0.9901 -1.1555  2.4588
 5236TIP3    H239904   0.764   5.974   7.986  1.3374  0.8191 -1.5712
 5237TIP3   OH239905   5.059   6.313   8.408  0.0661  0.2427 -0.3230
 5237TIP3    H139906   5.126   6.246   8.396  0.6292  0.5533  0.9465
 5237TIP3    H239907   5.026   6.330   8.320  1.5265 -0.0597 -0.9507
 5238TIP3   OH239908   5.336   2.828   8.584 -0.1890 -0.0471 -0.3888
 5238TIP3    H139909   5.324   2.895   8.651 -1.4660 -0.3389 -0.2835
 5238TIP3    H239910   5.401   2.864   8.525 -2.2388  2.2233 -1.4548
 5239TIP3   OH239911   0.059   7.655   8.197 -0.4607 -0.3451 -0.5385
 5239TIP3    H139912  -0.020   7.650   8.142 -0.3301  0.9641 -0.8761
 5239TIP3    H239913   0.026   7.655   8.287 -0.7759 -0.8175 -0.6492
 5240TIP3   OH239914   7.591   5.425   8.987 -0.3529  0.1501 -0.9977
 5240TIP3    H139915   7.681   5.457   8.994  0.1246 -0.9321 -1.8845
 5240TIP3    H239916   7.598   5.331   9.003 -0.8818 -0.4121 -3.6583
 5241TIP3   OH239917   0.416   4.900   8.533 -0.0367  0.2164 -0.2814
 5241TIP3    H139918   0.357   4.872   8.602  0.2632  0.3309  0.0239
 5241TIP3    H239919   0.410   4.995   8.532  0.9863  0.3063  0.5169
 5242TIP3   OH239920   7.245   4.769   7.639  0.2414  0.4746 -0.0070
 5242TIP3    H139921   7.286   4.739   7.720 -1.4708  0.9016  1.0714
 5242TIP3    H239922   7.271   4.704   7.574 -0.7922 -1.6185  1.5573
 5243TIP3   OH239923   5.711   2.016   7.764 -0.0547  0.1232 -0.2366
 5243TIP3    H139924   5.745   1.941   7.814  1.0005  0.4419 -0.4522
 5243TIP3    H239925   5.627   2.036   7.806  0.5067 -0.0160  1.0078
 5244TIP3   OH239926   4.737   0.188   9.354 -0.7147  0.6495  0.5835
 5244TIP3    H139927   4.769   0.278   9.361 -1.1756  0.9510 -0.8857
 5244TIP3    H239928   4.652   0.196   9.311 -0.6617 -0.5101  0.2437
 5245TIP3   OH239929   2.338   2.057   8.597  0.0719 -0.1389  0.0566
 5245TIP3    H139930   2.433   2.042   8.604  0.4485  1.4864 -0.9012
 5245TIP3    H239931   2.316   2.029   8.509 -0.2299 -0.0066  0.0889
 5246TIP3   OH239932   6.868   1.042   9.759 -0.5452 -0.5702 -0.3904
 5246TIP3    H139933   6.843   1.070   9.847 -1.4173 -0.4711 -0.6633
 5246TIP3    H239934   6.868   1.122   9.708  1.6707 -0.3294 -0.1272
 5247TIP3   OH239935   6.945   1.970   9.345  0.1961 -0.2556  0.3497
 5247TIP3    H139936   7.014   1.980   9.278 -0.4305  0.8365 -0.1453
 5247TIP3    H239937   6.950   2.050   9.397 -0.1958 -0.5237  0.8017
 5248TIP3   OH239938   1.012   7.590   6.877  0.2145 -0.3229 -0.3658
 5248TIP3    H139939   1.066   7.657   6.918 -0.9502 -0.0278  0.7684
 5248TIP3    H239940   0.922   7.617   6.895 -0.3434 -0.8736 -2.0601
 5249TIP3   OH239941   2.864   4.360   8.210  0.2034 -0.0955  0.5690
 5249TIP3    H139942   2.887   4.269   8.189 -1.3407 -0.6500  1.1254
 5249TIP3    H239943   2.853   4.360   8.305  0.2918  0.7038  0.5826
 5250TIP3   OH239944   7.267   2.170   7.256 -0.6237  0.0744  0.0620
 5250TIP3    H139945   7.291   2.221   7.179  1.1444  1.2817  1.3223
 5250TIP3    H239946   7.226   2.091   7.221  0.9312  0.1471 -2.1560
 5251TIP3   OH239947   2.452   5.710   8.978  0.3441  0.1137  0.0790
 5251TIP3    H139948   2.397   5.766   8.923 -0.0574  0.2668  0.6315
 5251TIP3    H239949   2.394   5.639   9.006 -0.0947  1.1834  2.0684
 5252TIP3   OH239950   0.920   0.130   7.390  0.1380  0.0381  0.7634
 5252TIP3    H139951   1.006   0.129   7.432  0.7502  1.3929 -0.3414
 5252TIP3    H239952   0.881   0.214   7.416  1.3836  1.9513 -2.7288
 5253TIP3   OH239953   1.901   2.225   8.502 -0.0325 -0.0597  0.1669
 5253TIP3    H139954   1.822   2.172   8.494 -0.4483  0.6117 -0.2776
 5253TIP3    H239955   1.870   2.312   8.526  0.6965 -0.1864  1.6737
 5254TIP3   OH239956   7.077   6.166   8.794  0.0324  0.2100 -0.4825
 5254TIP3    H139957   7.044   6.256   8.799  0.6605  0.3761  2.1216
 5254TIP3    H239958   7.001   6.111   8.810 -0.1810  0.2997 -1.1603
 5255TIP3   OH239959   2.313   2.922   7.841 -0.2771  0.3880 -0.2865
 5255TIP3    H139960   2.323   2.955   7.930 -2.8673 -0.0647  0.2368
 5255TIP3    H239961   2.241   2.972   7.804 -2.2357 -2.3907 -0.5334
 5256TIP3   OH239962   1.014   4.720   7.714  0.1608 -0.3948 -0.3220
 5256TIP3    H139963   1.009   4.743   7.621 -1.7118  0.0510 -0.1332
 5256TIP3    H239964   0.943   4.768   7.756 -1.1111 -3.0577  0.8109
 5257TIP3   OH239965   7.118   3.497   8.680  0.3324 -0.1597 -0.4238
 5257TIP3    H139966   7.049   3.447   8.725 -0.5132  0.4535 -1.0165
 5257TIP3    H239967   7.189   3.501   8.744 -1.3261  1.8181  1.4436
 5258TIP3   OH239968   7.532   1.526   9.183 -0.0174 -0.0754  0.1167
 5258TIP3    H139969   7.482   1.456   9.224 -1.4486 -1.5249 -3.6637
 5258TIP3    H239970   7.467   1.590   9.157  0.2926 -0.7025 -2.4784
 5259TIP3   OH239971   6.191   4.883   8.712  0.1351  0.0999 -0.0467
 5259TIP3    H139972   6.275   4.913   8.677  0.1749  1.0065  0.7709
 5259TIP3    H239973   6.205   4.790   8.731  0.6117 -0.0123 -0.8906
 5260TIP3   OH239974   5.053   5.674   7.449  0.2320 -0.0514  0.1666
 5260TIP3    H139975   5.112   5.616   7.401  1.1242  0.8632  0.1366
 5260TIP3    H239976   4.973   5.623   7.459  0.8383 -1.1186 -0.2556
 5261TIP3   OH239977   3.415   2.337   9.497  0.0755 -0.1039  0.7591
 5261TIP3    H139978   3.429   2.390   9.576  1.0990  1.8011 -0.6122
 5261TIP3    H239979   3.487   2.274   9.498  1.3095  1.2286  0.3895
 5262TIP3   OH239980   2.492   4.449   9.077  0.2077 -0.9255  0.3061
 5262TIP3    H139981   2.580   4.480   9.097  0.5021 -0.8369 -1.0713
 5262TIP3    H239982   2.444   4.528   9.053  0.0149 -1.1048  0.1019
 5263TIP3   OH239983   3.687   1.628   7.938 -0.6790 -0.4724 -0.6010
 5263TIP3    H139984   3.780   1.630   7.959 -1.2207 -0.5593  2.1285
 5263TIP3    H239985   3.673   1.543   7.896  0.1622 -1.2471  0.6462
 5264TIP3   OH239986   1.204   5.874   7.978 -0.3987  0.1737 -0.3976
 5264TIP3    H139987   1.120   5.919   7.967  0.3287  1.9133  0.8401
 5264TIP3    H239988   1.207   5.853   8.072  0.4731 -0.0235 -0.4619
 5265TIP3   OH239989   2.970   1.721   7.312  0.5205 -0.0995 -0.1831
 5265TIP3    H139990   2.996   1.711   7.220 -2.3411 -1.6338 -0.9267
 5265TIP3    H239991   2.959   1.815   7.324  0.9592  0.1201 -1.3790
 5266TIP3   OH239992   2.018   0.841   7.601  0.0971 -0.5059  0.5065
 5266TIP3    H139993   2.027   0.793   7.684 -0.0528  1.1484  1.5256
 5266TIP3    H239994   1.930   0.877   7.603  0.1410 -0.3253 -0.3145
 5267TIP3   OH239995   2.258   3.326   8.062  0.2197 -0.0961  0.3796
 5267TIP3    H139996   2.290   3.340   7.972  1.8501 -0.8763  0.7926
 5267TIP3    H239997   2.268   3.232   8.076  0.1513  0.0465  1.4372
 5268TIP3   OH239998   0.994   2.218   8.536  0.3260 -0.6985 -0.4824
 5268TIP3    H139999   1.076   2.268   8.543 -0.4768  0.5092  1.0425
 5268TIP3    H240000   1.021   2.127   8.542  1.6429 -0.3778 -1.0803
 5269TIP3   OH240001   2.391   1.843   8.026 -0.6382  0.2037  0.4374
 5269TIP3    H140002   2.423   1.782   8.092 -1.3575  0.0335  0.6425
 5269TIP3    H240003   2.415   1.804   7.942  0.3121  0.4404  0.5912
 5270TIP3   OH240004   1.680   3.686   8.485  0.2831 -0.1253 -0.4608
 5270TIP3    H140005   1.667   3.695   8.579  0.2161 -0.6998 -0.4106
 5270TIP3    H240006   1.719   3.599   8.474 -2.5048 -1.3844 -1.1910
 5271TIP3   OH240007   6.015   0.889   8.747  0.1120  0.4469 -0.3397
 5271TIP3    H140008   6.036   0.971   8.793 -0.3635  0.3927 -0.0249
 5271TIP3    H240009   6.013   0.914   8.654  1.1038  0.5497 -0.3488
 5272TIP3   OH240010   0.064   6.052   7.676 -0.1504  0.7626  0.0193
 5272TIP3    H140011  -0.002   6.120   7.663 -1.9106 -1.0297 -0.8588
 5272TIP3    H240012   0.030   5.998   7.748 -0.3932 -0.9860 -1.3469
 5273TIP3   OH240013   6.202   0.684   8.707 -0.4464  0.1562 -0.0685
 5273TIP3    H140014   6.116   0.714   8.736 -0.3116 -0.5353  1.0816
 5273TIP3    H240015   6.263   0.719   8.773 -0.0270 -0.6529 -0.0189
 5274TIP3   OH240016   3.284   3.128   6.787  0.3462 -0.1421  0.0381
 5274TIP3    H140017   3.233   3.186   6.730  0.7983  0.1249 -0.0971
 5274TIP3    H240018   3.227   3.053   6.801 -0.4724  0.5719  0.6608
 5275TIP3   OH240019   1.738   7.670   7.893  0.2820 -0.0972 -0.2666
 5275TIP3    H140020   1.771   7.689   7.981  2.5890 -1.1483 -0.8414
 5275TIP3    H240021   1.648   7.640   7.908  0.7963 -0.8212  1.8016
 5276TIP3   OH240022   6.808   0.757   6.666 -0.0767 -0.0599 -0.3250
 5276TIP3    H140023   6.888   0.801   6.635 -0.3701  0.1467 -0.8117
 5276TIP3    H240024   6.839   0.678   6.709  0.4013  0.0969 -0.3718
 5277TIP3   OH240025   6.068   2.022   9.240  0.0867 -0.2632 -0.1550
 5277TIP3    H140026   6.011   2.095   9.265  2.3686  1.6253 -0.0100
 5277TIP3    H240027   6.105   2.049   9.156  1.6573 -0.7888  0.3351
 5278TIP3   OH240028   5.043   1.141   9.477  0.5802  0.2258  0.1890
 5278TIP3    H140029   5.077   1.181   9.397 -2.2038 -0.3475 -1.4003
 5278TIP3    H240030   5.067   1.049   9.469  0.3319  0.1747  0.0448
 5279TIP3   OH240031   0.981   6.006   7.343  0.1621 -0.2300 -0.1663
 5279TIP3    H140032   0.993   5.942   7.413  0.3135 -1.9474 -1.6889
 5279TIP3    H240033   0.928   5.961   7.278 -0.7034  1.6241 -0.7997
 5280TIP3   OH240034   2.003   1.376   9.412  0.9111  0.6742  0.4237
 5280TIP3    H140035   2.090   1.399   9.443  1.2230 -1.1858  1.0792
 5280TIP3    H240036   2.019   1.326   9.331  0.2875  2.4646 -0.8654
 5281TIP3   OH240037   7.009   3.634   9.013  0.2647 -0.0816 -0.1781
 5281TIP3    H140038   7.104   3.634   9.025  0.2659  0.4363 -0.1456
 5281TIP3    H240039   6.976   3.573   9.079  0.4226  1.2417  1.1949
 5282TIP3   OH240040   5.853   6.014   8.037  0.0053 -0.2701  0.5724
 5282TIP3    H140041   5.882   5.936   7.990 -0.4617  0.1316 -0.4310
 5282TIP3    H240042   5.901   6.013   8.119  0.8620 -0.9972  0.0744
 5283TIP3   OH240043   7.464   4.137   7.107  0.3509 -0.5368  0.1829
 5283TIP3    H140044   7.395   4.174   7.050  0.1355 -0.8106  0.2655
 5283TIP3    H240045   7.490   4.056   7.063  0.1451 -0.7784  0.5029
 5284TIP3   OH240046   1.586   4.996   8.318 -0.5955 -0.2076  0.0902
 5284TIP3    H140047   1.615   4.988   8.409 -0.9345  0.8109  0.3016
 5284TIP3    H240048   1.643   4.936   8.270 -1.7331 -2.3027  1.2227
 5285TIP3   OH240049   7.526   1.310   7.693 -0.0709  0.8408  0.2395
 5285TIP3    H140050   7.511   1.395   7.651 -0.3308  1.3805  1.3838
 5285TIP3    H240051   7.444   1.290   7.737  0.8390  1.3228  2.2564
 5286TIP3   OH240052   0.338   4.322   8.708 -0.2373 -0.5669  0.4914
 5286TIP3    H140053   0.425   4.358   8.693 -0.5138  1.0214  2.3632
 5286TIP3    H240054   0.300   4.313   8.621  0.9018  1.0459 -0.2175
 5287TIP3   OH240055   1.877   2.838   9.092  0.4102 -0.2785 -0.1907
 5287TIP3    H140056   1.791   2.798   9.081  0.5205 -0.6576  0.2658
 5287TIP3    H240057   1.903   2.864   9.004  0.0943 -0.7196 -0.4176
 5288TIP3   OH240058   5.697   1.686   8.128 -0.6903 -0.3703 -0.2525
 5288TIP3    H140059   5.610   1.654   8.153 -0.8129  1.4822  1.9865
 5288TIP3    H240060   5.742   1.699   8.211  0.6444  1.5954 -1.2116
 5289TIP3   OH240061   5.142   2.730   8.421 -0.6594 -0.2734  0.7174
 5289TIP3    H140062   5.119   2.657   8.478  0.9002  0.0014  1.7749
 5289TIP3    H240063   5.206   2.780   8.472 -0.3963  0.8566 -0.6748
 5290TIP3   OH240064   3.131   1.347   8.630  0.2122  0.1848 -0.0552
 5290TIP3    H140065   3.173   1.319   8.548 -0.3546  0.3104 -0.3993
 5290TIP3    H240066   3.044   1.376   8.603 -0.8463 -1.9271  0.8824
 5291TIP3   OH240067   1.439   1.933   8.331 -0.1829 -0.0442 -0.1160
 5291TIP3    H140068   1.455   2.014   8.284  0.8475 -0.6073 -0.7726
 5291TIP3    H240069   1.396   1.876   8.268  0.6229 -0.5807 -0.1922
 5292TIP3   OH240070   3.303   6.781   8.430 -0.3891  0.1532 -0.4916
 5292TIP3    H140071   3.378   6.837   8.411 -0.6166  0.8891  0.6859
 5292TIP3    H240072   3.227   6.834   8.405 -0.5598 -0.4389 -1.3074
 5293TIP3   OH240073   6.581   1.743   9.688  0.1991 -0.2071  0.4169
 5293TIP3    H140074   6.600   1.822   9.739 -0.8578 -0.6665  1.5636
 5293TIP3    H240075   6.486   1.737   9.687  0.2314 -0.7921 -0.7476
 5294TIP3   OH240076   5.349   6.199   7.774 -0.1203  0.2910 -0.3704
 5294TIP3    H140077   5.311   6.254   7.705 -0.1938  0.8032  0.0685
 5294TIP3    H240078   5.418   6.149   7.730 -0.1368  0.6423 -0.8043
 5295TIP3   OH240079   2.655   4.171   8.447  0.0165 -0.5319 -0.1019
 5295TIP3    H140080   2.637   4.209   8.533  1.4301 -0.8865  0.3785
 5295TIP3    H240081   2.598   4.094   8.442 -0.4123 -0.2473  0.3105
 5296TIP3   OH240082   3.301   4.629   8.330  0.2958  0.0681  0.3564
 5296TIP3    H140083   3.231   4.694   8.326  0.7020  0.4884  0.0373
 5296TIP3    H240084   3.353   4.645   8.252 -0.8786 -2.1042 -0.9945
 5297TIP3   OH240085   1.403   2.667   8.729 -0.4139 -0.0273 -0.7067
 5297TIP3    H140086   1.310   2.647   8.740  0.1216 -2.1337  0.3814
 5297TIP3    H240087   1.428   2.620   8.650 -0.1255  0.0465 -0.6608
 5298TIP3   OH240088   4.789   2.484   9.511  0.3479 -0.3710 -0.6789
 5298TIP3    H140089   4.790   2.416   9.577  0.1319  1.3152  1.1504
 5298TIP3    H240090   4.773   2.438   9.429  0.0611 -2.4768  0.4983
 5299TIP3   OH240091   1.890   2.982   7.512  0.0229 -0.3546 -0.0873
 5299TIP3    H140092   1.831   3.040   7.559  1.3791  0.7855  0.2779
 5299TIP3    H240093   1.866   2.992   7.420 -0.0872  0.4062  0.0183
 5300TIP3   OH240094   6.077   3.479   8.595 -0.2986  0.1554  0.2901
 5300TIP3    H140095   6.128   3.455   8.672 -1.4974  0.0507  1.0717
 5300TIP3    H240096   5.993   3.435   8.607 -0.5126  0.1197 -1.0896
 5301TIP3   OH240097   7.278   4.793   8.659  0.5304 -0.2455 -0.5611
 5301TIP3    H140098   7.341   4.725   8.684  0.6208 -0.0133 -0.1498
 5301TIP3    H240099   7.250   4.768   8.571  1.6562 -0.0233 -1.0036
 5302TIP3   OH240100   2.028   7.293   7.487 -0.1309  0.7940 -0.7309
 5302TIP3    H140101   2.041   7.218   7.546  2.9040  2.3088  0.7924
 5302TIP3    H240102   2.037   7.256   7.399 -1.1954 -0.9736 -0.1545
 5303TIP3   OH240103   1.816   1.793   8.105  0.1662 -0.6554  0.1923
 5303TIP3    H140104   1.846   1.862   8.046 -2.4924 -0.8668 -1.6084
 5303TIP3    H240105   1.823   1.831   8.193  0.4444  1.2194 -0.5992
 5304TIP3   OH240106   2.026   3.672   8.027 -0.2242  0.6387 -0.3697
 5304TIP3    H140107   2.017   3.742   8.092  1.0878  0.9218 -0.4598
 5304TIP3    H240108   2.014   3.591   8.077  2.1685  0.7894  0.5703
 5305TIP3   OH240109   7.580   2.502   7.183  1.0077 -0.1054  0.6558
 5305TIP3    H140110   7.628   2.564   7.128  1.7855  0.4873  1.9398
 5305TIP3    H240111   7.507   2.474   7.129  1.8985  0.2067 -0.7868
 5306TIP3   OH240112   2.228   6.122   9.276 -0.2107  0.0416  0.6170
 5306TIP3    H140113   2.229   6.212   9.307  1.3545  0.4809 -0.6241
 5306TIP3    H240114   2.271   6.072   9.346  1.5300  0.7247  0.0778
 5307TIP3   OH240115   1.114   1.796   6.634 -0.6430  0.0952  0.0375
 5307TIP3    H140116   1.094   1.788   6.727  0.6662 -2.0275  0.1936
 5307TIP3    H240117   1.095   1.710   6.597  0.0145  0.5407 -1.4358
 5308TIP3   OH240118   7.426   5.423   7.653  0.7594  0.4775  0.5633
 5308TIP3    H140119   7.355   5.484   7.671  0.3108  0.1126  0.0660
 5308TIP3    H240120   7.445   5.434   7.560 -0.3955 -1.2102  0.0668
 5309TIP3   OH240121   2.265   4.558   6.944  0.4172 -0.5326  0.0320
 5309TIP3    H140122   2.270   4.636   7.000  0.2040 -1.2687  1.0990
 5309TIP3    H240123   2.308   4.490   6.995 -1.4197 -1.6883  0.1122
 5310TIP3   OH240124   7.678   4.918   9.139 -0.0768  0.1980 -0.0151
 5310TIP3    H140125   7.762   4.901   9.096 -0.7912 -1.2868 -0.8954
 5310TIP3    H240126   7.680   4.865   9.218 -0.0746  0.3942  0.1175
 5311TIP3   OH240127   3.546   5.407   7.016 -0.2306  0.4564 -0.2531
 5311TIP3    H140128   3.639   5.416   7.040 -0.3155  0.1658  0.2039
 5311TIP3    H240129   3.511   5.344   7.080 -0.9829  1.3153  0.2010
 5312TIP3   OH240130   6.310   6.025   7.451  0.5784  0.1098 -0.8702
 5312TIP3    H140131   6.284   6.110   7.417 -2.0450 -0.3984 -0.3703
 5312TIP3    H240132   6.388   6.002   7.402  0.0561  1.8290 -2.6104
 5313TIP3   OH240133   4.238   0.986   6.552 -0.0429  0.0725  0.4361
 5313TIP3    H140134   4.225   0.962   6.460 -1.0113 -0.1492  0.6161
 5313TIP3    H240135   4.245   1.082   6.551 -0.8477  0.1381  0.2059
 5314TIP3   OH240136   4.189   0.567   8.365  0.0861  0.4366 -0.2093
 5314TIP3    H140137   4.135   0.645   8.375 -0.5086  0.0411 -0.2481
 5314TIP3    H240138   4.195   0.530   8.453 -1.3464 -0.5743 -0.5054
 5315TIP3   OH240139   7.441   3.327   8.088  0.2422 -0.5311 -1.0812
 5315TIP3    H140140   7.432   3.416   8.122  1.0734 -0.8099 -0.0720
 5315TIP3    H240141   7.383   3.324   8.012  0.7016  1.0608 -1.5298
 5316TIP3   OH240142   6.068   7.082   8.796  0.3821 -0.3924 -0.6019
 5316TIP3    H140143   6.045   7.017   8.731  0.4197 -0.3193 -0.6876
 5316TIP3    H240144   6.102   7.156   8.746 -1.4216  0.4537 -0.6405
 5317TIP3   OH240145   3.675   4.638   7.067  0.9474  0.5398  0.1641
 5317TIP3    H140146   3.595   4.684   7.042 -0.0629 -0.1982  1.8562
 5317TIP3    H240147   3.680   4.563   7.007  0.1057  0.3237  0.3547
 5318TIP3   OH240148   1.323   4.566   6.904 -0.1122 -0.2146  0.2517
 5318TIP3    H140149   1.306   4.658   6.927  0.6709  0.5178 -1.8762
 5318TIP3    H240150   1.394   4.540   6.962  0.1352  0.7442  0.3944
 5319TIP3   OH240151   6.966   4.622   7.375  0.0567  0.3078 -0.4272
 5319TIP3    H140152   6.905   4.634   7.302  0.9345  1.1845 -1.0502
 5319TIP3    H240153   7.046   4.589   7.334  0.4225  0.3981  0.2014
 5320TIP3   OH240154   6.629   1.563   9.485  0.4424  0.0902 -0.1762
 5320TIP3    H140155   6.713   1.602   9.462  0.2257  0.4358 -0.3938
 5320TIP3    H240156   6.611   1.594   9.574 -0.7803  2.3598 -1.1270
 5321TIP3   OH240157   1.732   6.846   8.345 -0.2627 -0.5435 -0.2103
 5321TIP3    H140158   1.660   6.880   8.292 -0.2569  1.0724  0.7381
 5321TIP3    H240159   1.702   6.857   8.436  0.3566 -1.7735  0.1638
 5322TIP3   OH240160   5.599   0.018   7.598  0.3071 -0.4194  0.2670
 5322TIP3    H140161   5.654   0.090   7.628  0.6682 -0.4147 -0.3774
 5322TIP3    H240162   5.620  -0.055   7.656 -0.4109  0.1182  1.2244
 5323TIP3   OH240163   0.798   2.763   7.799  0.4397 -0.3671  0.1748
 5323TIP3    H140164   0.806   2.812   7.717  0.5924 -1.8155 -0.7037
 5323TIP3    H240165   0.888   2.755   7.831  0.4139 -0.1012  0.3232
 5324TIP3   OH240166   6.327   2.269   9.189  0.1130 -0.4122  0.3730
 5324TIP3    H140167   6.233   2.286   9.191 -0.0442 -1.3102  1.2568
 5324TIP3    H240168   6.357   2.307   9.106 -0.5723  2.1301  1.2183
 5325TIP3   OH240169   1.548   0.602   6.989  0.5389  0.0557  0.0385
 5325TIP3    H140170   1.542   0.521   6.938  0.0176  0.1045  0.0175
 5325TIP3    H240171   1.506   0.668   6.933 -2.0355 -0.3028  1.3902
 5326TIP3   OH240172   3.360   7.457   7.840  0.5048 -0.1005  0.5171
 5326TIP3    H140173   3.315   7.381   7.805  0.3684  0.1350  0.1706
 5326TIP3    H240174   3.450   7.427   7.855  0.3555 -0.4353  0.7553
 5327TIP3   OH240175   4.009   0.601   6.776 -0.0844  0.5641  0.0038
 5327TIP3    H140176   3.927   0.553   6.788  0.1298  0.4746  1.2648
 5327TIP3    H240177   4.073   0.534   6.750 -0.5845  0.7770 -1.9398
 5328TIP3   OH240178   3.621   0.520   7.764 -0.1093 -0.1451  0.3608
 5328TIP3    H140179   3.557   0.452   7.743  0.4265 -0.5114 -0.1197
 5328TIP3    H240180   3.579   0.601   7.736 -0.3804 -0.3783  0.0771
 5329TIP3   OH240181   4.180   4.966   7.314  0.7616  0.8069 -0.0807
 5329TIP3    H140182   4.235   4.903   7.267 -2.2048 -1.8883 -0.2968
 5329TIP3    H240183   4.121   5.000   7.247 -1.6044 -0.8974  0.9843
 5330TIP3   OH240184   3.768   0.635   6.562 -0.1693  0.3453 -0.5819
 5330TIP3    H140185   3.771   0.540   6.574 -0.7265  0.3298 -0.5245
 5330TIP3    H240186   3.749   0.670   6.650 -1.0812  0.4337 -0.8017
 5331TIP3   OH240187   6.449   2.730   8.987  0.2519 -0.1692 -0.5557
 5331TIP3    H140188   6.460   2.745   8.893  2.6539  0.3069 -0.2499
 5331TIP3    H240189   6.532   2.756   9.026 -0.7559 -0.1753  1.7530
 5332TIP3   OH240190   5.264   6.581   7.796  0.1910 -0.3796 -0.0391
 5332TIP3    H140191   5.219   6.516   7.851 -0.1828 -1.1459 -1.2119
 5332TIP3    H240192   5.357   6.568   7.817  0.1629 -1.6598 -0.6104
 5333TIP3   OH240193   1.782   7.177   6.248  0.0177  0.3473 -0.7830
 5333TIP3    H140194   1.704   7.159   6.300  1.1725 -0.9642  0.5900
 5333TIP3    H240195   1.854   7.145   6.302  1.3358 -0.5632 -2.9857
 5334TIP3   OH240196   3.916   1.004   9.314  0.1063 -0.2347  0.2184
 5334TIP3    H140197   4.006   1.032   9.304  0.2734 -0.9654 -0.4721
 5334TIP3    H240198   3.921   0.922   9.364  0.0880 -1.6300 -1.9174
 5335TIP3   OH240199   5.912   1.900   7.541  0.3502 -0.0066 -0.6631
 5335TIP3    H140200   5.985   1.855   7.584  0.2564  0.6872  0.2677
 5335TIP3    H240201   5.926   1.993   7.561 -1.0846  0.0904  0.0435
 5336TIP3   OH240202   4.444   4.596   6.990 -0.1927  0.2680 -0.7632
 5336TIP3    H140203   4.365   4.583   7.043  0.5461 -1.3123  0.0206
 5336TIP3    H240204   4.432   4.538   6.915 -0.6588  1.5448 -1.7055
 5337TIP3   OH240205   6.715   2.867   7.927  0.5525 -0.0396 -0.2662
 5337TIP3    H140206   6.742   2.905   8.011 -1.7550 -0.7447  0.8793
 5337TIP3    H240207   6.731   2.774   7.937  5.0791  0.2252 -2.6323
 5338TIP3   OH240208   2.009   6.939   9.144 -0.8210  0.1728 -0.1908
 5338TIP3    H140209   2.068   6.936   9.219 -1.0866  0.0183  0.0157
 5338TIP3    H240210   2.066   6.926   9.068 -0.5205  0.5748 -0.0345
 5339TIP3   OH240211   6.788   0.577   8.130 -0.2690  0.6884  0.5422
 5339TIP3    H140212   6.854   0.618   8.186  1.0023 -0.8596  0.2453
 5339TIP3    H240213   6.809   0.484   8.132 -1.6046  0.3222 -0.6866
 5340TIP3   OH240214   6.960   2.251   9.208 -0.3083  0.3037  0.0707
 5340TIP3    H140215   7.005   2.333   9.232  1.2563 -0.2197 -0.8856
 5340TIP3    H240216   7.029   2.185   9.212 -1.5262 -0.9784  0.7270
 5341TIP3   OH240217   3.481   0.350   8.999 -0.0663 -0.1574  0.3417
 5341TIP3    H140218   3.576   0.359   9.011  0.1827  0.0185 -1.4823
 5341TIP3    H240219   3.447   0.438   9.016  0.1752 -0.0726  0.4033
 5342TIP3   OH240220   4.797   2.287   9.716 -0.5020 -0.2969  0.0708
 5342TIP3    H140221   4.710   2.286   9.757 -0.7538 -0.3984 -0.4451
 5342TIP3    H240222   4.838   2.205   9.744 -0.7891 -0.5090 -0.1140
 5343TIP3   OH240223   3.463   5.906   8.744  0.0758 -0.2467  0.0897
 5343TIP3    H140224   3.429   5.927   8.656  1.2772 -1.3686 -0.6747
 5343TIP3    H240225   3.410   5.959   8.803 -0.7658  0.5456 -1.3160
 5344TIP3   OH240226   2.527   5.978   8.622 -0.0596 -0.3275 -0.0696
 5344TIP3    H140227   2.545   5.984   8.715 -0.4652 -2.9229  0.2659
 5344TIP3    H240228   2.588   5.910   8.591 -2.4099 -2.1974 -0.8866
 5345TIP3   OH240229   7.254   0.722   8.617  0.5617 -0.0032 -0.9506
 5345TIP3    H140230   7.234   0.632   8.591  0.3324 -0.5098  0.8206
 5345TIP3    H240231   7.329   0.713   8.677  0.7337  1.0221 -1.0023
 5346TIP3   OH240232   6.039   4.027   8.831 -0.3027  0.0700 -0.0324
 5346TIP3    H140233   6.134   4.018   8.819 -0.4487  0.3085 -1.6752
 5346TIP3    H240234   6.004   3.942   8.806 -0.6859  0.7954 -2.1763
 5347TIP3   OH240235   6.037   0.222   9.567 -0.5074 -0.6782  0.1042
 5347TIP3    H140236   5.956   0.180   9.538 -0.6757 -0.8753  0.8380
 5347TIP3    H240237   6.009   0.305   9.604 -0.2619 -0.2949 -0.5537
 5348TIP3   OH240238   4.895   4.497   8.515  0.0969  0.0155 -0.1613
 5348TIP3    H140239   4.843   4.556   8.570 -0.2288  0.7297 -1.1989
 5348TIP3    H240240   4.892   4.413   8.561 -0.1044  0.6024  0.9348
 5349TIP3   OH240241   4.904   3.937   8.527  0.1240 -0.3003 -0.5763
 5349TIP3    H140242   4.990   3.943   8.486  0.8895 -0.8973  0.9010
 5349TIP3    H240243   4.919   3.956   8.619 -1.4752  0.4484 -0.4226
 5350TIP3   OH240244   4.581   6.699   7.445 -0.1380  0.7593 -0.5189
 5350TIP3    H140245   4.649   6.654   7.495 -0.9554 -0.5360 -0.5136
 5350TIP3    H240246   4.591   6.666   7.356 -0.3439  1.0588 -0.6529
 5351TIP3   OH240247   6.023   0.349   8.292  0.0041 -0.8000  0.3498
 5351TIP3    H140248   6.021   0.374   8.200  0.3909 -0.3096  0.4677
 5351TIP3    H240249   6.060   0.261   8.292 -0.4156 -0.9784  0.0047
 5352TIP3   OH240250   1.141   2.619   6.862 -0.2934  0.3545 -0.4798
 5352TIP3    H140251   1.193   2.688   6.820  0.9458  0.3497  0.9411
 5352TIP3    H240252   1.204   2.549   6.879 -0.4562  0.7602  2.2304
 5353TIP3   OH240253   2.354   3.985   8.847 -0.0462  0.2833 -0.1497
 5353TIP3    H140254   2.383   3.977   8.937  0.2738 -0.4037 -0.3039
 5353TIP3    H240255   2.367   4.077   8.824  1.0992  0.1838  0.0864
 5354TIP3   OH240256   6.341   2.308   9.571 -0.1375 -0.2341  0.3464
 5354TIP3    H140257   6.322   2.216   9.553 -0.9531  0.3021 -1.9143
 5354TIP3    H240258   6.255   2.347   9.590  0.0055  0.3034 -0.0671
 5355TIP3   OH240259   5.656   1.897   7.416 -0.0902 -0.0899  0.0428
 5355TIP3    H140260   5.665   1.981   7.372  1.5820 -0.0434  0.3966
 5355TIP3    H240261   5.705   1.907   7.498  1.3423 -1.7829 -0.5341
 5356TIP3   OH240262   3.705   5.966   8.940  0.6614  0.0043 -0.0878
 5356TIP3    H140263   3.679   6.035   8.878 -0.7098  1.1953  1.7329
 5356TIP3    H240264   3.783   6.000   8.982  1.8214 -0.9744 -1.3360
 5357TIP3   OH240265   2.317   0.762   6.881 -0.0039  0.0645 -0.4602
 5357TIP3    H140266   2.229   0.775   6.846  0.1302  0.9159 -0.4980
 5357TIP3    H240267   2.340   0.673   6.854 -0.0051  0.6055 -2.3140
 5358TIP3   OH240268   1.215   4.779   7.879 -0.4340  0.2717 -0.4264
 5358TIP3    H140269   1.144   4.717   7.894 -0.5242  0.4830  0.0475
 5358TIP3    H240270   1.172   4.865   7.875 -0.1858  0.4322  0.1424
 5359TIP3   OH240271   6.126   2.943   8.452 -0.2382  0.1445 -0.0560
 5359TIP3    H140272   6.092   3.005   8.516  0.0958 -1.1945  1.4877
 5359TIP3    H240273   6.221   2.943   8.466  0.0268  0.9317 -1.6102
 5360TIP3   OH240274   1.408   7.650   8.543 -0.4070  0.2806 -0.0769
 5360TIP3    H140275   1.478   7.707   8.510 -0.3545 -0.2002 -0.8138
 5360TIP3    H240276   1.412   7.661   8.638  0.6805  0.2513 -0.0997
 5361TIP3   OH240277   1.526   7.555   8.241 -0.3324  0.2491  0.0581
 5361TIP3    H140278   1.525   7.495   8.166  0.1098 -0.5221  0.6516
 5361TIP3    H240279   1.600   7.526   8.293 -1.0106  0.3864  1.1186
 5362TIP3   OH240280   0.397   3.147   8.027 -0.0200 -0.5044  0.0440
 5362TIP3    H140281   0.350   3.198   7.961  0.2960  0.0984  0.2803
 5362TIP3    H240282   0.425   3.068   7.980  1.0054  0.3334 -0.8077
 5363TIP3   OH240283   0.891   2.445   7.589  0.4035 -0.4603  0.1732
 5363TIP3    H140284   0.889   2.394   7.508 -1.7580  1.5368 -1.1673
 5363TIP3    H240285   0.839   2.394   7.651 -2.9166  0.5051 -1.5563
 5364TIP3   OH240286   7.052   6.713   8.774 -0.0791  0.1798 -0.0703
 5364TIP3    H140287   7.138   6.679   8.750 -1.0006 -2.0102 -0.5162
 5364TIP3    H240288   7.003   6.636   8.804 -1.7890  1.4112  0.4598
 5365TIP3   OH240289   7.444   6.935   8.947  0.1921  0.0101  0.0713
 5365TIP3    H140290   7.419   6.902   8.861 -1.4932 -1.4212  1.0487
 5365TIP3    H240291   7.399   7.020   8.953 -0.2343 -0.1915 -0.2005
 5366TIP3   OH240292   1.244   2.246   9.534  0.3850  0.1007 -0.2781
 5366TIP3    H140293   1.232   2.179   9.602  0.3365 -1.3942 -1.6975
 5366TIP3    H240294   1.253   2.196   9.453 -3.0256  1.8515 -1.9632
 5367TIP3   OH240295   5.900   0.532   7.096  0.0212  0.7765  0.0898
 5367TIP3    H140296   5.819   0.567   7.059  0.0543 -0.0397 -0.7957
 5367TIP3    H240297   5.873   0.451   7.139  0.4496  0.1772 -0.7456
 5368TIP3   OH240298   4.612   4.863   8.516  0.8011  0.0873 -0.6209
 5368TIP3    H140299   4.584   4.904   8.598 -0.5945 -0.2872 -0.8741
 5368TIP3    H240300   4.534   4.817   8.485  0.9594  1.0909 -2.7074
 5369TIP3   OH240301   7.358   7.378   6.534  0.2402 -0.1995  0.4898
 5369TIP3    H140302   7.354   7.417   6.621 -1.1618  0.3502  0.2061
 5369TIP3    H240303   7.450   7.386   6.508  0.6532 -0.2820  1.8650
 5370TIP3   OH240304   1.892   5.210   7.634 -0.5468  0.8325  0.0091
 5370TIP3    H140305   1.898   5.148   7.561 -1.6891  0.6607  0.0349
 5370TIP3    H240306   1.933   5.164   7.707 -0.9362  0.2900 -0.1000
 5371TIP3   OH240307   1.837   3.764   6.787  0.1793 -0.1185 -0.6980
 5371TIP3    H140308   1.783   3.755   6.708 -0.0633  1.5311 -0.7613
 5371TIP3    H240309   1.926   3.776   6.754 -0.1780  2.6873 -0.9058
 5372TIP3   OH240310   7.113   2.881   9.302  0.8752 -0.0636  0.5299
 5372TIP3    H140311   7.113   2.798   9.348  0.9173 -0.6090 -0.4325
 5372TIP3    H240312   7.204   2.893   9.274  1.0054  0.6239  1.1994
 5373TIP3   OH240313   6.065   4.066   7.739  0.1316 -0.1618 -0.0465
 5373TIP3    H140314   6.124   4.035   7.670 -0.8322 -0.9326 -0.5485
 5373TIP3    H240315   6.100   4.029   7.820 -0.3628 -1.6720 -0.5024
 5374TIP3   OH240316   6.679   3.111   8.780 -0.3070  0.1443 -0.1151
 5374TIP3    H140317   6.714   3.071   8.859 -0.1416 -1.3389 -0.8997
 5374TIP3    H240318   6.704   3.203   8.786 -0.5904  0.1278  1.7033
 5375TIP3   OH240319   2.784   5.647   7.198 -0.1462 -0.0534  0.4985
 5375TIP3    H140320   2.874   5.652   7.167 -0.0515 -1.6998  0.4307
 5375TIP3    H240321   2.740   5.722   7.157  0.9031  0.0820 -0.4148
 5376TIP3   OH240322   7.637   3.505   9.560  0.5537  0.5276  0.0215
 5376TIP3    H140323   7.716   3.461   9.591  0.9181 -1.3810 -3.1803
 5376TIP3    H240324   7.567   3.440   9.571  0.1885  0.8002 -0.6286
 5377TIP3   OH240325   7.475   4.707   7.861  0.5697 -0.2695  0.0216
 5377TIP3    H140326   7.559   4.719   7.816  1.1266  0.0398  1.1120
 5377TIP3    H240327   7.458   4.792   7.903  0.0205 -0.5348  0.3456
 5378TIP3   OH240328   5.703   2.050   8.431  0.9001 -0.1021 -0.0316
 5378TIP3    H140329   5.654   2.065   8.350 -1.1864  1.3234  1.3538
 5378TIP3    H240330   5.700   1.956   8.445  0.8081 -0.3005 -1.3228
 5379TIP3   OH240331   7.286   2.034   8.502  0.0308  0.1768  0.0435
 5379TIP3    H140332   7.261   2.011   8.413  1.9870  0.8125 -0.7273
 5379TIP3    H240333   7.381   2.041   8.499  0.1008  0.7734  2.0668
 5380TIP3   OH240334   0.780   3.632   7.819 -0.3618 -0.1077  0.2169
 5380TIP3    H140335   0.810   3.684   7.744  1.8904 -2.8612 -1.0071
 5380TIP3    H240336   0.840   3.655   7.889 -2.0886  2.0189  1.0845
 5381TIP3   OH240337   2.261   0.246   7.716 -0.3394  0.6370 -0.1582
 5381TIP3    H140338   2.269   0.161   7.673 -1.2799  0.2185  0.4506
 5381TIP3    H240339   2.259   0.309   7.645 -0.3506  0.0867 -0.6497
 5382TIP3   OH240340   6.833   1.794   8.716  0.1334 -0.2568 -0.5200
 5382TIP3    H140341   6.803   1.736   8.646  0.2146 -0.3450 -0.4821
 5382TIP3    H240342   6.926   1.806   8.698 -0.3206  1.7789 -1.9338
 5383TIP3   OH240343   3.532   2.602   7.282  0.9581 -0.0855 -0.0572
 5383TIP3    H140344   3.578   2.546   7.344  1.3449 -1.5971 -1.6298
 5383TIP3    H240345   3.441   2.571   7.284  1.0957 -0.5518 -0.6556
 5384TIP3   OH240346   5.684   4.749   8.390  0.5386 -0.0610 -0.0671
 5384TIP3    H140347   5.753   4.708   8.338 -0.1993 -0.0444 -1.0921
 5384TIP3    H240348   5.615   4.769   8.327 -1.2203 -1.7918  1.2137
 5385TIP3   OH240349   6.142   0.086   8.345  0.3783 -0.4065  0.6398
 5385TIP3    H140350   6.106   0.070   8.432  0.9331 -1.8254  0.6449
 5385TIP3    H240351   6.081   0.042   8.286  0.2749  0.1152  0.3613
 5386TIP3   OH240352   1.288   3.731   9.004  0.4456  0.6837 -0.0598
 5386TIP3    H140353   1.318   3.685   9.082 -0.7473  1.3686  0.8332
 5386TIP3    H240354   1.200   3.696   8.988  0.1574  1.4966 -0.3006
 5387TIP3   OH240355   5.470   2.539   8.643  0.7880  0.4846 -0.2939
 5387TIP3    H140356   5.427   2.624   8.629 -0.8143 -0.5117 -1.8119
 5387TIP3    H240357   5.480   2.503   8.556 -0.8600 -1.9451  0.4245
 5388TIP3   OH240358   2.880   5.579   8.582  0.3894 -0.1049 -0.0130
 5388TIP3    H140359   2.936   5.601   8.656 -1.0941  0.9557  0.8550
 5388TIP3    H240360   2.845   5.492   8.604  1.7058 -0.8189 -0.6081
 5389TIP3   OH240361   0.735   0.425   8.762  0.1516  0.4407 -0.1437
 5389TIP3    H140362   0.644   0.435   8.792  0.4042  0.1508  0.7536
 5389TIP3    H240363   0.763   0.515   8.742 -0.6164  0.4403 -1.3401
 5390TIP3   OH240364   0.731   1.556   8.545 -0.3342 -0.0554  0.0096
 5390TIP3    H140365   0.753   1.623   8.610 -0.0847  0.1817 -0.3132
 5390TIP3    H240366   0.808   1.553   8.487 -0.3011 -0.6997  0.0858
 5391TIP3   OH240367   5.602   7.004   0.855 -0.7082 -0.1291  0.0263
 5391TIP3    H140368   5.524   7.059   0.856 -0.2821  0.4908  1.2727
 5391TIP3    H240369   5.644   7.025   0.771 -0.9198  0.9463  0.1666
 5392TIP3   OH240370   5.566   4.110   1.468 -0.3537  0.0163 -0.1889
 5392TIP3    H140371   5.576   4.165   1.390 -0.1979  0.3138  0.0387
 5392TIP3    H240372   5.607   4.027   1.444  0.7778  0.5154 -0.0021
 5393TIP3   OH240373   2.620   7.072   0.741  0.6165  0.1339 -0.3561
 5393TIP3    H140374   2.557   7.143   0.728 -1.0677 -1.0532  0.8777
 5393TIP3    H240375   2.654   7.085   0.830  0.0292 -0.7667  0.0159
 5394TIP3   OH240376   7.633   6.958   3.676 -0.1124  0.0989  0.5711
 5394TIP3    H140377   7.653   6.885   3.734  0.8351 -0.3740 -0.3125
 5394TIP3    H240378   7.583   6.920   3.604  1.3027  0.0633 -0.4505
 5395TIP3   OH240379   3.156   1.991   2.024  0.5131 -0.1186 -0.1015
 5395TIP3    H140380   3.098   1.950   2.088  1.7494 -0.5422  0.7768
 5395TIP3    H240381   3.125   2.081   2.018 -0.2212 -0.3294  0.3578
 5396TIP3   OH240382   3.149   5.684   2.005  0.7508 -0.0601 -0.3396
 5396TIP3    H140383   3.057   5.682   1.979  0.1638 -1.6361  1.5420
 5396TIP3    H240384   3.151   5.632   2.086  3.0127  1.3422  0.5918
 5397TIP3   OH240385   2.668   1.565   2.246 -0.4287  0.7915 -0.2231
 5397TIP3    H140386   2.718   1.562   2.328  0.7493 -1.0228 -0.9334
 5397TIP3    H240387   2.603   1.496   2.255  0.8010 -0.5976 -1.4089
 5398TIP3   OH240388   6.444   5.625   1.671 -0.5103 -0.5187 -0.3308
 5398TIP3    H140389   6.408   5.628   1.759  1.8885 -2.0353  0.7924
 5398TIP3    H240390   6.421   5.538   1.639 -1.4643  0.0619 -1.2906
 5399TIP3   OH240391   0.388   6.062   3.227  0.1632  0.6983  0.2232
 5399TIP3    H140392   0.379   6.144   3.275 -0.6999  0.6924  0.0912
 5399TIP3    H240393   0.319   6.006   3.262  1.3062 -0.3110  0.9477
 5400TIP3   OH240394   1.582   1.667   1.346 -0.0631  0.0256 -0.0099
 5400TIP3    H140395   1.622   1.594   1.299 -1.9571 -1.4030  0.5020
 5400TIP3    H240396   1.522   1.706   1.283  1.2551  1.4905 -0.4286
 5401TIP3   OH240397   0.874   2.528   3.178 -0.1312  0.0164 -0.0398
 5401TIP3    H140398   0.842   2.447   3.139  0.9418 -0.1741 -0.5431
 5401TIP3    H240399   0.928   2.500   3.252 -2.2204  0.3716  1.7305
 5402TIP3   OH240400   5.808   7.659   2.729  0.2231  0.4041 -0.2216
 5402TIP3    H140401   5.773   7.690   2.812 -0.4780  1.0641 -0.7516
 5402TIP3    H240402   5.790   7.565   2.729 -0.3939  0.5169  0.0765
 5403TIP3   OH240403   2.439   6.948   1.154  0.1850 -0.3237 -0.4484
 5403TIP3    H140404   2.443   6.957   1.249  2.3830  0.4884 -0.5590
 5403TIP3    H240405   2.459   6.856   1.138 -2.7837 -1.1297 -0.0913
 5404TIP3   OH240406   2.522   4.687   3.498  0.0608 -0.1059 -0.0682
 5404TIP3    H140407   2.510   4.622   3.568  0.2615 -1.0789 -0.9062
 5404TIP3    H240408   2.434   4.721   3.481 -0.3439 -1.4239 -0.7755
 5405TIP3   OH240409   2.520   2.192   1.804  0.1306  0.4071  0.5714
 5405TIP3    H140410   2.611   2.161   1.809  0.7592  2.2519  1.9474
 5405TIP3    H240411   2.501   2.224   1.893 -1.3012  1.5010 -0.0863
 5406TIP3   OH240412   6.083   2.334   2.928  0.0678  0.2594  0.1645
 5406TIP3    H140413   6.003   2.290   2.956 -0.2440  0.4752 -0.3737
 5406TIP3    H240414   6.060   2.427   2.928 -0.3758  0.1898 -2.1113
 5407TIP3   OH240415   4.059   0.703   1.911  0.5577 -0.1545  0.0457
 5407TIP3    H140416   4.003   0.713   1.988  0.7784  0.5684  0.1123
 5407TIP3    H240417   4.034   0.774   1.852  0.1283 -0.9163 -0.7250
 5408TIP3   OH240418   5.653   2.685   1.245 -0.2210 -0.6099  0.1214
 5408TIP3    H140419   5.603   2.639   1.178  0.0539  0.7112 -1.0314
 5408TIP3    H240420   5.647   2.629   1.322 -1.1061 -1.8395 -0.8075
 5409TIP3   OH240421   5.243   5.354   1.052 -0.4143  0.1286 -0.4224
 5409TIP3    H140422   5.155   5.337   1.017  0.2420 -0.8737 -1.6982
 5409TIP3    H240423   5.234   5.345   1.147 -1.3718 -1.6595 -0.6413
 5410TIP3   OH240424   1.098   1.096   1.110 -0.6118 -0.6265 -0.4359
 5410TIP3    H140425   1.069   1.116   1.022 -2.5761 -0.1877  0.2703
 5410TIP3    H240426   1.019   1.067   1.156 -0.1807  1.5197  1.8646
 5411TIP3   OH240427   2.949   1.048   1.532 -0.6376 -0.8036 -0.0518
 5411TIP3    H140428   3.019   1.087   1.584 -2.4308  0.9870  1.1516
 5411TIP3    H240429   2.984   0.962   1.506  0.7880 -1.3629  3.1900
 5412TIP3   OH240430   5.584   1.584   2.618 -0.2452  0.2554  0.3837
 5412TIP3    H140431   5.542   1.537   2.691  1.2440 -0.6629  0.6990
 5412TIP3    H240432   5.675   1.591   2.645  0.4049 -0.4099 -1.5478
 5413TIP3   OH240433   4.318   5.605   2.600 -0.2450  0.2951  0.5764
 5413TIP3    H140434   4.358   5.687   2.571  1.7342 -0.8657 -0.1709
 5413TIP3    H240435   4.340   5.598   2.693 -0.6219  0.7044  0.7003
 5414TIP3   OH240436   6.738   2.317   3.342  0.0132  0.1703  0.0349
 5414TIP3    H140437   6.831   2.340   3.336 -0.3188  1.3752 -0.8672
 5414TIP3    H240438   6.692   2.399   3.327 -1.2131 -0.6864 -1.0888
 5415TIP3   OH240439   1.419   4.686   0.930  0.1060 -0.0236 -0.4011
 5415TIP3    H140440   1.332   4.656   0.902  0.0171 -1.0480  0.8771
 5415TIP3    H240441   1.431   4.770   0.886 -2.5269  1.3308  1.2160
 5416TIP3   OH240442   3.533   1.199   0.542  0.5965  0.3863 -0.2104
 5416TIP3    H140443   3.604   1.251   0.579 -0.6837  1.5269  0.7906
 5416TIP3    H240444   3.483   1.262   0.490 -0.6102  0.0202  0.4665
 5417TIP3   OH240445   6.210   1.627   1.614 -0.0589 -0.0029 -0.4221
 5417TIP3    H140446   6.132   1.678   1.635  1.5481  2.5002 -0.1028
 5417TIP3    H240447   6.203   1.607   1.521 -1.8441 -1.3680 -0.0601
 5418TIP3   OH240448   2.469   2.052   1.145 -0.0721  0.1911  0.2435
 5418TIP3    H140449   2.494   2.049   1.238  0.8357 -0.9941 -0.0076
 5418TIP3    H240450   2.459   2.145   1.125 -1.4047  0.4405  1.8036
 5419TIP3   OH240451   1.367   6.686   2.312  0.5897 -0.4983 -0.7174
 5419TIP3    H140452   1.312   6.764   2.318  2.7049  1.0692 -0.8919
 5419TIP3    H240453   1.331   6.638   2.236 -0.7183  0.2867 -0.6285
 5420TIP3   OH240454   5.881   1.456   2.443 -0.2121  0.2323 -0.1361
 5420TIP3    H140455   5.804   1.400   2.429 -0.2293 -0.2279  1.5888
 5420TIP3    H240456   5.857   1.511   2.517  0.8199  0.6485 -0.1083
 5421TIP3   OH240457   2.291   7.107   1.975 -0.1966  0.4050  0.2060
 5421TIP3    H140458   2.297   7.199   1.950  1.1179  0.5983  1.1193
 5421TIP3    H240459   2.209   7.101   2.025 -0.8018  0.8419 -0.7007
 5422TIP3   OH240460   0.024   6.829   2.849  0.4237  0.1057  0.0297
 5422TIP3    H140461  -0.054   6.775   2.834 -0.5073  1.6287 -0.9230
 5422TIP3    H240462   0.011   6.864   2.937  0.0592  0.2774 -0.0880
 5423TIP3   OH240463   1.541   3.703   1.574  0.0166 -0.0234  0.4632
 5423TIP3    H140464   1.557   3.752   1.654 -1.4921  0.7354  0.3487
 5423TIP3    H240465   1.536   3.770   1.505 -2.0808 -0.2700  0.3047
 5424TIP3   OH240466   4.115   2.321   1.402 -0.5012  0.1255  0.5560
 5424TIP3    H140467   4.035   2.370   1.386  0.2613  1.4049  0.5618
 5424TIP3    H240468   4.135   2.280   1.318 -1.6484 -0.9792  0.7960
 5425TIP3   OH240469   0.078   7.534   3.405 -0.0913  0.2361  0.1732
 5425TIP3    H140470   0.023   7.491   3.471  0.6741  0.5347  1.0313
 5425TIP3    H240471   0.141   7.466   3.379 -1.1307 -0.2490 -1.1497
 5426TIP3   OH240472   7.539   4.176   2.606 -0.0476  0.0545 -0.4681
 5426TIP3    H140473   7.505   4.258   2.571 -3.1951 -1.7382 -2.0244
 5426TIP3    H240474   7.465   4.116   2.603  1.6664 -2.4770  2.0892
 5427TIP3   OH240475   5.153   4.246   2.041 -0.4735 -0.1323  0.2360
 5427TIP3    H140476   5.177   4.170   2.093 -0.9581 -0.6992 -0.3347
 5427TIP3    H240477   5.209   4.316   2.072  0.2622 -0.8263  0.5090
 5428TIP3   OH240478   2.806   0.022   1.121  0.3320 -0.6540  0.1837
 5428TIP3    H140479   2.837  -0.068   1.118  0.1668 -0.7216  0.4312
 5428TIP3    H240480   2.765   0.037   1.035 -1.1304 -1.3657  0.7264
 5429TIP3   OH240481   6.116   2.062   2.036  0.2579 -0.1233 -0.0684
 5429TIP3    H140482   6.141   2.065   1.944  0.8679  1.8451  0.1119
 5429TIP3    H240483   6.198   2.076   2.084 -0.0765 -0.9442  0.7879
 5430TIP3   OH240484   1.461   4.913   0.785  0.2602  0.4688  0.0850
 5430TIP3    H140485   1.474   4.988   0.843  2.1968  0.8264 -0.7524
 5430TIP3    H240486   1.540   4.910   0.731  0.1975 -2.1468  0.0302
 5431TIP3   OH240487   0.628   1.258   2.053 -0.5480 -0.3092 -0.4549
 5431TIP3    H140488   0.684   1.282   1.979 -0.2775  0.1804 -0.0953
 5431TIP3    H240489   0.619   1.338   2.104 -0.9164 -0.5864 -0.0740
 5432TIP3   OH240490   5.407   0.001   2.423 -0.1793  0.7769 -0.0073
 5432TIP3    H140491   5.471  -0.029   2.357  1.4087  1.2104  1.2671
 5432TIP3    H240492   5.339   0.045   2.372 -1.0285 -2.1951 -1.6849
 5433TIP3   OH240493   6.033   3.337   3.203 -0.1878 -0.3563 -0.1524
 5433TIP3    H140494   6.073   3.317   3.288 -1.3792  0.5276  0.6505
 5433TIP3    H240495   5.983   3.259   3.182 -0.2061 -0.4330  0.1633
 5434TIP3   OH240496   2.180   4.629   1.959 -0.1859 -0.5427  0.2375
 5434TIP3    H140497   2.145   4.717   1.950 -1.7991 -1.1106  0.5519
 5434TIP3    H240498   2.144   4.597   2.042  1.7930 -0.8998  1.0194
 5435TIP3   OH240499   6.869   6.023   1.716  1.2211  0.3780 -0.3356
 5435TIP3    H140500   6.901   5.965   1.785  0.2092 -0.3560 -0.4538
 5435TIP3    H240501   6.801   6.076   1.758 -3.1251 -3.4332 -1.6264
 5436TIP3   OH240502   1.540   4.215   2.002 -0.4187  0.1005 -0.1325
 5436TIP3    H140503   1.621   4.189   2.045 -0.5199  1.3806  0.9033
 5436TIP3    H240504   1.506   4.134   1.964  1.2264 -0.4919 -0.4226
 5437TIP3   OH240505   7.668   4.001   2.185 -0.1390  0.2023  0.1945
 5437TIP3    H140506   7.602   3.958   2.240 -0.2739  2.5687  2.0287
 5437TIP3    H240507   7.627   4.083   2.158  0.1723 -0.5492 -3.0478
 5438TIP3   OH240508   0.988   3.173   2.410  0.2829 -0.4643 -0.0596
 5438TIP3    H140509   0.963   3.238   2.475 -0.1718 -0.8548  0.1571
 5438TIP3    H240510   1.078   3.196   2.387  0.3153 -0.0962  0.4250
 5439TIP3   OH240511   6.421   2.558   1.526 -0.2453 -0.3573 -0.7193
 5439TIP3    H140512   6.447   2.476   1.482  0.5741  0.1465 -1.2015
 5439TIP3    H240513   6.484   2.623   1.494 -0.8096  0.4373 -0.2413
 5440TIP3   OH240514   2.216   7.619   1.119 -0.3064  0.0995 -0.1043
 5440TIP3    H140515   2.292   7.652   1.072 -1.1124  2.4836  0.1102
 5440TIP3    H240516   2.240   7.627   1.212 -0.8281  1.0033 -0.0313
 5441TIP3   OH240517   7.213   0.684   1.649 -0.5520  0.0037 -0.4983
 5441TIP3    H140518   7.148   0.657   1.584 -0.0484 -0.6762 -0.7364
 5441TIP3    H240519   7.225   0.606   1.705 -1.6331  0.8479  0.9795
 5442TIP3   OH240520   2.006   2.364   1.787 -0.0027 -0.0667  0.4165
 5442TIP3    H140521   2.077   2.323   1.737 -0.2862 -1.2568  0.9510
 5442TIP3    H240522   1.926   2.329   1.748 -0.2394 -0.5003  1.2608
 5443TIP3   OH240523   3.259   4.696   2.730  0.1198  0.8838 -0.4187
 5443TIP3    H140524   3.274   4.606   2.702 -0.8432  0.6628 -0.2833
 5443TIP3    H240525   3.328   4.714   2.793 -0.0356  0.0260  0.0115
 5444TIP3   OH240526   6.571   1.424   1.586  0.3225 -0.5110  0.2322
 5444TIP3    H140527   6.603   1.493   1.644 -0.0442 -0.2041  0.0748
 5444TIP3    H240528   6.638   1.417   1.518  0.2621 -0.1616  0.1323
 5445TIP3   OH240529   4.221   4.629   3.006 -0.1312 -0.3858  0.2919
 5445TIP3    H140530   4.241   4.721   3.025  0.0501 -0.5021  0.6654
 5445TIP3    H240531   4.291   4.601   2.947 -1.8740  0.6096 -2.4499
 5446TIP3   OH240532   3.857   4.474   0.442  0.4780  0.3440 -0.2928
 5446TIP3    H140533   3.926   4.539   0.429  2.1349 -1.1160  0.7838
 5446TIP3    H240534   3.864   4.449   0.534  0.2798 -1.7167 -0.7821
 5447TIP3   OH240535   5.942   6.753   0.915 -0.5662 -0.7426  0.8063
 5447TIP3    H140536   5.875   6.726   0.852 -1.2369  0.3036  1.0454
 5447TIP3    H240537   6.006   6.801   0.862 -0.3562 -1.1433  0.6914
 5448TIP3   OH240538   1.117   5.535   3.179  0.5217  0.1633  0.5791
 5448TIP3    H140539   1.178   5.524   3.105 -1.5617 -0.0885 -1.2262
 5448TIP3    H240540   1.053   5.465   3.167 -1.0648  1.4111  1.3700
 5449TIP3   OH240541   2.078   7.117   1.445  0.5093 -0.0618  0.8383
 5449TIP3    H140542   2.106   7.189   1.502 -3.4080  0.5274  2.3706
 5449TIP3    H240543   2.045   7.161   1.366 -0.3931 -0.2677  1.0885
 5450TIP3   OH240544   3.884   6.949   0.995 -0.1608  0.0436  0.3073
 5450TIP3    H140545   3.855   6.950   1.087 -0.0012 -1.3763  0.3899
 5450TIP3    H240546   3.807   6.980   0.946 -0.8412 -0.8489  0.7824
 5451TIP3   OH240547   4.806   3.611   1.606  0.2624 -0.2747 -0.5578
 5451TIP3    H140548   4.877   3.598   1.544 -1.4749  0.8730 -2.9454
 5451TIP3    H240549   4.813   3.703   1.631 -0.3747 -0.1674 -0.7773
 5452TIP3   OH240550   6.259   1.256   1.802  0.5966  0.3996 -0.3792
 5452TIP3    H140551   6.195   1.199   1.760  0.4526  0.1283  0.1981
 5452TIP3    H240552   6.212   1.336   1.820  0.5021  0.3087 -0.2224
 5453TIP3   OH240553   1.865   2.121   1.675 -0.1250 -0.3342  0.7090
 5453TIP3    H140554   1.906   2.130   1.589 -1.1508  0.0411  0.2457
 5453TIP3    H240555   1.938   2.099   1.733  0.8025  0.7670  0.0064
 5454TIP3   OH240556   7.291   6.682   1.748 -0.0326  0.4256 -0.1538
 5454TIP3    H140557   7.244   6.679   1.665 -0.5518  3.1487 -0.0593
 5454TIP3    H240558   7.369   6.735   1.729 -0.0172  0.8583  1.0174
 5455TIP3   OH240559   1.927   5.236   1.073  0.0243 -0.0377 -0.2491
 5455TIP3    H140560   1.880   5.153   1.083 -1.3281  0.6493 -0.6211
 5455TIP3    H240561   1.863   5.295   1.032  0.9839  1.1569 -0.0899
 5456TIP3   OH240562   6.111   7.427   2.633 -0.3097  0.1157  0.1492
 5456TIP3    H140563   6.198   7.465   2.624  0.1913 -1.0225 -0.0230
 5456TIP3    H240564   6.076   7.426   2.544 -0.3772  0.3024  0.1740
 5457TIP3   OH240565   7.483   0.426   0.871  0.3653 -0.1887 -0.3181
 5457TIP3    H140566   7.502   0.483   0.796  0.8804  0.3634  0.2174
 5457TIP3    H240567   7.567   0.384   0.891  0.3563  0.0638  0.2690
 5458TIP3   OH240568   0.533   6.562   1.926 -0.1649  0.0691 -0.4794
 5458TIP3    H140569   0.558   6.553   1.834  0.1534  0.0523 -0.3942
 5458TIP3    H240570   0.606   6.523   1.974  0.1390  0.9876 -0.1777
 5459TIP3   OH240571   7.408   4.638   0.646  0.5864 -0.0015  0.3900
 5459TIP3    H140572   7.371   4.721   0.615  1.0829  0.1582  0.2166
 5459TIP3    H240573   7.418   4.651   0.740 -2.7133 -1.1599  1.0521
 5460TIP3   OH240574   1.872   1.211   0.746 -0.3810  0.5908  0.2400
 5460TIP3    H140575   1.914   1.219   0.832 -0.0089  1.8451 -0.0388
 5460TIP3    H240576   1.913   1.278   0.693 -0.2795 -0.4750 -1.0778
 5461TIP3   OH240577   6.168   5.566   1.902 -0.4519 -0.1194  0.3028
 5461TIP3    H140578   6.151   5.593   1.812  0.5456 -0.1410  0.0990
 5461TIP3    H240579   6.228   5.632   1.936  1.2294 -1.4846  0.1155
 5462TIP3   OH240580   4.874   6.819   2.578 -0.2611 -0.0216 -0.8026
 5462TIP3    H140581   4.914   6.827   2.665 -1.4784  3.2831 -0.3655
 5462TIP3    H240582   4.785   6.789   2.596 -0.6760  1.1546 -0.7930
 5463TIP3   OH240583   5.757   0.502   2.222  0.1724 -0.3746 -0.3319
 5463TIP3    H140584   5.705   0.559   2.166 -1.5591 -1.1442  0.4216
 5463TIP3    H240585   5.709   0.420   2.225  1.7513 -1.3320 -0.0571
 5464TIP3   OH240586   6.511   1.798   1.337  0.0180  0.1421 -0.5189
 5464TIP3    H140587   6.570   1.723   1.338  1.0229  0.8547 -2.0050
 5464TIP3    H240588   6.502   1.824   1.428  0.3897 -1.2053 -0.0808
 5465TIP3   OH240589   6.050   3.066   1.218 -0.4064 -0.4425  0.3147
 5465TIP3    H140590   5.987   3.137   1.216 -0.6813 -0.6679  0.8415
 5465TIP3    H240591   5.997   2.987   1.209 -0.0420 -0.5621 -1.0467
 5466TIP3   OH240592   1.887   4.681   2.490 -0.0651 -0.3360  0.1637
 5466TIP3    H140593   1.924   4.757   2.536  1.2427 -1.1118  0.4675
 5466TIP3    H240594   1.925   4.606   2.536 -2.4865 -1.2380  0.8460
 5467TIP3   OH240595   7.473   1.475   3.288  0.0820  0.3073 -0.2638
 5467TIP3    H140596   7.397   1.420   3.305  1.6934 -1.0625  3.4273
 5467TIP3    H240597   7.457   1.554   3.340  0.5840  0.6660 -0.6414
 5468TIP3   OH240598   0.701   3.508   1.796  0.4809 -0.0029  0.2642
 5468TIP3    H140599   0.620   3.554   1.816  0.7396  1.3387 -1.5182
 5468TIP3    H240600   0.756   3.574   1.753  1.2626 -1.6864 -1.4677
 5469TIP3   OH240601   6.349   1.584   1.845  0.2059  0.4526 -0.0883
 5469TIP3    H140602   6.309   1.571   1.759 -1.7692 -1.6915  1.0418
 5469TIP3    H240603   6.275   1.589   1.905  1.5529  1.5463  1.5594
 5470TIP3   OH240604   5.249   6.329   1.425 -0.0804 -0.5930 -0.0968
 5470TIP3    H140605   5.179   6.311   1.487  0.7827  0.0233  1.0993
 5470TIP3    H240606   5.299   6.401   1.464  1.1387 -0.9220 -0.9649
 5471TIP3   OH240607   0.537   5.424   1.930  0.2077 -0.0427 -0.7182
 5471TIP3    H140608   0.497   5.451   1.847  1.1501  0.5508 -0.9933
 5471TIP3    H240609   0.499   5.483   1.995  0.7104  0.5999 -0.9969
 5472TIP3   OH240610   0.542   3.042   2.800 -0.2730 -0.3116  0.5818
 5472TIP3    H140611   0.572   2.954   2.824  1.5068  0.0553 -0.1194
 5472TIP3    H240612   0.577   3.098   2.870 -1.0304 -0.0954  0.7933
 5473TIP3   OH240613   3.359   7.153   2.993 -0.5185 -0.6639 -0.5836
 5473TIP3    H140614   3.393   7.157   3.083 -1.2058 -1.5037 -0.2650
 5473TIP3    H240615   3.301   7.077   2.994 -2.2653  0.6109 -1.1567
 5474TIP3   OH240616   6.418   6.390   0.883  0.9381  0.5264  0.1271
 5474TIP3    H140617   6.459   6.349   0.959 -0.8933 -0.1027  0.8356
 5474TIP3    H240618   6.437   6.483   0.892  0.9405  0.4296  1.2579
 5475TIP3   OH240619   5.799   3.180   0.827  0.0247  0.4396  0.4524
 5475TIP3    H140620   5.862   3.112   0.805  0.2444  0.4051  1.1396
 5475TIP3    H240621   5.764   3.209   0.743  1.9009  1.3602 -0.0845
 5476TIP3   OH240622   3.901   5.976   2.037  0.6670 -0.1448  0.3379
 5476TIP3    H140623   3.926   5.890   2.004 -1.2513 -0.7277  0.3139
 5476TIP3    H240624   3.984   6.016   2.063  1.8970 -1.0069 -1.9332
 5477TIP3   OH240625   1.278   1.245   2.249 -0.0639  0.2373  0.0553
 5477TIP3    H140626   1.365   1.208   2.264 -0.8163 -1.2814  0.8874
 5477TIP3    H240627   1.284   1.288   2.164  1.1009 -1.1518 -0.6063
 5478TIP3   OH240628   6.649   0.598   1.498  0.1781 -0.4056  0.7133
 5478TIP3    H140629   6.592   0.644   1.560 -0.4493 -0.6239  0.2999
 5478TIP3    H240630   6.607   0.513   1.485  0.1069 -0.2332 -0.2820
 5479TIP3   OH240631   2.342   4.144   0.701  0.4200  0.4405  0.0135
 5479TIP3    H140632   2.345   4.061   0.655 -1.2884  0.4215 -0.1525
 5479TIP3    H240633   2.352   4.121   0.794  2.5070  0.3426 -0.2075
 5480TIP3   OH240634   2.053   2.459   0.453  0.0497  0.4687  0.0279
 5480TIP3    H140635   1.965   2.490   0.432  0.1114 -0.2895 -1.5126
 5480TIP3    H240636   2.041   2.366   0.475  0.3566  0.5899  0.7384
 5481TIP3   OH240637   5.120   6.705   0.647 -0.5429 -0.0206 -0.6382
 5481TIP3    H140638   5.063   6.768   0.690  0.3927  0.5988 -0.2782
 5481TIP3    H240639   5.068   6.672   0.574 -1.0805  1.1029 -0.7883
 5482TIP3   OH240640   4.332   2.193   2.066  0.4958 -0.3597  0.0725
 5482TIP3    H140641   4.279   2.192   1.986 -1.7648  1.2636  1.4587
 5482TIP3    H240642   4.329   2.103   2.098  2.1817 -1.2715 -2.0251
 5483TIP3   OH240643   0.197   3.034   3.321 -0.0847  0.0210  0.0251
 5483TIP3    H140644   0.254   2.974   3.369  0.3266 -0.2344 -0.7634
 5483TIP3    H240645   0.111   2.994   3.327  0.1321 -0.4964 -0.2370
 5484TIP3   OH240646   4.004   1.437   0.653  0.2283 -0.1598  0.2537
 5484TIP3    H140647   3.987   1.463   0.744  1.5331  1.3879  0.0970
 5484TIP3    H240648   4.080   1.379   0.659 -0.2110 -0.7475  0.2163
 5485TIP3   OH240649   1.335   2.970   3.441 -0.1787 -0.8079 -0.2502
 5485TIP3    H140650   1.267   3.036   3.456 -0.5400 -1.2502  0.0923
 5485TIP3    H240651   1.411   3.004   3.488 -0.2929 -0.5224 -0.2651
 5486TIP3   OH240652   0.578   3.505   1.394  0.2378 -0.3520 -0.1310
 5486TIP3    H140653   0.483   3.490   1.391  0.2169 -0.1689 -0.4352
 5486TIP3    H240654   0.587   3.596   1.423  0.1649  1.2613 -4.4523
 5487TIP3   OH240655   1.114   0.350   2.290 -0.2596  0.2723  0.2021
 5487TIP3    H140656   1.052   0.297   2.241 -0.1947  1.7023 -1.5140
 5487TIP3    H240657   1.061   0.394   2.356 -1.0313  1.1224 -0.9477
 5488TIP3   OH240658   3.665   1.184   2.104 -0.1955  0.2282  0.3942
 5488TIP3    H140659   3.611   1.220   2.174  0.0987 -0.0406  0.7661
 5488TIP3    H240660   3.631   1.096   2.090  0.0161  0.1285  0.4949
 5489TIP3   OH240661   1.152   3.960   0.848  0.6112 -0.5483  0.3779
 5489TIP3    H140662   1.232   3.910   0.839  0.4557 -0.4785 -2.9365
 5489TIP3    H240663   1.096   3.928   0.777 -1.2306  1.2553  0.9126
 5490TIP3   OH240664   2.979   1.593   1.989 -0.0158  0.5963  0.8152
 5490TIP3    H140665   2.979   1.612   2.083  0.3507  0.0192  0.9388
 5490TIP3    H240666   2.893   1.554   1.973 -0.0721  0.6792  0.9149
 5491TIP3   OH240667   7.067   3.313   3.451 -0.1310  0.2932 -0.0365
 5491TIP3    H140668   7.054   3.265   3.369  2.2146 -1.1393  0.3527
 5491TIP3    H240669   7.022   3.261   3.517 -1.9233  1.3881 -0.3266
 5492TIP3   OH240670   1.075   6.951   1.669  0.2920  0.4591  0.2888
 5492TIP3    H140671   1.116   7.035   1.689 -0.2774  1.0277 -0.8910
 5492TIP3    H240672   1.080   6.943   1.574  3.7491 -2.5863  0.4895
 5493TIP3   OH240673   3.873   2.937   1.413 -0.1880 -0.3359  0.6509
 5493TIP3    H140674   3.843   2.965   1.499  3.1348 -1.3940  2.3226
 5493TIP3    H240675   3.966   2.957   1.412  0.3565 -2.3918 -1.8553
 5494TIP3   OH240676   2.071   2.232   1.022  0.0237  0.5938  0.7014
 5494TIP3    H140677   2.076   2.146   1.064 -0.3904 -0.8630 -1.9804
 5494TIP3    H240678   2.024   2.287   1.084  2.1261 -0.4484  3.4249
 5495TIP3   OH240679   0.440   5.429   2.291 -0.0087  0.2401  0.0481
 5495TIP3    H140680   0.521   5.460   2.331 -0.0088 -0.3487  0.5139
 5495TIP3    H240681   0.415   5.498   2.230  0.3276  0.8607  0.6066
 5496TIP3   OH240682   7.198   6.901   1.299 -0.2061  0.3580 -0.3796
 5496TIP3    H140683   7.237   6.929   1.216  0.8535  0.7854  0.2371
 5496TIP3    H240684   7.234   6.814   1.315  1.2376  1.0844  0.6005
 5497TIP3   OH240685   2.247   1.888   2.416 -0.0188  0.0241  0.0491
 5497TIP3    H140686   2.244   1.797   2.444  0.0718  0.3342  1.1061
 5497TIP3    H240687   2.212   1.937   2.490  0.5411  0.9081 -0.2542
 5498TIP3   OH240688   4.103   7.488   2.382 -0.4873  0.3549 -0.4243
 5498TIP3    H140689   4.139   7.427   2.318  0.5118 -0.5443  0.9349
 5498TIP3    H240690   4.009   7.470   2.381 -0.1580 -1.6948  0.3732
 5499TIP3   OH240691   3.638   3.968   3.096  0.5023 -0.6811 -0.6119
 5499TIP3    H140692   3.720   3.953   3.143  1.2873 -2.6281 -2.4356
 5499TIP3    H240693   3.570   3.944   3.159  1.1878  1.9401  1.2829
 5500TIP3   OH240694   1.329   2.366   1.078 -0.2472 -0.2587 -0.3144
 5500TIP3    H140695   1.364   2.376   0.989 -0.3552 -4.0407 -0.9780
 5500TIP3    H240696   1.399   2.320   1.126 -0.8288  0.2659  1.0866
 5501TIP3   OH240697   6.318   4.494   1.455 -0.4481  0.4090  0.2581
 5501TIP3    H140698   6.356   4.538   1.532  0.6683 -2.4481  1.4879
 5501TIP3    H240699   6.374   4.418   1.441 -1.6215 -0.0595 -2.4068
 5502TIP3   OH240700   6.598   0.012   2.535 -0.1583  0.2680  0.2590
 5502TIP3    H140701   6.536   0.058   2.478 -0.1096 -0.1483 -0.1372
 5502TIP3    H240702   6.568   0.031   2.624 -1.9289 -1.3467  0.0839
 5503TIP3   OH240703   0.412   4.223   3.163  0.4117  0.2015 -0.1447
 5503TIP3    H140704   0.450   4.244   3.248  0.9325  0.4221 -0.4250
 5503TIP3    H240705   0.486   4.192   3.110  0.2056  0.6175 -0.6932
 5504TIP3   OH240706   5.603   4.764   2.997  0.4404  1.0712  0.2602
 5504TIP3    H140707   5.527   4.781   3.053  0.9225  0.4742  1.1198
 5504TIP3    H240708   5.623   4.671   3.013  0.7263  0.9535 -0.7379
 5505TIP3   OH240709   7.343   4.294   1.232 -0.0705 -0.2920 -0.7315
 5505TIP3    H140710   7.316   4.347   1.307 -2.6286 -0.9825 -1.0732
 5505TIP3    H240711   7.406   4.349   1.185  0.0768  0.9425  0.8302
 5506TIP3   OH240712   5.888   7.662   1.725  0.1299 -0.0319  0.7396
 5506TIP3    H140713   5.825   7.606   1.772 -0.6075 -0.2941 -0.5316
 5506TIP3    H240714   5.847   7.680   1.641  1.6494 -0.0007 -0.0331
 5507TIP3   OH240715   7.505   7.475   2.300 -0.4675 -0.0228 -0.1231
 5507TIP3    H140716   7.566   7.459   2.228  0.2014 -1.9534  0.8003
 5507TIP3    H240717   7.503   7.570   2.310 -0.2550  0.2840 -2.3792
 5508TIP3   OH240718   0.574   6.357   1.566  0.2281 -0.5100  0.0020
 5508TIP3    H140719   0.584   6.450   1.583  0.2405 -0.7417  1.3013
 5508TIP3    H240720   0.491   6.332   1.606 -0.3562 -0.8409 -1.3445
 5509TIP3   OH240721   1.404   1.930   1.591 -0.0876 -0.8513 -0.1887
 5509TIP3    H140722   1.407   1.954   1.498  2.1711 -1.8444 -0.4426
 5509TIP3    H240723   1.370   1.841   1.592  2.6248 -1.9924 -0.4392
 5510TIP3   OH240724   0.746   1.965   2.095  0.6469 -0.0920  0.2147
 5510TIP3    H140725   0.772   1.982   2.186 -1.4672 -3.3937  1.6173
 5510TIP3    H240726   0.651   1.975   2.095  0.2967 -2.6240 -0.9073
 5511TIP3   OH240727   7.471   4.281   0.582  0.0231  0.9090  0.6271
 5511TIP3    H140728   7.550   4.236   0.553  0.6323  3.0709 -1.4124
 5511TIP3    H240729   7.403   4.253   0.521 -0.2515  0.7352  1.0090
 5512TIP3   OH240730   7.294   2.633   1.288 -0.4765  0.1510  0.5303
 5512TIP3    H140731   7.224   2.620   1.224 -0.1676  0.1909  0.1865
 5512TIP3    H240732   7.285   2.559   1.348  0.3673 -0.9091 -0.5973
 5513TIP3   OH240733   0.887   1.451   1.478  0.0927  0.4159 -0.3134
 5513TIP3    H140734   0.932   1.510   1.417 -0.1738  0.2517 -0.6696
 5513TIP3    H240735   0.830   1.398   1.423 -0.7828  0.8410  0.1625
 5514TIP3   OH240736   1.676   3.517   3.065  0.5069 -0.6900 -0.6327
 5514TIP3    H140737   1.663   3.540   2.972 -0.5484  0.9838 -0.1205
 5514TIP3    H240738   1.612   3.447   3.081  0.3385 -0.6373 -1.0462
 5515TIP3   OH240739   3.548   5.945   2.351  0.3783  0.4711 -0.0089
 5515TIP3    H140740   3.610   5.902   2.293 -2.9881 -2.1605 -2.0849
 5515TIP3    H240741   3.489   5.993   2.292 -1.4951  0.0572  1.4215
 5516TIP3   OH240742   0.016   7.367   2.120 -0.6082 -0.3614  0.1498
 5516TIP3    H140743   0.095   7.335   2.163 -0.4364 -1.0796 -0.6935
 5516TIP3    H240744  -0.004   7.302   2.053 -1.3983  0.2753 -0.2531
 5517TIP3   OH240745   0.662   5.132   8.407  0.0993  0.5977 -0.8913
 5517TIP3    H140746   0.696   5.043   8.416 -0.7873  0.1918 -1.3992
 5517TIP3    H240747   0.709   5.182   8.473  0.6766 -0.2288 -0.6521
 5518TIP3   OH240748   6.241   3.743   2.363  0.0082  0.8356 -0.4310
 5518TIP3    H140749   6.245   3.660   2.316 -0.2689  2.0724 -2.7959
 5518TIP3    H240750   6.148   3.760   2.375  0.0758  0.4698  0.7517
 5519TIP3   OH240751   4.806   2.271   1.254 -0.0484  1.0163 -0.4662
 5519TIP3    H140752   4.870   2.206   1.226  1.2586  1.3505  1.5486
 5519TIP3    H240753   4.722   2.225   1.252  0.2436  0.4453 -2.7263
 5520TIP3   OH240754   7.122   5.348   2.359 -0.1139 -0.0085  0.6934
 5520TIP3    H140755   7.198   5.401   2.381  0.8794  0.3105 -2.8955
 5520TIP3    H240756   7.050   5.386   2.409  1.2319  2.5868  0.8177
 5521TIP3   OH240757   0.645   2.090   2.588 -0.2692  0.1156 -0.3553
 5521TIP3    H140758   0.567   2.052   2.627 -1.0993  2.3615  0.3463
 5521TIP3    H240759   0.704   2.107   2.662 -0.2141  0.7939 -0.5408
 5522TIP3   OH240760   2.574   3.777   1.521 -0.5472 -0.0490 -0.0854
 5522TIP3    H140761   2.605   3.858   1.561 -1.9046  1.2880 -1.6022
 5522TIP3    H240762   2.561   3.718   1.595  0.9551  0.9135  1.0141
 5523TIP3   OH240763   2.365   6.557   2.317 -0.2914  0.0782 -0.3391
 5523TIP3    H140764   2.364   6.616   2.241 -0.7169 -0.6257 -0.8861
 5523TIP3    H240765   2.276   6.523   2.322 -0.1217 -0.2975  0.1558
 5524TIP3   OH240766   6.869   6.172   2.072  0.1133 -0.0561  0.4068
 5524TIP3    H140767   6.864   6.145   1.980 -0.6222  0.7217  0.2089
 5524TIP3    H240768   6.907   6.260   2.069 -2.3227  1.0830  0.6020
 5525TIP3   OH240769   5.264   7.448   0.899 -0.0430  0.1510 -0.0768
 5525TIP3    H140770   5.181   7.418   0.936 -0.7393  2.2008  0.1860
 5525TIP3    H240771   5.246   7.463   0.807 -0.0685  0.8469  0.0321
 5526TIP3   OH240772   0.908   2.627   1.948 -0.5278 -0.6809 -0.2148
 5526TIP3    H140773   0.850   2.598   1.877 -0.2786 -0.7583 -0.3878
 5526TIP3    H240774   0.890   2.567   2.020  1.4969 -2.6698 -1.2430
 5527TIP3   OH240775   4.229   6.844   2.268 -0.0380  0.3199  0.4744
 5527TIP3    H140776   4.191   6.761   2.240  0.7907  0.4248 -1.0883
 5527TIP3    H240777   4.159   6.908   2.256  0.4795  0.4941 -2.2780
 5528TIP3   OH240778   4.975   6.901   1.642 -0.5660  0.1301 -0.2453
 5528TIP3    H140779   4.905   6.898   1.577  0.0513  1.1772 -0.9993
 5528TIP3    H240780   5.053   6.925   1.591  0.0967  0.1731  0.7612
 5529TIP3   OH240781   1.610   2.015   7.799 -0.2750 -0.0580 -0.2542
 5529TIP3    H140782   1.602   1.923   7.772  0.2685 -0.3326  0.4774
 5529TIP3    H240783   1.574   2.065   7.726  0.3949 -0.8043 -1.1186
 5530TIP3   OH240784   0.655   6.118   3.424  0.3891  0.5766 -0.3378
 5530TIP3    H140785   0.565   6.123   3.456  1.1690  0.6240  2.0787
 5530TIP3    H240786   0.649   6.138   3.331 -2.1524 -0.0221 -0.3801
 5531TIP3   OH240787   4.062   6.921   1.913 -0.3016  0.0263  0.3294
 5531TIP3    H140788   4.054   7.006   1.869 -1.2973 -0.7509 -1.0737
 5531TIP3    H240789   4.040   6.939   2.004  0.1752  1.3841  0.2034
 5532TIP3   OH240790   2.628   2.897   0.456 -0.0224 -0.2578 -0.1219
 5532TIP3    H140791   2.605   2.987   0.434  0.3103  0.0519  0.7459
 5532TIP3    H240792   2.546   2.856   0.482 -0.1374 -0.1311 -0.2902
 5533TIP3   OH240793   1.163   2.662   1.686 -0.0208 -0.4568  0.9599
 5533TIP3    H140794   1.173   2.581   1.637 -1.3293 -0.1702  0.1864
 5533TIP3    H240795   1.077   2.695   1.662  0.5477  1.2613  1.1181
 5534TIP3   OH240796   2.061   5.748   1.144  0.0503 -0.1233  0.3600
 5534TIP3    H140797   1.972   5.781   1.134  0.2790 -0.0033 -1.4793
 5534TIP3    H240798   2.115   5.806   1.091  0.9963 -1.1687  0.1295
 5535TIP3   OH240799   0.185   3.001   0.914 -0.1302  0.1813  0.0884
 5535TIP3    H140800   0.158   3.067   0.979  1.6423  0.6122  0.4517
 5535TIP3    H240801   0.175   3.045   0.830  1.1521  0.9968  0.3354
 5536TIP3   OH240802   0.259   2.149   2.924 -0.0868  0.3066 -0.0890
 5536TIP3    H140803   0.330   2.088   2.901  0.5256  0.2624  1.7614
 5536TIP3    H240804   0.233   2.123   3.012 -2.3986  0.3829 -0.7051
 5537TIP3   OH240805   2.348   6.620   1.397 -0.1338  0.0970  0.2414
 5537TIP3    H140806   2.317   6.707   1.421 -0.5423  0.6070 -1.9182
 5537TIP3    H240807   2.269   6.567   1.391 -0.1156  0.1376 -0.4767
 5538TIP3   OH240808   5.372   0.573   2.517  0.0750 -0.3710 -0.1661
 5538TIP3    H140809   5.407   0.660   2.499 -0.1706 -0.6287 -1.9938
 5538TIP3    H240810   5.447   0.515   2.508  0.5455 -0.2800  2.3538
 5539TIP3   OH240811   4.981   4.763   1.751  0.5878 -0.2126 -0.3778
 5539TIP3    H140812   4.966   4.676   1.786  2.2522 -0.8710 -1.1741
 5539TIP3    H240813   5.031   4.808   1.819  1.7893 -0.7124 -0.8911
 5540TIP3   OH240814   4.786   2.870   0.812  0.0292 -0.0847 -0.1550
 5540TIP3    H140815   4.833   2.847   0.893 -0.8531  0.7941  0.6313
 5540TIP3    H240816   4.706   2.912   0.842  0.1727  1.2345 -1.4946
 5541TIP3   OH240817   6.632   7.040   1.792 -0.5779  0.0659  0.3059
 5541TIP3    H140818   6.582   7.083   1.861  0.1581 -0.1203  0.9752
 5541TIP3    H240819   6.597   7.076   1.710 -1.4075  0.3496  0.7729
 5542TIP3   OH240820   0.967   2.146   2.393  0.1888 -0.0141 -0.1995
 5542TIP3    H140821   0.999   2.231   2.425  0.0825  0.3320 -0.9992
 5542TIP3    H240822   1.039   2.112   2.339 -0.6908  0.6835 -1.8631
 5543TIP3   OH240823   3.388   1.931   1.683  0.5289  0.2231 -0.3856
 5543TIP3    H140824   3.409   1.839   1.667 -0.4607 -0.2977  1.0856
 5543TIP3    H240825   3.387   1.938   1.779 -0.8399  1.4110 -0.4652
 5544TIP3   OH240826   1.521   1.180   1.650  0.5666 -0.4474 -0.2509
 5544TIP3    H140827   1.532   1.220   1.564 -0.5126  2.1009  0.6906
 5544TIP3    H240828   1.428   1.155   1.653  0.4969 -0.1465  0.2992
 5545TIP3   OH240829   0.948   4.035   1.115  0.0682 -0.0915  0.3706
 5545TIP3    H140830   1.000   3.975   1.167 -2.0444 -1.5253  0.9873
 5545TIP3    H240831   0.915   3.982   1.043  0.9541  1.2501 -1.0800
 5546TIP3   OH240832   2.593   3.156   0.836  0.0041 -0.4689 -0.8961
 5546TIP3    H140833   2.668   3.216   0.846 -0.8319  0.5774 -0.7061
 5546TIP3    H240834   2.550   3.158   0.921 -1.3647  0.5176 -1.5693
 5547TIP3   OH240835   2.026   0.693   0.688  0.0131 -0.9508  0.6939
 5547TIP3    H140836   2.105   0.644   0.662 -0.2614 -0.7943 -0.5120
 5547TIP3    H240837   2.012   0.755   0.616  0.0342  0.5478  1.9407
 5548TIP3   OH240838   4.468   2.100   0.888  0.3644  0.5198 -0.0580
 5548TIP3    H140839   4.497   2.188   0.912 -1.8815  1.3831 -0.3185
 5548TIP3    H240840   4.486   2.094   0.794  1.2752  0.3500  0.1119
 5549TIP3   OH240841   1.055   0.688   0.911 -0.6762 -0.0659  0.0366
 5549TIP3    H140842   1.115   0.659   0.980 -1.5270 -1.1950  0.3323
 5549TIP3    H240843   1.102   0.759   0.867  0.1037  0.3271  1.4366
 5550TIP3   OH240844   2.682   3.417   0.858  0.4228  0.3725 -0.0359
 5550TIP3    H140845   2.662   3.449   0.770 -2.3514 -2.2031 -0.4696
 5550TIP3    H240846   2.627   3.469   0.916  1.0429  0.9490  0.0598
 5551TIP3   OH240847   0.727   2.845   3.098 -0.3749  0.1574  0.5341
 5551TIP3    H140848   0.675   2.795   3.035  1.4274 -1.4890  0.2424
 5551TIP3    H240849   0.809   2.796   3.105  0.4723  1.7033  2.2529
 5552TIP3   OH240850   3.163   0.629   2.089  0.4073  0.0930 -0.1605
 5552TIP3    H140851   3.118   0.612   2.006 -0.1272 -0.2098  0.1854
 5552TIP3    H240852   3.181   0.542   2.124 -0.3822  0.2188  0.5775
 5553TIP3   OH240853   2.980   3.225   2.567 -0.6085  0.1066  0.0944
 5553TIP3    H140854   2.953   3.225   2.659 -1.2000 -1.5656 -0.0444
 5553TIP3    H240855   2.897   3.224   2.518 -0.4057 -2.9225 -0.3660
 5554TIP3   OH240856   0.557   0.684   0.717 -0.3487 -0.2258 -0.2698
 5554TIP3    H140857   0.569   0.692   0.811 -1.4921  1.9425 -0.2275
 5554TIP3    H240858   0.462   0.681   0.705 -0.2045 -1.0423 -1.3262
 5555TIP3   OH240859   1.178   7.563   0.561 -0.0130 -0.3740 -0.0943
 5555TIP3    H140860   1.234   7.628   0.519 -1.1428  0.4265 -0.4248
 5555TIP3    H240861   1.094   7.571   0.515 -0.9024 -0.3657  1.4690
 5556TIP3   OH240862   1.507   5.546   1.620  0.3820 -1.3855  0.8413
 5556TIP3    H140863   1.444   5.617   1.617  1.8032 -0.1062  0.0247
 5556TIP3    H240864   1.581   5.582   1.670  0.9379 -2.4342  0.7987
 5557TIP3   OH240865   5.211   6.164   2.284  0.0436 -0.6142 -0.1927
 5557TIP3    H140866   5.202   6.200   2.196  2.7665 -2.1866 -1.2101
 5557TIP3    H240867   5.142   6.099   2.291 -0.3962 -0.2454 -1.0168
 5558TIP3   OH240868   5.941   3.062   3.178  0.0966  0.4920 -0.5638
 5558TIP3    H140869   6.019   3.037   3.129 -0.8457 -2.5442 -0.7455
 5558TIP3    H240870   5.868   3.030   3.124 -1.1789  1.2172  0.6574
 5559TIP3   OH240871   4.985   1.020   0.701  0.2991  0.3540 -0.2310
 5559TIP3    H140872   5.067   1.018   0.651  0.2411 -0.6862 -0.3066
 5559TIP3    H240873   4.952   0.930   0.697  0.5258  0.1064  2.0672
 5560TIP3   OH240874   3.841   4.500   2.673  0.3882 -0.1691 -0.0660
 5560TIP3    H140875   3.819   4.578   2.723  0.5151 -0.6821  0.8093
 5560TIP3    H240876   3.936   4.495   2.676  0.5482  0.8708 -2.0434
 5561TIP3   OH240877   0.329   5.228   2.003  0.0448  0.3900 -0.0157
 5561TIP3    H140878   0.260   5.288   1.974  0.1995  1.0813  0.9764
 5561TIP3    H240879   0.408   5.282   2.005 -0.3756  1.1570  3.9971
 5562TIP3   OH240880   2.633   0.907   0.556  0.4335 -0.0120  0.3700
 5562TIP3    H140881   2.680   0.950   0.485 -0.3948  0.1120 -0.1176
 5562TIP3    H240882   2.547   0.949   0.558  0.3974 -0.0932  1.3728
 5563TIP3   OH240883   3.255   1.151   2.225  0.1770 -0.6900  0.3013
 5563TIP3    H140884   3.234   1.058   2.214  1.2161 -1.5845  4.3503
 5563TIP3    H240885   3.350   1.154   2.227  0.3174  1.0317 -2.5294
 5564TIP3   OH240886   2.177   4.239   1.821  0.1850 -0.3310 -0.5362
 5564TIP3    H140887   2.195   4.291   1.744 -0.5211 -2.0258 -1.9141
 5564TIP3    H240888   2.097   4.276   1.858  0.2922  0.2229 -0.8524
 5565TIP3   OH240889   5.749   2.991   2.021  0.0259  0.6462 -0.6650
 5565TIP3    H140890   5.754   3.079   1.984  1.1090  1.2286  0.7515
 5565TIP3    H240891   5.809   2.939   1.967  1.5972  1.4835  0.2095
 5566TIP3   OH240892   6.398   6.310   0.613  0.2776  0.4649  0.0449
 5566TIP3    H140893   6.401   6.348   0.701 -0.5332  1.0592 -0.1709
 5566TIP3    H240894   6.309   6.328   0.582  1.3418  2.7045 -1.9652
 5567TIP3   OH240895   0.749   6.068   2.681  0.1276 -0.3711 -0.2497
 5567TIP3    H140896   0.720   6.151   2.719  0.5159 -0.2369 -0.2396
 5567TIP3    H240897   0.686   6.003   2.712  0.3838 -0.2482  0.5409
 5568TIP3   OH240898   6.946   4.675   2.307  0.1304 -0.3339 -0.9484
 5568TIP3    H140899   6.954   4.610   2.377  1.3587  1.4518  0.6598
 5568TIP3    H240900   7.020   4.655   2.248  0.8898 -0.0337 -0.1218
 5569TIP3   OH240901   6.465   6.925   0.505  0.1412  0.1405 -0.0115
 5569TIP3    H140902   6.521   6.954   0.578  0.8615  0.0003 -0.4995
 5569TIP3    H240903   6.495   6.837   0.485 -0.3910 -0.0105 -0.1568
 5570TIP3   OH240904   0.806   4.649   0.995  0.5067  0.0943 -0.0632
 5570TIP3    H140905   0.834   4.632   0.905 -0.7718 -2.2090 -0.1318
 5570TIP3    H240906   0.728   4.593   1.006 -1.2015  2.6001  1.5322
 5571TIP3   OH240907   1.893   6.195   2.411  1.0144  0.0134 -0.4467
 5571TIP3    H140908   1.989   6.202   2.407  0.9407  0.7647 -1.4444
 5571TIP3    H240909   1.866   6.198   2.319 -0.0188  0.7424 -0.1270
 5572TIP3   OH240910   2.104   5.507   2.538  0.4805  0.2530  0.3759
 5572TIP3    H140911   2.164   5.447   2.494 -1.2701 -1.3306  0.0202
 5572TIP3    H240912   2.017   5.471   2.521 -0.5758  2.3181  1.0837
 5573TIP3   OH240913   1.209   4.610   0.768 -0.0294  0.2600  0.1842
 5573TIP3    H140914   1.221   4.534   0.710  0.4011  0.1618  0.3944
 5573TIP3    H240915   1.115   4.628   0.765 -0.0899 -0.0890 -0.1139
 5574TIP3   OH240916   3.270   4.437   2.900  0.1876 -0.0011 -0.3595
 5574TIP3    H140917   3.351   4.443   2.849  0.0017 -0.7144 -0.7485
 5574TIP3    H240918   3.224   4.362   2.863  0.1082 -0.6196  0.9363
 5575TIP3   OH240919   6.729   3.356   1.164  0.7995 -0.4138  0.1016
 5575TIP3    H140920   6.718   3.348   1.258  2.0165 -2.3267  0.1336
 5575TIP3    H240921   6.802   3.416   1.153 -1.3604  2.4337  0.2094
 5576TIP3   OH240922   1.456   3.121   1.336  0.4347  0.0118 -0.3862
 5576TIP3    H140923   1.375   3.076   1.359  0.7717 -0.1064  0.6572
 5576TIP3    H240924   1.471   3.182   1.408  1.6639 -0.5207 -0.1525
 5577TIP3   OH240925   5.926   4.548   1.592  0.4804  0.0777 -0.2612
 5577TIP3    H140926   5.935   4.468   1.644  0.1786 -0.7630 -1.4770
 5577TIP3    H240927   5.843   4.538   1.546 -0.0255  1.5269  0.2763
 5578TIP3   OH240928   3.171   4.182   2.299  0.0692  0.3780 -0.3878
 5578TIP3    H140929   3.168   4.243   2.226  0.6892 -0.5949 -1.2536
 5578TIP3    H240930   3.106   4.115   2.277  2.3735 -1.6174 -1.6690
 5579TIP3   OH240931   4.814   7.583   1.161 -0.1049  0.0616 -0.0903
 5579TIP3    H140932   4.885   7.600   1.223 -0.2516 -0.8676  0.3474
 5579TIP3    H240933   4.738   7.627   1.199 -0.2818 -0.8049  0.5933
 5580TIP3   OH240934   1.581   3.382   3.780  0.1295  1.0327  0.1340
 5580TIP3    H140935   1.528   3.455   3.811 -0.7563  0.6918 -0.5405
 5580TIP3    H240936   1.541   3.356   3.697 -1.6535 -2.3237  1.8275
 5581TIP3   OH240937   7.349   5.287   0.927  0.1508 -0.1646  0.1893
 5581TIP3    H140938   7.416   5.337   0.974 -1.0879  1.2365  0.5144
 5581TIP3    H240939   7.273   5.345   0.923  0.2782  0.0457 -3.9623
 5582TIP3   OH240940   1.422   0.931   2.080 -0.0358  0.3431 -0.9737
 5582TIP3    H140941   1.361   0.899   2.146  1.2015 -0.7319 -0.3196
 5582TIP3    H240942   1.366   0.969   2.012 -1.3293  2.1276  0.9611
 5583TIP3   OH240943   0.874   6.545   1.593 -0.1899  0.1468 -0.6565
 5583TIP3    H140944   0.953   6.594   1.613 -0.8917  1.7431 -1.6458
 5583TIP3    H240945   0.859   6.492   1.672  0.2520  2.0019  0.7539
 5584TIP3   OH240946   0.316   4.565   1.574  0.2521  0.0939  0.2761
 5584TIP3    H140947   0.316   4.520   1.658  1.2584  1.9288  1.3293
 5584TIP3    H240948   0.224   4.588   1.560 -0.0142 -0.7452  0.5668
 5585TIP3   OH240949   3.713   3.914   0.684 -0.6735  0.2838  0.6524
 5585TIP3    H140950   3.792   3.962   0.709  0.2324 -0.0262 -1.3601
 5585TIP3    H240951   3.660   3.978   0.637  0.4909 -0.5137 -1.9457
 5586TIP3   OH240952   6.431   2.726   2.829  0.9370  0.2138  0.2047
 5586TIP3    H140953   6.407   2.633   2.820 -0.4317  0.5084  0.5988
 5586TIP3    H240954   6.453   2.754   2.740 -1.8749  0.3279 -0.5398
 5587TIP3   OH240955   4.656   6.598   1.168 -0.3220  0.7443  0.2285
 5587TIP3    H140956   4.632   6.547   1.246 -0.9557  1.1686  0.3193
 5587TIP3    H240957   4.695   6.534   1.109 -0.1213  0.3545  0.7675
 5588TIP3   OH240958   3.031   3.659   1.535 -0.1241  0.2045  0.2634
 5588TIP3    H140959   2.998   3.698   1.616 -0.4655 -0.7553  0.6121
 5588TIP3    H240960   2.984   3.704   1.465  0.0656  0.9431  0.6027
 5589TIP3   OH240961   5.151   2.281   2.593 -0.3701 -0.2154  0.0329
 5589TIP3    H140962   5.070   2.329   2.576  0.9545  2.0567 -0.1993
 5589TIP3    H240963   5.150   2.210   2.529 -1.7405  0.3111 -0.5720
 5590TIP3   OH240964   6.975   7.563   2.100 -0.3371 -0.0862  0.1581
 5590TIP3    H140965   6.944   7.516   2.177 -0.3153 -0.1496  0.1287
 5590TIP3    H240966   6.915   7.637   2.091  0.2940  0.5207  0.8520
 5591TIP3   OH240967   0.285   2.225   2.007  0.0929 -0.0835 -0.2672
 5591TIP3    H140968   0.351   2.219   1.938 -0.1499  1.9564 -0.7221
 5591TIP3    H240969   0.335   2.234   2.088  0.3586 -1.4387 -0.2458
 5592TIP3   OH240970   5.674   3.261   1.053  0.6017 -0.4655  0.2276
 5592TIP3    H140971   5.693   3.223   0.968  1.7383 -0.1201  0.3186
 5592TIP3    H240972   5.696   3.192   1.116 -0.1037 -0.6708  0.2613
 5593TIP3   OH240973   2.946   3.816   1.320  0.1713 -0.3325  0.6006
 5593TIP3    H140974   2.962   3.905   1.349  1.2336  0.1475 -1.2789
 5593TIP3    H240975   2.981   3.813   1.231 -1.2878 -2.1651  0.0120
 5594TIP3   OH240976   6.946   4.593   3.259  0.5147  0.0579  0.7279
 5594TIP3    H140977   6.949   4.588   3.164 -1.4844  0.1056  0.6139
 5594TIP3    H240978   6.965   4.505   3.289  0.4783 -0.1139  0.2463
 5595TIP3   OH240979   5.260   1.043   0.867 -0.0678  0.0167 -0.4761
 5595TIP3    H140980   5.251   1.129   0.825  1.7108 -0.2395 -1.4871
 5595TIP3    H240981   5.253   0.980   0.796  1.0225 -0.5324 -0.1219
 5596TIP3   OH240982   0.684   4.682   0.529  0.0625 -0.2097 -0.2752
 5596TIP3    H140983   0.634   4.757   0.560  0.9348  0.1817  0.2063
 5596TIP3    H240984   0.651   4.667   0.440 -0.6773  0.2354 -0.0835
 5597TIP3   OH240985   0.871   7.090   1.253 -0.0530 -0.2205  0.1484
 5597TIP3    H140986   0.941   7.081   1.188  1.0030 -1.1170  1.3662
 5597TIP3    H240987   0.820   7.009   1.245  0.0809 -0.3332  0.4431
 5598TIP3   OH240988   0.448   2.976   0.737  0.9035  0.4073 -0.2572
 5598TIP3    H140989   0.453   3.055   0.684 -0.3225  2.1405  1.9939
 5598TIP3    H240990   0.386   2.919   0.692  0.0086  1.7483 -0.7578
 5599TIP3   OH240991   7.594   7.134   1.714  0.4841 -0.0946 -0.5964
 5599TIP3    H140992   7.510   7.102   1.745 -0.4904 -0.0565 -3.0061
 5599TIP3    H240993   7.611   7.085   1.634  1.1986  2.0902 -1.8737
 5600TIP3   OH240994   4.669   4.886   2.194 -0.5574  0.4225 -0.1162
 5600TIP3    H140995   4.641   4.846   2.111 -1.5873 -0.1395  0.4819
 5600TIP3    H240996   4.759   4.856   2.206 -1.0380 -1.0869 -0.0927
 5601TIP3   OH240997   5.094   4.173   2.428 -0.2119 -0.4048  0.7113
 5601TIP3    H140998   5.187   4.167   2.452 -0.1959 -1.8804  0.3852
 5601TIP3    H240999   5.047   4.150   2.508 -0.3756  1.3929  1.1948
 5602TIP3   OH241000   2.524   7.144   0.987 -0.6598 -0.6788 -0.5430
 5602TIP3    H141001   2.471   7.086   1.042 -1.3189 -1.0473 -1.5459
 5602TIP3    H241002   2.614   7.115   1.002 -0.9458 -1.6711 -0.6718
 5603TIP3   OH241003   3.957   1.461   2.380 -0.1522  0.4038 -0.7844
 5603TIP3    H141004   3.996   1.464   2.292 -0.0598 -3.3170 -1.0334
 5603TIP3    H241005   4.029   1.433   2.437 -1.1760 -1.6011 -0.3823
 5604TIP3   OH241006   1.622   2.741   1.101 -0.1598  0.4822 -0.9485
 5604TIP3    H141007   1.632   2.836   1.096  0.6087  0.4804  0.1653
 5604TIP3    H241008   1.711   2.707   1.101 -0.3766 -0.1331  0.2350
 5605TIP3   OH241009   0.581   0.464   1.446 -0.2362 -0.0857 -0.8316
 5605TIP3    H141010   0.508   0.495   1.499 -0.1494 -0.8444 -0.2490
 5605TIP3    H241011   0.630   0.543   1.424  0.0464  0.1861  0.7109
 5606TIP3   OH241012   1.167   7.504   3.374 -0.2421  0.4036 -0.3453
 5606TIP3    H141013   1.168   7.409   3.386 -0.9328  0.0172 -2.6502
 5606TIP3    H241014   1.255   7.533   3.397  0.8096 -1.2142 -2.0345
 5607TIP3   OH241015   5.315   1.091   2.565 -0.2344  0.0440  0.1270
 5607TIP3    H141016   5.403   1.063   2.590  0.1995 -0.0026 -1.3346
 5607TIP3    H241017   5.306   1.179   2.602  0.6966  0.3134 -0.2482
 5608TIP3   OH241018   0.770   2.362   1.521  0.5855  0.7485  0.5362
 5608TIP3    H141019   0.693   2.416   1.504  0.5946  0.5655 -0.1199
 5608TIP3    H241020   0.777   2.304   1.444  1.5227  0.9436  0.4534
 5609TIP3   OH241021   6.391   5.698   1.403  0.3359  0.3212  0.0293
 5609TIP3    H141022   6.400   5.674   1.495  0.4707 -0.2914 -0.1386
 5609TIP3    H241023   6.480   5.704   1.370  0.2886  0.5512 -0.0579
 5610TIP3   OH241024   6.911   3.215   2.294  0.1501  0.5233 -0.1710
 5610TIP3    H141025   7.006   3.227   2.292 -0.1810  4.4837 -1.1127
 5610TIP3    H241026   6.881   3.272   2.365 -1.5916  0.0054 -0.4304
 5611TIP3   OH241027   5.785   6.083   3.194 -0.4458  0.3911  0.5666
 5611TIP3    H141028   5.846   6.058   3.124  0.9446  1.7679  1.2444
 5611TIP3    H241029   5.710   6.023   3.182  0.7633 -0.9736 -0.6358
 5612TIP3   OH241030   2.778   2.865   2.773  0.0471 -0.4185  0.4318
 5612TIP3    H141031   2.781   2.950   2.729 -0.7361 -0.1853  0.8040
 5612TIP3    H241032   2.754   2.803   2.704  0.1632 -0.2685  0.2562
 5613TIP3   OH241033   6.653   4.222   1.922 -0.4107 -0.0103  0.2970
 5613TIP3    H141034   6.653   4.183   2.009 -0.1861 -0.4320  0.1101
 5613TIP3    H241035   6.586   4.175   1.873  1.2019 -1.5855 -0.5390
 5614TIP3   OH241036   4.116   3.089   1.449 -0.6820 -0.4692  0.0799
 5614TIP3    H141037   4.149   3.056   1.532  1.4310  1.2108 -0.0225
 5614TIP3    H241038   4.185   3.069   1.386 -1.2505  0.3287 -0.8226
 5615TIP3   OH241039   0.539   0.208   1.778  0.0740  0.2310  0.5276
 5615TIP3    H141040   0.521   0.187   1.687  1.3937 -2.3511  0.7725
 5615TIP3    H241041   0.463   0.175   1.826  0.8744 -1.6457  0.6172
 5616TIP3   OH241042   5.762   2.198   1.303  0.3514 -0.2793 -0.2930
 5616TIP3    H141043   5.768   2.119   1.250  0.0894  0.6161 -1.7274
 5616TIP3    H241044   5.837   2.251   1.276 -0.2788  0.5730 -0.4189
 5617TIP3   OH241045   0.703   4.050   1.259  0.0720 -0.4596 -0.0394
 5617TIP3    H141046   0.668   4.138   1.249 -0.6978 -0.8287 -0.6769
 5617TIP3    H241047   0.789   4.053   1.218  0.5044  0.2638  0.8837
 5618TIP3   OH241048   0.278   6.970   1.594  0.5018 -0.3780  0.0648
 5618TIP3    H141049   0.300   7.060   1.568  1.4312 -0.7809 -0.5915
 5618TIP3    H241050   0.346   6.945   1.656 -0.9361  0.0819  1.8970
 5619TIP3   OH241051   7.647   6.345   1.963 -0.2209  0.1430  0.4306
 5619TIP3    H141052   7.734   6.345   2.003  0.2264  1.5857 -0.4860
 5619TIP3    H241053   7.647   6.269   1.906 -0.2368 -0.9196  1.7893
 5620TIP3   OH241054   7.207   4.617   1.484 -0.0430 -0.8765  0.3458
 5620TIP3    H141055   7.133   4.581   1.435 -2.1454  0.6167  2.1735
 5620TIP3    H241056   7.250   4.676   1.422 -2.5412  0.8578  0.0687
 5621TIP3   OH241057   2.982   6.403   1.128  0.0135  0.3388  0.1355
 5621TIP3    H141058   3.035   6.369   1.056  0.6739  0.8137  0.3898
 5621TIP3    H241059   2.923   6.331   1.150 -0.0066  0.0940 -0.6926
 5622TIP3   OH241060   1.642   2.733   2.967  0.5279 -0.2445  0.3297
 5622TIP3    H141061   1.604   2.721   2.880  0.0282  1.8153  0.2097
 5622TIP3    H241062   1.604   2.662   3.019  0.6226 -1.3423 -1.0416
 5623TIP3   OH241063   0.034   6.982   0.385  0.1148  0.4063 -0.2550
 5623TIP3    H141064   0.004   6.893   0.370 -1.2229  0.7307  0.3207
 5623TIP3    H241065  -0.039   7.024   0.432  1.6729  1.1045  1.6550
 5624TIP3   OH241066   7.118   3.524   2.255 -0.3005 -0.1690 -0.1574
 5624TIP3    H141067   7.116   3.460   2.184  0.9586 -0.2372 -0.1614
 5624TIP3    H241068   7.135   3.472   2.334  4.1377  0.3024 -0.5467
 5625TIP3   OH241069   4.280   6.914   1.419  0.1445  0.1761 -0.1986
 5625TIP3    H141070   4.353   6.858   1.393 -0.1183  0.0258 -0.6211
 5625TIP3    H241071   4.205   6.855   1.425 -0.6127  0.7663 -2.6766
 5626TIP3   OH241072   1.634   3.828   0.694 -0.7360  0.1961 -0.2068
 5626TIP3    H141073   1.670   3.841   0.781  2.0654 -1.3640 -1.0106
 5626TIP3    H241074   1.636   3.915   0.654  0.4660  0.4755  0.4159
 5627TIP3   OH241075   3.381   0.473   1.228  0.1032 -0.2503  0.3085
 5627TIP3    H141076   3.430   0.556   1.233  2.1674 -1.1594 -2.4638
 5627TIP3    H241077   3.446   0.406   1.250 -1.5231 -1.2508  2.4770
 5628TIP3   OH241078   7.153   6.502   2.356  0.0477  0.4227  0.4134
 5628TIP3    H141079   7.109   6.425   2.320  1.6064 -1.1992  1.7840
 5628TIP3    H241080   7.110   6.517   2.440 -1.2582  2.0433 -0.4924
 5629TIP3   OH241081   3.495   1.018   2.456  0.1946 -0.1286  0.4228
 5629TIP3    H141082   3.505   1.071   2.535 -2.3353  0.7576  0.2359
 5629TIP3    H241083   3.571   0.959   2.456  0.4652  0.1253  3.2687
 5630TIP3   OH241084   0.228   6.280   2.076 -0.1141  0.0305 -0.0500
 5630TIP3    H141085   0.252   6.354   2.132  0.2033 -0.8139  0.9737
 5630TIP3    H241086   0.294   6.214   2.095 -0.3025 -0.4747 -1.0646
 5631TIP3   OH241087   1.388   3.142   2.666 -0.3051  0.4083 -0.2093
 5631TIP3    H141088   1.381   3.187   2.750  0.3266  0.3592 -0.1289
 5631TIP3    H241089   1.356   3.053   2.684  1.8396 -0.2689  0.5258
 5632TIP3   OH241090   0.284   0.163   1.868  0.1744  0.1704  0.4960
 5632TIP3    H141091   0.254   0.077   1.841 -1.8012  0.9733 -0.0658
 5632TIP3    H241092   0.301   0.155   1.962  1.3516 -1.1415  0.1991
 5633TIP3   OH241093   5.863   2.841   1.144  0.1077 -0.1434  0.5179
 5633TIP3    H141094   5.871   2.755   1.104  1.5135 -0.0762  0.6170
 5633TIP3    H241095   5.785   2.834   1.200 -1.8939 -0.2522 -2.0555
 5634TIP3   OH241096   1.778   3.843   2.300  0.6632  0.7975 -0.7906
 5634TIP3    H141097   1.852   3.847   2.239  0.8245  0.8304 -0.5936
 5634TIP3    H241098   1.707   3.803   2.249  0.4892  1.7310 -1.3089
 5635TIP3   OH241099   3.892   4.646   1.865  0.1000  0.4944 -0.0162
 5635TIP3    H141100   3.902   4.735   1.899 -0.6571 -0.5753  3.4186
 5635TIP3    H241101   3.797   4.635   1.859  0.1703 -0.3190  0.3373
 5636TIP3   OH241102   0.332   7.637   2.525  0.3428 -0.3817 -0.8445
 5636TIP3    H141103   0.367   7.598   2.606 -1.3747  0.4921  0.3935
 5636TIP3    H241104   0.394   7.706   2.503  1.1063 -0.9713 -0.5800
 5637TIP3   OH241105   0.321   6.502   2.228  0.3303  0.8261 -0.1514
 5637TIP3    H141106   0.297   6.576   2.172 -0.8613  0.5876  0.0230
 5637TIP3    H241107   0.412   6.519   2.252  0.1450  2.1225 -0.2919
 5638TIP3   OH241108   4.152   2.962   0.579  0.9690 -0.5480  0.1023
 5638TIP3    H141109   4.214   2.992   0.646  1.7642  0.3115 -0.9945
 5638TIP3    H241110   4.158   3.027   0.509 -1.8903  0.0877  0.3337
 5639TIP3   OH241111   4.441   4.218   1.736 -0.2415 -0.3031 -0.0021
 5639TIP3    H141112   4.533   4.228   1.762 -0.1995 -1.0946  0.1587
 5639TIP3    H241113   4.394   4.209   1.819 -0.2915 -1.2682 -0.1221
 5640TIP3   OH241114   3.647   4.236   1.631  0.0402  0.4645  0.3541
 5640TIP3    H141115   3.727   4.245   1.682 -0.1562  0.9741  0.5777
 5640TIP3    H241116   3.606   4.157   1.665  0.2871  0.3794  0.4580
 5641TIP3   OH241117   6.404   4.924   1.077  0.3174  0.0730 -0.2788
 5641TIP3    H141118   6.315   4.935   1.042  0.4855 -0.3684 -0.8730
 5641TIP3    H241119   6.459   4.917   0.999  0.8757  0.3408  0.0874
 5642TIP3   OH241120   5.023   5.782   2.706  0.3744 -0.6445 -0.0387
 5642TIP3    H141121   5.058   5.857   2.658  0.8446 -0.8856 -0.0800
 5642TIP3    H241122   4.980   5.820   2.783  0.9626 -0.3588  0.1568
 5643TIP3   OH241123   3.540   3.465   2.309  0.1079 -0.1813 -0.3473
 5643TIP3    H141124   3.511   3.487   2.397  0.5701  1.6373 -0.6195
 5643TIP3    H241125   3.475   3.505   2.251  1.2564  0.9862 -0.8780
 5644TIP3   OH241126   5.899   3.094   2.235  0.0062  0.2219  0.2695
 5644TIP3    H141127   5.882   3.056   2.321 -1.3152  1.2546  0.5078
 5644TIP3    H241128   5.838   3.050   2.176 -0.1478  0.5723  0.1626
 5645TIP3   OH241129   5.179   1.611   2.726  0.0828  0.3678  0.3323
 5645TIP3    H141130   5.267   1.610   2.763  0.7003 -2.0197 -0.9641
 5645TIP3    H241131   5.121   1.600   2.801  0.8360  2.0959  1.2113
 5646TIP3   OH241132   1.977   5.951   2.079 -0.3050  0.3052  0.2140
 5646TIP3    H141133   1.899   6.005   2.074 -1.3448 -1.2323 -1.0136
 5646TIP3    H241134   1.952   5.868   2.039  1.8983 -0.3076 -0.0391
 5647TIP3   OH241135   0.813   4.672   1.920  0.1868  0.4703  0.2608
 5647TIP3    H141136   0.838   4.756   1.881 -1.3619  0.8559  0.0531
 5647TIP3    H241137   0.889   4.616   1.905  0.8433  1.5213 -0.5200
 5648TIP3   OH241138   4.459   0.882   2.604 -0.4460 -0.2447  0.2127
 5648TIP3    H141139   4.471   0.894   2.510  0.3153  1.8856  0.5367
 5648TIP3    H241140   4.449   0.970   2.639 -0.6694 -0.9867  2.1558
 5649TIP3   OH241141   4.332   3.041   2.818 -0.1091 -0.0221 -0.6898
 5649TIP3    H141142   4.377   2.958   2.834 -0.0067  0.3572  1.1467
 5649TIP3    H241143   4.338   3.053   2.723  0.7834 -1.5877 -0.8699
 5650TIP3   OH241144   0.837   3.873   2.863 -0.3506  0.0751 -0.0854
 5650TIP3    H141145   0.747   3.848   2.846 -1.0218  2.8542 -1.2533
 5650TIP3    H241146   0.837   3.905   2.953 -0.3790 -0.5079  0.1218
 5651TIP3   OH241147   6.694   4.051   3.537  0.4581  0.3091  0.0207
 5651TIP3    H141148   6.788   4.041   3.519  0.7230  1.4641  0.7128
 5651TIP3    H241149   6.675   4.143   3.521 -0.5618  0.0981 -0.0749
 5652TIP3   OH241150   6.904   5.141   3.540  0.0193 -0.0849  0.8466
 5652TIP3    H141151   6.957   5.062   3.556  0.0470 -0.2057  0.1652
 5652TIP3    H241152   6.891   5.178   3.628  1.8496  0.3438  0.9859
 5653TIP3   OH241153   0.111   7.167   2.430 -0.1451  0.1110 -0.3772
 5653TIP3    H141154   0.031   7.114   2.432  0.5019 -0.8904  0.3876
 5653TIP3    H241155   0.153   7.143   2.347  1.8916 -3.4317  1.3982
 5654TIP3   OH241156   4.280   0.725   2.746 -0.2862  0.1361  0.1008
 5654TIP3    H141157   4.255   0.766   2.829  0.7527  2.3222 -0.6001
 5654TIP3    H241158   4.348   0.782   2.711  1.0050 -2.0356 -1.1463
 5655TIP3   OH241159   6.543   5.676   2.751 -0.2661 -0.2222  0.0578
 5655TIP3    H141160   6.449   5.673   2.769 -0.2119  1.6168  0.8773
 5655TIP3    H241161   6.584   5.673   2.837  0.4043 -0.3854 -0.2616
 5656TIP3   OH241162   4.689   1.034   0.791  0.2338  0.1299  0.0921
 5656TIP3    H141163   4.727   0.964   0.738 -0.5089 -0.7964  0.7485
 5656TIP3    H241164   4.760   1.096   0.803  1.0662 -0.7681 -0.0636
 5657TIP3   OH241165   2.579   0.032   3.276 -0.2111 -0.3092 -0.0879
 5657TIP3    H141166   2.590  -0.045   3.220 -1.8658 -0.6004 -0.0777
 5657TIP3    H241167   2.494   0.068   3.250 -0.2458  0.5095  1.0949
 5658TIP3   OH241168   7.542   5.636   1.256  0.7107 -0.5023 -0.0322
 5658TIP3    H141169   7.447   5.644   1.248  0.7287  1.1895  0.9238
 5658TIP3    H241170   7.577   5.675   1.176  0.6096  0.1543  0.2388
 5659TIP3   OH241171   1.904   6.662   2.548  0.2288  0.1139 -0.0472
 5659TIP3    H141172   1.889   6.571   2.573  1.6079 -0.2076 -0.3284
 5659TIP3    H241173   1.896   6.711   2.629  0.8747 -0.4420  0.3623
 5660TIP3   OH241174   6.579   4.019   3.141  0.0334  0.6844  0.1436
 5660TIP3    H141175   6.571   3.929   3.109  0.9147 -0.1281  2.0498
 5660TIP3    H241176   6.548   4.014   3.231  0.7622  2.1530  0.4900
 5661TIP3   OH241177   4.253   4.535   1.608 -0.2071 -0.0548 -0.1053
 5661TIP3    H141178   4.272   4.456   1.658 -1.2307 -0.0945  0.2598
 5661TIP3    H241179   4.334   4.586   1.610  0.2439 -0.7727  0.2509
 5662TIP3   OH241180   7.078   2.049   0.726 -0.2027  0.1609  0.3023
 5662TIP3    H141181   7.080   2.032   0.820 -0.8292 -2.2150 -0.0525
 5662TIP3    H241182   6.987   2.032   0.700 -0.8478  3.7987 -0.3090
 5663TIP3   OH241183   1.438   7.614   1.966 -0.0017 -0.3723  0.7434
 5663TIP3    H141184   1.492   7.689   1.992 -1.0088  0.0134  1.8148
 5663TIP3    H241185   1.353   7.630   2.008 -1.6062 -0.0014 -2.3836
 5664TIP3   OH241186   2.603   2.508   2.989  0.3095 -0.1377 -0.2425
 5664TIP3    H141187   2.674   2.447   3.010  0.2290 -0.9519 -2.2074
 5664TIP3    H241188   2.644   2.594   2.996  1.2806 -0.5623 -0.5547
 5665TIP3   OH241189   6.370   5.306   2.068  1.0788  0.1962 -0.3678
 5665TIP3    H141190   6.328   5.287   1.984  2.3988 -0.4598 -0.9215
 5665TIP3    H241191   6.449   5.355   2.044  0.1839  2.2656  0.7034
 5666TIP3   OH241192   4.290   3.018   1.216 -0.1619 -0.1529  0.0271
 5666TIP3    H141193   4.240   3.092   1.180 -0.5265 -0.7655 -0.7820
 5666TIP3    H241194   4.285   2.951   1.147  0.5610 -0.7528  0.5478
 5667TIP3   OH241195   1.662   2.017   1.448 -0.4061  0.7108  0.4752
 5667TIP3    H141196   1.571   2.003   1.422 -0.9524  0.3557  2.4365
 5667TIP3    H241197   1.708   1.940   1.415 -0.4640  1.5851 -1.8494
 5668TIP3   OH241198   0.254   0.863   2.539 -0.6480  0.5901  0.2160
 5668TIP3    H141199   0.228   0.854   2.447 -1.1124  0.6455  0.3403
 5668TIP3    H241200   0.349   0.879   2.536 -0.6273  0.3875 -0.2413
 5669TIP3   OH241201   3.891   2.576   0.727 -0.4357  0.0027  0.2324
 5669TIP3    H141202   3.961   2.530   0.679 -1.8551 -0.6516 -1.3176
 5669TIP3    H241203   3.881   2.659   0.681 -0.3992  0.2659  0.7016
 5670TIP3   OH241204   7.160   3.218   2.669  0.5976  0.0526 -0.2225
 5670TIP3    H141205   7.250   3.246   2.687  1.2403 -0.8518 -1.7836
 5670TIP3    H241206   7.169   3.126   2.644 -0.7301  0.0454 -0.7064
 5671TIP3   OH241207   0.368   0.402   2.307  0.1816  0.4403 -0.1113
 5671TIP3    H141208   0.392   0.359   2.389  1.3073  2.1803  0.5369
 5671TIP3    H241209   0.431   0.474   2.299 -0.9109  1.2763 -1.6824
 5672TIP3   OH241210   0.335   0.993   2.269 -0.0136 -0.2766 -0.6240
 5672TIP3    H141211   0.362   0.902   2.281  2.2747  0.5216  0.9835
 5672TIP3    H241212   0.369   1.018   2.183  2.1355 -0.0894  0.2381
 5673TIP3   OH241213   0.321   1.754   1.888  0.1372  0.1041  0.3571
 5673TIP3    H141214   0.374   1.681   1.857 -0.7854 -0.2236 -0.5069
 5673TIP3    H241215   0.231   1.723   1.880 -0.2826  1.4292 -0.2962
 5674TIP3   OH241216   3.723   4.168   2.621  0.5745 -0.1188  0.2892
 5674TIP3    H141217   3.717   4.263   2.635  1.6071  0.3365 -1.8392
 5674TIP3    H241218   3.738   4.131   2.708 -1.7259  1.4478  1.4422
 5675TIP3   OH241219   6.331   1.037   1.956 -0.0052 -0.5306 -0.3537
 5675TIP3    H141220   6.330   1.085   2.038  0.5679 -1.5707  0.2830
 5675TIP3    H241221   6.318   1.104   1.889 -3.4707  0.0376  0.6850
 5676TIP3   OH241222   0.176   6.350   2.404 -0.0590 -0.9388  0.3053
 5676TIP3    H141223   0.215   6.415   2.345  2.4424 -1.0798  1.6797
 5676TIP3    H241224   0.172   6.394   2.489  0.3140 -2.0807  0.9314
 5677TIP3   OH241225   5.932   1.235   2.842  0.3586 -0.1209 -0.0016
 5677TIP3    H141226   5.968   1.321   2.862  1.1881 -0.3833 -0.3225
 5677TIP3    H241227   5.977   1.208   2.762 -1.8059  0.2851 -1.4772
 5678TIP3   OH241228   6.888   0.482   1.923 -0.4159  0.7463  0.4062
 5678TIP3    H141229   6.894   0.568   1.882  0.9286 -0.1111 -1.3205
 5678TIP3    H241230   6.813   0.440   1.880  0.2143  0.3136 -0.2976
 5679TIP3   OH241231   2.000   4.835   1.981  0.2414  0.6203 -0.3486
 5679TIP3    H141232   1.953   4.883   1.913 -0.6771  0.5036  0.1920
 5679TIP3    H241233   1.944   4.842   2.059  1.2358  0.6827  0.3747
 5680TIP3   OH241234   4.480   0.526   0.657 -0.5094 -0.0376  0.2334
 5680TIP3    H141235   4.486   0.604   0.601 -0.9550  1.1360  1.7473
 5680TIP3    H241236   4.386   0.518   0.676 -0.5329 -1.2556 -0.2778
 5681TIP3   OH241237   2.517   6.072   1.007  0.1889  0.0492  0.3472
 5681TIP3    H141238   2.548   6.132   0.939  1.4510  0.0814  0.9378
 5681TIP3    H241239   2.453   6.123   1.057  0.3756  0.5128  0.1171
 5682TIP3   OH241240   5.953   2.400   1.255 -0.0234  0.1009 -0.1398
 5682TIP3    H141241   5.963   2.423   1.163  1.9228  0.2973  0.0722
 5682TIP3    H241242   6.042   2.406   1.291 -0.4544 -1.5935  1.3721
 5683TIP3   OH241243   4.127   7.428   3.035 -0.4007 -0.5680 -0.6517
 5683TIP3    H141244   4.077   7.349   3.053 -1.7688  0.3478 -0.2869
 5683TIP3    H241245   4.070   7.481   2.979  0.4688  0.1789 -0.8600
 5684TIP3   OH241246   6.151   3.792   1.471  0.4574 -0.3561 -0.5299
 5684TIP3    H141247   6.110   3.762   1.390 -0.1799  1.6040 -0.9908
 5684TIP3    H241248   6.215   3.857   1.442  0.1063  0.4895  0.5376
 5685TIP3   OH241249   2.053   3.284   2.601 -0.0867  0.5146  0.4120
 5685TIP3    H141250   1.965   3.279   2.638 -0.6404 -0.5733 -0.9723
 5685TIP3    H241251   2.107   3.230   2.660 -0.6447 -0.0205  0.4413
 5686TIP3   OH241252   3.924   3.133   0.984  0.1844  0.2842 -0.3958
 5686TIP3    H141253   3.961   3.045   0.979  0.8480  0.4162  1.3964
 5686TIP3    H241254   3.966   3.182   0.913  1.4101 -0.2987 -0.0839
 5687TIP3   OH241255   0.986   4.854   1.314  0.0949 -0.7598 -0.3446
 5687TIP3    H141256   0.936   4.811   1.384  0.5662 -0.3490  0.2544
 5687TIP3    H241257   0.919   4.883   1.251 -0.3439 -1.0384 -0.0149
 5688TIP3   OH241258   3.535   1.399   1.032 -0.2265 -0.5191  0.2419
 5688TIP3    H141259   3.496   1.312   1.025 -0.9209 -0.2435  0.6662
 5688TIP3    H241260   3.464   1.455   1.062  0.4916 -0.0182  1.0627
 5689TIP3   OH241261   1.209   6.622   0.444 -0.2559 -0.1727 -0.1977
 5689TIP3    H141262   1.259   6.645   0.366  0.4462 -1.2639 -0.0928
 5689TIP3    H241263   1.255   6.547   0.481 -1.1358 -0.2819  0.7327
 5690TIP3   OH241264   5.351   2.331   2.760 -0.0520  0.0558 -0.2205
 5690TIP3    H141265   5.282   2.311   2.698  0.7667 -1.6722 -0.6223
 5690TIP3    H241266   5.339   2.268   2.831  0.4895  0.4287  0.2142
 5691TIP3   OH241267   2.512   5.597   2.510 -0.0020  0.1004 -0.2036
 5691TIP3    H141268   2.444   5.540   2.474  2.2221 -1.4824 -2.2308
 5691TIP3    H241269   2.513   5.673   2.452  0.5959 -0.3641 -0.8227
 5692TIP3   OH241270   4.781   7.265   0.882 -0.8001  0.2600 -0.0288
 5692TIP3    H141271   4.841   7.337   0.861 -0.6968  0.0407 -0.4987
 5692TIP3    H241272   4.694   7.304   0.875 -0.7430  0.3521 -0.2240
 5693TIP3   OH241273   2.990   0.477   2.330  0.2614  0.5060  0.1983
 5693TIP3    H141274   2.925   0.512   2.270  0.6927  1.6085  0.3431
 5693TIP3    H241275   3.006   0.387   2.300 -0.7626  0.4791 -0.2826
 5694TIP3   OH241276   2.100   5.513   1.041 -1.2748 -0.3203 -0.8866
 5694TIP3    H141277   2.179   5.515   0.987 -0.9750  0.7608 -0.4415
 5694TIP3    H241278   2.102   5.596   1.089 -1.1035 -1.5702  1.4082
 5695TIP3   OH241279   6.628   6.779   3.024 -0.2856 -0.0192  0.2721
 5695TIP3    H141280   6.665   6.776   2.936 -0.1478 -1.4701  0.3509
 5695TIP3    H241281   6.581   6.862   3.028  0.7235  0.6301 -0.7461
 5696TIP3   OH241282   4.964   6.098   1.081  0.8290  0.1341 -0.4783
 5696TIP3    H141283   4.994   6.180   1.121  1.5717  0.1650 -1.0663
 5696TIP3    H241284   4.893   6.125   1.023  0.4608  0.2341  0.0175
 5697TIP3   OH241285   6.758   1.316   1.831 -0.0653  0.2747 -0.3724
 5697TIP3    H141286   6.806   1.299   1.912 -0.0983 -1.9345 -0.7537
 5697TIP3    H241287   6.809   1.385   1.788  0.5859  0.6825  0.9823
 5698TIP3   OH241288   4.593   6.263   0.353  0.0171  0.0285 -0.1383
 5698TIP3    H141289   4.644   6.312   0.417  0.0260 -1.3562  0.9613
 5698TIP3    H241290   4.504   6.297   0.363  0.1639  0.3613  0.0602
 5699TIP3   OH241291   0.549   3.826   1.255  0.5943 -0.4155  0.2280
 5699TIP3    H141292   0.622   3.888   1.252 -0.5931  1.0351  0.3278
 5699TIP3    H241293   0.554   3.789   1.344  2.0708 -1.4556 -0.2561
 5700TIP3   OH241294   7.274   7.030   2.534  0.1052  0.0906 -0.3493
 5700TIP3    H141295   7.201   6.968   2.529 -0.7867  1.2131 -1.9860
 5700TIP3    H241296   7.245   7.097   2.596  0.8316 -0.7371  0.9570
 5701TIP3   OH241297   6.494   2.891   0.877  0.7253 -0.0863 -0.3294
 5701TIP3    H141298   6.500   2.861   0.967  0.3881  0.2270 -0.2029
 5701TIP3    H241299   6.452   2.977   0.882  0.6354 -0.0991 -0.7878
 5702TIP3   OH241300   6.257   7.111   2.258  0.4850  0.0094 -0.2504
 5702TIP3    H141301   6.336   7.101   2.311 -0.4763 -1.5931  0.9931
 5702TIP3    H241302   6.224   7.022   2.247 -1.4949  0.6780 -0.1632
 5703TIP3   OH241303   7.324   2.340   3.749 -0.0523 -0.0980  0.4029
 5703TIP3    H141304   7.306   2.318   3.657 -0.0447  0.4822  0.2553
 5703TIP3    H241305   7.369   2.424   3.744  0.7362 -0.4831  0.8929
 5704TIP3   OH241306   7.398   1.688   3.419 -0.7628 -0.4500 -0.2246
 5704TIP3    H141307   7.410   1.727   3.506  1.0185 -0.9106 -0.2330
 5704TIP3    H241308   7.307   1.707   3.397 -1.2961 -0.4402  1.7987
 5705TIP3   OH241309   3.770   3.185   1.224 -0.4725  0.0430  0.5794
 5705TIP3    H141310   3.803   3.130   1.153  0.1191  2.0354 -0.7807
 5705TIP3    H241311   3.840   3.186   1.289 -0.3735 -0.5696  0.4864
 5706TIP3   OH241312   4.261   2.488   2.165 -0.3161  0.3801  0.3796
 5706TIP3    H141313   4.282   2.489   2.258 -1.5239 -1.3306  0.7137
 5706TIP3    H241314   4.278   2.398   2.137 -0.0332  0.8539 -1.0481
 5707TIP3   OH241315   5.848   6.885   0.499 -0.1847  0.3655 -0.4879
 5707TIP3    H141316   5.775   6.933   0.539 -0.0355 -0.4176  0.7924
 5707TIP3    H241317   5.882   6.944   0.433 -0.8685  1.4653  0.1025
 5708TIP3   OH241318   0.314   7.491   1.249  0.0090 -0.1266  1.0919
 5708TIP3    H141319   0.390   7.546   1.232 -1.0743  1.0478 -0.3021
 5708TIP3    H241320   0.285   7.463   1.163 -2.2695  1.1350  1.3582
 5709TIP3   OH241321   0.452   6.127   2.137 -0.8252  0.7060  0.3585
 5709TIP3    H141322   0.502   6.047   2.148  1.2664  1.7564 -0.8391
 5709TIP3    H241323   0.423   6.150   2.225  1.1557  0.2248  1.1904
 5710TIP3   OH241324   1.135   6.676   1.661 -0.1279 -0.0085  0.4109
 5710TIP3    H141325   1.216   6.661   1.613 -0.9842 -0.1083 -1.0527
 5710TIP3    H241326   1.123   6.771   1.659  1.3060  0.3312  3.0068
 5711TIP3   OH241327   3.051   3.739   3.332  0.0754 -0.0159  0.0475
 5711TIP3    H141328   3.016   3.826   3.348  0.6925 -0.2157  2.9961
 5711TIP3    H241329   2.987   3.679   3.370  1.7422 -0.5449  2.2526
 5712TIP3   OH241330   7.104   5.577   3.296  0.3801  0.0364 -0.5492
 5712TIP3    H141331   7.174   5.521   3.262  1.6630  0.9687  0.4538
 5712TIP3    H241332   7.115   5.660   3.249  0.0641  0.2415 -0.2634
 5713TIP3   OH241333   5.554   5.558   1.101 -0.2723 -0.0771  0.5212
 5713TIP3    H141334   5.568   5.469   1.068 -1.1616 -0.3685  0.9185
 5713TIP3    H241335   5.642   5.595   1.106 -0.0460 -0.1151 -1.8557
 5714TIP3   OH241336   1.016   1.644   1.744 -0.3979 -0.2280 -0.1436
 5714TIP3    H141337   0.981   1.714   1.799  0.2952  0.1079 -0.1202
 5714TIP3    H241338   1.033   1.687   1.659  1.9491  0.1836  0.4506
 5715TIP3   OH241339   6.631   1.633   1.773 -0.7731  0.2030 -0.4459
 5715TIP3    H141340   6.568   1.598   1.836 -0.5317 -1.1843 -0.9416
 5715TIP3    H241341   6.587   1.709   1.735 -0.9385  1.0374  1.3353
 5716TIP3   OH241342   7.552   6.727   3.467  0.4208 -0.5289 -0.4713
 5716TIP3    H141343   7.460   6.706   3.482  0.0163  1.1896 -0.3741
 5716TIP3    H241344   7.568   6.699   3.377 -0.8014  0.9665 -1.2125
 5717TIP3   OH241345   2.316   6.139   1.676 -0.2444 -0.1733 -0.0440
 5717TIP3    H141346   2.253   6.071   1.698 -0.0491 -0.9964 -1.8403
 5717TIP3    H241347   2.400   6.104   1.702 -0.3440  0.2567  0.8915
 5718TIP3   OH241348   7.655   7.635   1.591 -1.1165 -0.1302  0.0047
 5718TIP3    H141349   7.667   7.621   1.497  0.9572  0.0391  0.1923
 5718TIP3    H241350   7.706   7.566   1.633 -0.3831  0.9452  0.9781
 5719TIP3   OH241351   5.907   0.114   0.934  0.4002  0.0825 -0.4377
 5719TIP3    H141352   5.868   0.088   1.018 -0.4170 -0.5369 -0.9990
 5719TIP3    H241353   5.901   0.209   0.934  0.6977  0.1141  0.3427
 5720TIP3   OH241354   5.491   0.799   2.366  0.3677 -0.1140 -0.1351
 5720TIP3    H141355   5.579   0.808   2.404 -0.0999 -0.9435  1.2126
 5720TIP3    H241356   5.504   0.814   2.272  2.2652 -1.9675 -0.2571
 5721TIP3   OH241357   2.475   1.424   1.965 -0.2606  0.3722  0.0521
 5721TIP3    H141358   2.429   1.495   1.922 -1.8141 -0.7798 -0.2622
 5721TIP3    H241359   2.424   1.406   2.044 -0.9491 -1.5064 -0.7455
 5722TIP3   OH241360   3.583   6.577   0.914 -0.1194 -0.0263 -0.6733
 5722TIP3    H141361   3.665   6.616   0.886  0.6913 -2.0841 -1.3929
 5722TIP3    H241362   3.607   6.519   0.986 -1.5766  2.1625  1.7379
 5723TIP3   OH241363   6.849   1.616   2.118  0.5456  0.0848 -0.4015
 5723TIP3    H141364   6.781   1.673   2.082 -0.1656 -0.3916  0.1466
 5723TIP3    H241365   6.851   1.637   2.212 -1.4829 -2.4330  0.3361
 5724TIP3   OH241366   2.281   6.313   2.143 -0.2203 -0.4580 -0.4209
 5724TIP3    H141367   2.211   6.368   2.108 -0.1114 -0.3480 -0.4664
 5724TIP3    H241368   2.354   6.328   2.084  0.1627  0.1992  0.2035
 5725TIP3   OH241369   3.478   2.998   2.551  0.1864  0.2566 -0.0626
 5725TIP3    H141370   3.477   3.094   2.553  0.4593  0.2855 -0.9654
 5725TIP3    H241371   3.406   2.974   2.493 -1.2139 -0.1756  1.7389
 5726TIP3   OH241372   0.301   5.741   1.310  0.3012  0.3137 -0.3210
 5726TIP3    H141373   0.371   5.793   1.271  0.5863  1.0631  1.1079
 5726TIP3    H241374   0.225   5.798   1.309  0.2302  0.2235 -0.0966
 5727TIP3   OH241375   2.493   1.532   1.535 -0.3732 -0.3641  0.0878
 5727TIP3    H141376   2.502   1.452   1.484 -2.4630  0.8196 -2.4400
 5727TIP3    H241377   2.436   1.509   1.608 -0.6061 -1.2848 -0.3786
 5728TIP3   OH241378   0.644   4.006   1.523  0.5615 -0.0668  0.1116
 5728TIP3    H141379   0.641   4.060   1.444  0.7799 -0.2652 -0.0371
 5728TIP3    H241380   0.582   3.935   1.506  0.4894 -0.0217  0.1860
 5729TIP3   OH241381   2.191   7.323   1.156 -0.5249 -0.4318  0.0450
 5729TIP3    H141382   2.283   7.298   1.148 -0.2099 -0.1046  1.9936
 5729TIP3    H241383   2.180   7.397   1.097  0.1156 -1.2884 -1.1794
 5730TIP3   OH241384   0.817   0.807   1.466 -0.2169 -0.0357  0.3467
 5730TIP3    H141385   0.859   0.892   1.458 -0.1906 -0.2379 -3.6498
 5730TIP3    H241386   0.889   0.744   1.472  0.0039 -0.0342 -1.6256
 5731TIP3   OH241387   0.519   2.893   2.228  0.4192 -0.2524  0.9729
 5731TIP3    H141388   0.482   2.978   2.203  0.4129 -0.3350  0.6990
 5731TIP3    H241389   0.614   2.906   2.225  0.4309  0.1759  2.4086
 5732TIP3   OH241390   4.155   5.291   1.531 -0.5962  0.5743  0.3442
 5732TIP3    H141391   4.217   5.226   1.564  0.4366  1.2791 -0.1362
 5732TIP3    H241392   4.209   5.368   1.512 -1.7070  1.3951  0.4090
 5733TIP3   OH241393   7.642   4.946   2.504  0.2514  0.0296 -0.3089
 5733TIP3    H141394   7.728   4.909   2.527 -0.0894 -0.2974  0.4722
 5733TIP3    H241395   7.662   5.034   2.473  0.9972 -0.4952 -1.4174
 5734TIP3   OH241396   3.934   6.441   1.755 -0.4552 -0.5800  0.0608
 5734TIP3    H141397   3.869   6.392   1.804 -1.1675 -0.9240 -1.1942
 5734TIP3    H241398   3.937   6.527   1.798  0.1482 -1.3880  1.7081
 5735TIP3   OH241399   2.429   4.756   1.826 -0.5268  0.2591 -0.0996
 5735TIP3    H141400   2.361   4.693   1.804 -0.3783 -0.1776  0.6582
 5735TIP3    H241401   2.393   4.807   1.898  0.0997 -0.2611  0.5988
 5736TIP3   OH241402   1.767   5.936   1.147 -0.4419 -0.0922  0.1213
 5736TIP3    H141403   1.756   6.005   1.213  0.0105 -1.3840  1.6103
 5736TIP3    H241404   1.841   5.966   1.094  0.4567  0.0877  1.4158
 5737TIP3   OH241405   1.849   1.809   1.312  0.0562  0.9482  0.1642
 5737TIP3    H141406   1.760   1.773   1.308 -0.0564  0.9310  2.0119
 5737TIP3    H241407   1.891   1.778   1.232 -1.3018  0.1518 -0.2727
 5738TIP3   OH241408   1.264   1.060   1.865  0.4555 -0.3097  0.0658
 5738TIP3    H141409   1.242   0.986   1.809 -0.2030 -1.2657  1.5454
 5738TIP3    H241410   1.179   1.097   1.890  0.7239 -0.2004  0.8304
 5739TIP3   OH241411   5.619   6.508   1.650 -0.0643 -0.3344  0.0117
 5739TIP3    H141412   5.689   6.546   1.598  1.5374 -2.7636  0.2836
 5739TIP3    H241413   5.612   6.566   1.726  1.1238  0.3449 -0.3815
 5740TIP3   OH241414   5.136   7.077   2.693 -0.5625 -0.1065  0.1708
 5740TIP3    H141415   5.115   6.988   2.718 -3.0823  0.0940 -0.9070
 5740TIP3    H241416   5.136   7.076   2.597  2.1066  0.5261  0.0835
 5741TIP3   OH241417   1.593   6.493   1.408 -0.5055  0.1748  0.5655
 5741TIP3    H141418   1.584   6.419   1.348  1.0008  0.5295 -0.1382
 5741TIP3    H241419   1.504   6.511   1.437 -1.0735 -0.9900 -0.3713
 5742TIP3   OH241420   0.489   1.843   3.068  0.7568  0.2846 -0.3595
 5742TIP3    H141421   0.564   1.861   3.011 -0.1849  1.0703 -1.4130
 5742TIP3    H241422   0.422   1.808   3.009 -0.0769  0.6345  0.3565
 5743TIP3   OH241423   5.679   4.229   8.540 -0.1205 -0.0717 -0.9004
 5743TIP3    H141424   5.642   4.317   8.542 -1.4060 -0.5709 -1.5116
 5743TIP3    H241425   5.747   4.229   8.607 -1.6270  0.7263  0.6900
 5744TIP3   OH241426   1.400   2.472   2.561  0.1421  0.2590  0.3226
 5744TIP3    H141427   1.332   2.532   2.531 -0.9915 -1.4042 -0.5913
 5744TIP3    H241428   1.355   2.413   2.621  0.5361 -1.3936 -0.9497
 5745TIP3   OH241429   1.550   6.122   0.761 -0.4579  0.0462  0.0260
 5745TIP3    H141430   1.482   6.154   0.821 -0.8299  1.6452 -1.1739
 5745TIP3    H241431   1.606   6.198   0.746 -0.5112 -0.2446 -1.8080
 5746TIP3   OH241432   5.287   6.761   0.937 -0.5633 -0.4239  0.2258
 5746TIP3    H141433   5.231   6.835   0.915 -1.3786 -1.1115 -0.0611
 5746TIP3    H241434   5.365   6.773   0.882  0.3515  1.4086  1.7930
 5747TIP3   OH241435   7.286   2.355   3.038 -0.1203  0.6634  0.5270
 5747TIP3    H141436   7.266   2.372   2.946 -2.3800 -3.0404  0.1220
 5747TIP3    H241437   7.207   2.312   3.071  1.4582 -0.0909  3.6128
 5748TIP3   OH241438   5.975   2.341   2.097 -0.0153  0.0922 -0.1318
 5748TIP3    H141439   5.897   2.386   2.065 -0.5947  1.2208  2.6282
 5748TIP3    H241440   5.961   2.250   2.073 -2.1373  0.2917  0.1262
 5749TIP3   OH241441   2.914   3.772   2.969 -0.2133 -0.6531  0.2763
 5749TIP3    H141442   2.967   3.820   3.032 -0.3598  0.8470 -0.6945
 5749TIP3    H241443   2.829   3.815   2.972 -0.4507 -1.0644 -0.3748
 5750TIP3   OH241444   2.784   6.817   2.662  0.0858 -0.3650 -0.2882
 5750TIP3    H141445   2.825   6.791   2.744  2.5517  0.3381 -1.2090
 5750TIP3    H241446   2.776   6.736   2.612 -2.2512 -0.9480  0.9075
 5751TIP3   OH241447   1.731   7.584   3.286  0.1765 -0.5469  0.0397
 5751TIP3    H141448   1.807   7.525   3.282  0.1326 -0.5272 -1.6750
 5751TIP3    H241449   1.760   7.662   3.240 -0.9449 -0.5952 -0.7646
 5752TIP3   OH241450   3.946   5.511   1.129 -0.1425  0.0658  0.6942
 5752TIP3    H141451   3.981   5.440   1.183  1.6132 -0.0193 -0.4632
 5752TIP3    H241452   3.878   5.469   1.076  0.4457 -0.6122  0.4695
 5753TIP3   OH241453   7.139   3.940   0.863  1.2195  0.2201 -0.4822
 5753TIP3    H141454   7.056   3.923   0.908  1.1022 -2.5083 -1.5209
 5753TIP3    H241455   7.187   3.996   0.923  0.1815 -1.3985  2.0462
 5754TIP3   OH241456   2.957   4.040   2.197  0.1741  0.2038 -0.4014
 5754TIP3    H141457   2.929   4.006   2.112  1.9891  2.0295 -1.8266
 5754TIP3    H241458   2.907   3.989   2.260 -1.3451 -1.1524 -2.5401
 5755TIP3   OH241459   0.497   7.043   0.642 -0.1428 -0.4225 -0.1534
 5755TIP3    H141460   0.403   7.025   0.645 -0.4896  0.9104 -1.6933
 5755TIP3    H241461   0.509   7.099   0.565  1.2264  3.2053  2.3944
 5756TIP3   OH241462   6.035   2.173   1.013 -0.1061  0.4262  0.7215
 5756TIP3    H141463   5.985   2.106   1.060 -0.4402  0.6408  0.6740
 5756TIP3    H241464   5.971   2.215   0.956  0.1500  0.6401  0.5899
 5757TIP3   OH241465   4.274   2.457   2.462 -0.3855  0.1153 -0.0056
 5757TIP3    H141466   4.266   2.516   2.537 -0.1372 -0.8866  0.8404
 5757TIP3    H241467   4.368   2.438   2.457 -0.5712 -1.0059  0.3975
 5758TIP3   OH241468   5.742   4.412   0.984 -0.2505 -0.1160  0.0022
 5758TIP3    H141469   5.817   4.452   0.941 -1.4337  2.2544  0.0106
 5758TIP3    H241470   5.666   4.439   0.932 -1.2246 -1.6842  0.5185
 5759TIP3   OH241471   5.522   5.084   3.511  0.5411 -0.1705  0.2707
 5759TIP3    H141472   5.471   5.050   3.584  2.6814 -0.8070  1.5596
 5759TIP3    H241473   5.479   5.166   3.488 -2.6070 -1.8960 -0.5312
 5760TIP3   OH241474   2.788   0.474   1.950 -0.5393  0.3163  0.1114
 5760TIP3    H141475   2.710   0.511   1.910 -1.3153 -1.2123  0.1472
 5760TIP3    H241476   2.787   0.506   2.040  0.3602  2.4825 -0.5934
 5761TIP3   OH241477   3.226   2.577   2.682 -0.0220  0.3457  0.1930
 5761TIP3    H141478   3.139   2.579   2.642 -0.3824 -1.0093  0.8596
 5761TIP3    H241479   3.241   2.485   2.701  0.9489  0.7369  1.4192
 5762TIP3   OH241480   4.556   7.336   2.260  0.0772 -0.1740 -0.4799
 5762TIP3    H141481   4.611   7.258   2.247 -1.2956 -0.9030 -2.3745
 5762TIP3    H241482   4.611   7.396   2.311  1.7707 -1.7305 -0.3601
 5763TIP3   OH241483   0.479   5.628   0.620 -0.0842  0.1525  0.1888
 5763TIP3    H141484   0.426   5.657   0.694 -1.9145  0.4988 -1.1724
 5763TIP3    H241485   0.523   5.707   0.588  0.2588  0.1104  0.5539
 5764TIP3   OH241486   2.585   6.839   0.490 -0.4724  0.8987 -0.3877
 5764TIP3    H141487   2.542   6.901   0.431  0.8527 -1.2259 -3.9471
 5764TIP3    H241488   2.531   6.760   0.486 -0.2819  0.6408  1.2684
 5765TIP3   OH241489   0.463   0.198   2.499  0.1829  0.3031 -0.1116
 5765TIP3    H141490   0.554   0.167   2.493 -0.2322 -1.3515  1.3407
 5765TIP3    H241491   0.451   0.219   2.592 -1.0421  0.0879 -0.2107
 5766TIP3   OH241492   3.613   1.489   3.037 -0.1944 -0.2198  0.0398
 5766TIP3    H141493   3.633   1.445   2.954  0.1726 -0.4528  0.2456
 5766TIP3    H241494   3.578   1.574   3.011 -2.4826 -1.2371 -0.3952
 5767TIP3   OH241495   1.120   7.081   2.631 -0.7314  0.2085 -0.0506
 5767TIP3    H141496   1.079   7.082   2.718 -1.0791  1.1422 -0.2181
 5767TIP3    H241497   1.188   7.148   2.636 -0.3414 -0.1562 -0.3183
 5768TIP3   OH241498   6.747   4.658   2.080  0.0806 -0.3248 -0.6262
 5768TIP3    H141499   6.840   4.666   2.098  0.6204 -3.9668 -0.9804
 5768TIP3    H241500   6.711   4.614   2.157 -0.5735 -2.1256 -1.8850
 5769TIP3   OH241501   3.992   3.314   2.401  0.2523 -0.9051  0.0345
 5769TIP3    H141502   4.083   3.288   2.418  0.0559 -1.5617  0.0952
 5769TIP3    H241503   3.994   3.347   2.311  1.1400  1.8900  0.9520
 5770TIP3   OH241504   0.981   7.351   0.986  0.3675  0.4385 -0.0868
 5770TIP3    H141505   1.037   7.275   1.001  0.2074 -0.5922 -3.7155
 5770TIP3    H241506   1.036   7.426   1.005  1.2627 -0.5504  1.3995
 5771TIP3   OH241507   4.368   4.089   2.239 -0.0158 -0.4322 -0.1425
 5771TIP3    H141508   4.310   4.165   2.235  0.8198  0.2713  0.6846
 5771TIP3    H241509   4.309   4.014   2.233 -0.7195  0.2197 -3.0903
 5772TIP3   OH241510   6.366   3.856   1.961 -0.4959  0.2321  0.1082
 5772TIP3    H141511   6.370   3.909   2.040  0.0281  0.4860 -0.0789
 5772TIP3    H241512   6.314   3.780   1.985 -1.7330  1.0936  0.2291
 5773TIP3   OH241513   7.156   6.948   1.665 -0.0154  1.0207  0.1236
 5773TIP3    H141514   7.195   6.969   1.580 -0.5265 -0.8585 -0.6165
 5773TIP3    H241515   7.100   6.873   1.648  2.0808 -1.3260  2.6336
 5774TIP3   OH241516   4.573   4.264   2.111  0.1580  0.3028 -0.0327
 5774TIP3    H141517   4.506   4.312   2.062  1.0675 -0.8094 -2.5315
 5774TIP3    H241518   4.534   4.179   2.127  1.0562 -0.5435 -1.9797
 5775TIP3   OH241519   2.696   1.195   1.564  0.0156  0.0603  0.3468
 5775TIP3    H141520   2.776   1.145   1.581 -0.9225 -0.7095  2.9788
 5775TIP3    H241521   2.662   1.216   1.651 -2.7846  0.1485 -0.6648
 5776TIP3   OH241522   5.558   5.372   1.344  0.6436  0.0968  0.2043
 5776TIP3    H141523   5.559   5.439   1.276  0.1415  1.1418  1.1859
 5776TIP3    H241524   5.469   5.375   1.379  0.1224 -2.1630 -0.7195
 5777TIP3   OH241525   0.380   4.241   0.967 -0.0988  0.0075 -0.0182
 5777TIP3    H141526   0.391   4.147   0.955  0.0352  0.0721 -0.4222
 5777TIP3    H241527   0.289   4.258   0.943 -0.1594 -0.0367  0.1779
 5778TIP3   OH241528   3.207   1.352   1.009  0.0776 -0.0869  0.6933
 5778TIP3    H141529   3.114   1.371   1.010  0.5260  2.7279 -0.5309
 5778TIP3    H241530   3.221   1.298   0.931 -0.3837  0.5601  0.1568
 5779TIP3   OH241531   3.068   1.082   2.899 -0.0991  0.5345  0.9182
 5779TIP3    H141532   3.131   1.080   2.826  0.5088  2.4247  1.3279
 5779TIP3    H241533   2.993   1.130   2.865 -0.0549  0.9166  1.3458
 5780TIP3   OH241534   1.925   1.341   1.306  0.5846  0.3292  0.1886
 5780TIP3    H141535   1.857   1.365   1.369 -1.3500  1.3653 -2.1601
 5780TIP3    H241536   1.954   1.254   1.335 -0.9045  0.3568  1.9364
 5781TIP3   OH241537   7.631   0.615   3.478  0.3225 -0.4557  0.0870
 5781TIP3    H141538   7.548   0.574   3.452  1.4921 -1.4226 -2.4021
 5781TIP3    H241539   7.635   0.696   3.426 -0.8250  1.7974  3.1735
 5782TIP3   OH241540   7.333   1.786   3.658  0.1783 -0.7293  0.1113
 5782TIP3    H141541   7.272   1.856   3.683  1.0167 -0.2494  0.9118
 5782TIP3    H241542   7.333   1.727   3.734 -0.4730 -1.5829 -0.5320
 5783TIP3   OH241543   1.854   5.950   1.737  0.2426 -0.0891  0.7152
 5783TIP3    H141544   1.782   5.964   1.799 -0.8467 -0.7673 -0.3536
 5783TIP3    H241545   1.881   6.037   1.711 -0.2295  0.1777  1.1007
 5784TIP3   OH241546   3.668   3.529   1.808  0.8480  0.0627  0.0213
 5784TIP3    H141547   3.655   3.531   1.903 -0.2234  0.5833 -0.1193
 5784TIP3    H241548   3.645   3.617   1.779 -1.2301 -0.7372 -0.9891
 5785TIP3   OH241549   6.485   0.876   2.163  0.3474  0.2034 -0.4708
 5785TIP3    H141550   6.490   0.957   2.112 -0.4112  0.8908  0.5111
 5785TIP3    H241551   6.393   0.849   2.157  0.2614  0.2432  0.4152
 5786TIP3   OH241552   6.118   5.704   2.571 -0.1661 -0.0165  0.1520
 5786TIP3    H141553   6.034   5.696   2.617 -0.4388  0.2183 -0.3047
 5786TIP3    H241554   6.095   5.710   2.479  0.2282  1.7985  0.1301
 5787TIP3   OH241555   4.098   7.142   1.747  0.3317  0.1110  0.2341
 5787TIP3    H141556   4.125   7.226   1.709  1.1354 -0.8292 -1.3601
 5787TIP3    H241557   4.013   7.124   1.707  0.3518 -0.0308  0.2550
 5788TIP3   OH241558   0.163   3.930   2.660  0.0533  0.1319 -0.2085
 5788TIP3    H141559   0.158   4.012   2.611  1.3775 -0.3476 -1.1896
 5788TIP3    H241560   0.082   3.884   2.639  0.7461 -0.2335 -2.2940
 5789TIP3   OH241561   1.242   3.367   2.539  0.3105  0.4878  0.2635
 5789TIP3    H141562   1.161   3.383   2.588 -0.9640  0.1039 -1.6295
 5789TIP3    H241563   1.280   3.289   2.581 -1.5581 -0.7774 -0.2823
 5790TIP3   OH241564   0.188   2.044   1.595 -0.4683 -0.0844  0.1237
 5790TIP3    H141565   0.244   2.121   1.593  0.4910 -0.7701 -1.1344
 5790TIP3    H241566   0.197   2.005   1.508  0.8853 -2.8456  1.3698
 5791TIP3   OH241567   4.480   7.184   3.014  0.2630  0.4827 -0.1324
 5791TIP3    H141568   4.476   7.260   3.073  2.9964  1.5881 -1.2464
 5791TIP3    H241569   4.548   7.129   3.051  0.1187 -0.1429 -0.7858
 5792TIP3   OH241570   0.008   3.565   0.440 -0.6298 -0.1007  0.5633
 5792TIP3    H141571  -0.080   3.533   0.459 -0.2117 -0.9770  1.1029
 5792TIP3    H241572  -0.003   3.659   0.428 -1.1198  0.5889  4.6860
 5793TIP3   OH241573   4.889   0.532   1.346 -0.1426  0.0350  0.1227
 5793TIP3    H141574   4.875   0.626   1.335  0.8394  0.1544 -0.2174
 5793TIP3    H241575   4.881   0.496   1.258  2.4514  0.2398 -0.2598
 5794TIP3   OH241576   1.824   6.813   0.934 -0.4491  0.4959 -0.8215
 5794TIP3    H141577   1.795   6.885   0.879 -1.1978  0.8476  0.0216
 5794TIP3    H241578   1.855   6.854   1.014  2.1420  0.1255 -1.5226
 5795TIP3   OH241579   4.999   6.781   1.937  0.1205 -0.4737 -0.3858
 5795TIP3    H141580   5.089   6.767   1.966  0.3879  1.2696 -0.2679
 5795TIP3    H241581   5.007   6.805   1.845  0.2410  3.4951  0.4837
 5796TIP3   OH241582   7.602   3.704   3.349 -0.4421 -0.1909 -0.3999
 5796TIP3    H141583   7.616   3.786   3.302  2.8003  0.4355  1.3447
 5796TIP3    H241584   7.655   3.640   3.302 -0.6586 -0.5856 -0.1113
 5797TIP3   OH241585   7.130   1.484   2.776  0.0596  0.0431  0.2619
 5797TIP3    H141586   7.225   1.471   2.779 -0.0304 -0.6892  0.1004
 5797TIP3    H241587   7.096   1.428   2.846 -0.3609 -0.8415 -0.6230
 5798TIP3   OH241588   4.572   1.420   1.700 -0.2459 -0.2661  0.8156
 5798TIP3    H141589   4.516   1.376   1.635 -0.5014  1.8519 -0.4764
 5798TIP3    H241590   4.513   1.479   1.746  0.5805  0.7152  0.6430
 5799TIP3   OH241591   2.317   1.286   1.649 -0.0575 -0.1137 -0.6683
 5799TIP3    H141592   2.255   1.294   1.722 -0.2516  0.7914 -0.9201
 5799TIP3    H241593   2.276   1.224   1.589 -0.8099  0.6068 -0.9146
 5800TIP3   OH241594   6.381   3.295   1.326 -0.5396 -0.0039  0.1669
 5800TIP3    H141595   6.421   3.346   1.256 -1.3763 -0.5464 -0.7353
 5800TIP3    H241596   6.306   3.347   1.354  0.1653  0.5213  1.1366
 5801TIP3   OH241597   2.462   3.073   1.059 -0.1631  0.1921 -0.2966
 5801TIP3    H141598   2.500   3.037   1.139  0.8756  0.5367 -0.6244
 5801TIP3    H241599   2.367   3.065   1.072 -0.0030 -0.0003  0.8498
 5802TIP3   OH241600   0.059   6.578   0.696  0.2879  0.6750 -0.2105
 5802TIP3    H141601   0.118   6.567   0.621 -0.6647  1.9611 -1.1896
 5802TIP3    H241602   0.042   6.672   0.700 -2.0125  0.3112 -0.2236
 5803TIP3   OH241603   4.323   0.916   2.957  0.1261 -0.6441  0.8218
 5803TIP3    H141604   4.267   0.967   2.898 -0.2644 -1.5816  0.3384
 5803TIP3    H241605   4.374   0.981   3.005 -1.3649  0.2555  1.2669
 5804TIP3   OH241606   2.541   4.908   1.179  0.2094 -0.0329 -0.1086
 5804TIP3    H141607   2.487   4.857   1.119  0.9139 -0.1391 -0.6633
 5804TIP3    H241608   2.629   4.875   1.167  0.2601 -0.5960  1.5695
 5805TIP3   OH241609   7.546   2.155   2.492 -0.2138  0.1431 -0.6337
 5805TIP3    H141610   7.526   2.061   2.498  0.4101  0.0556  0.0369
 5805TIP3    H241611   7.613   2.170   2.558  1.3381  0.6213 -2.2400
 5806TIP3   OH241612   5.146   5.977   2.533 -0.0277 -0.1014  0.6832
 5806TIP3    H141613   5.149   5.926   2.452 -0.9067  1.9697 -0.7311
 5806TIP3    H241614   5.072   6.036   2.522  0.9540  1.5202  2.1980
 5807TIP3   OH241615   3.096   1.028   3.173 -0.4530 -0.1346 -0.1516
 5807TIP3    H141616   3.076   1.111   3.217 -1.3061 -0.9101  1.0016
 5807TIP3    H241617   3.075   1.043   3.081  0.9324  1.3975 -0.2677
 5808TIP3   OH241618   6.560   1.227   2.190 -0.5154 -0.0707 -0.3671
 5808TIP3    H141619   6.565   1.288   2.116  0.9149  0.1637 -0.1222
 5808TIP3    H241620   6.470   1.234   2.221 -0.5301  1.5234 -0.6782
 5809TIP3   OH241621   6.912   5.859   3.057  0.5123 -0.5379 -0.3478
 5809TIP3    H141622   6.914   5.785   3.119  1.5192 -0.1635  0.0861
 5809TIP3    H241623   6.912   5.937   3.113  0.7960 -0.1996 -0.8166
 5810TIP3   OH241624   4.099   3.303   0.774  0.4243  1.2485 -0.2236
 5810TIP3    H141625   4.164   3.373   0.777  2.2152 -0.3313 -0.6610
 5810TIP3    H241626   4.023   3.343   0.731  0.4155  3.6112  1.7561
 5811TIP3   OH241627   1.691   1.214   1.436  0.0086  0.0317 -0.0450
 5811TIP3    H141628   1.713   1.126   1.406 -2.5087 -1.1417  1.2839
 5811TIP3    H241629   1.736   1.223   1.520  1.9856  0.9185 -1.1233
 5812TIP3   OH241630   4.614   4.415   1.663  0.5282 -0.4341  0.0078
 5812TIP3    H141631   4.686   4.406   1.601 -0.4429 -0.0253 -1.2238
 5812TIP3    H241632   4.556   4.343   1.643 -1.0258  1.0959 -1.3176
 5813TIP3   OH241633   7.054   3.765   2.152 -0.0866 -0.0521 -0.4784
 5813TIP3    H141634   7.082   3.685   2.197  0.7560  0.6878  0.3890
 5813TIP3    H241635   6.999   3.735   2.080 -1.4150 -1.3191  0.9789
 5814TIP3   OH241636   3.881   5.363   0.527  0.1567  0.2982 -0.0050
 5814TIP3    H141637   3.824   5.325   0.460 -0.9290 -3.0991  2.5783
 5814TIP3    H241638   3.832   5.438   0.561 -1.4217 -0.7524  0.1022
 5815TIP3   OH241639   0.478   0.411   1.018  0.1720 -0.2979  0.4575
 5815TIP3    H141640   0.438   0.391   1.102 -0.9761 -0.8580 -0.2053
 5815TIP3    H241641   0.506   0.502   1.026  0.3613 -0.4372  1.5413
 5816TIP3   OH241642   2.138   5.653   1.733 -0.3110  0.3770 -0.1623
 5816TIP3    H141643   2.136   5.674   1.827 -0.0065 -0.6710  0.0875
 5816TIP3    H241644   2.059   5.601   1.718  0.8465 -1.5217  0.0387
 5817TIP3   OH241645   1.298   3.965   1.094 -0.2687  0.3827 -0.2099
 5817TIP3    H141646   1.234   3.966   1.023 -1.4187  3.1884  0.7556
 5817TIP3    H241647   1.327   4.056   1.102  0.2635  0.0457  2.5368
 5818TIP3   OH241648   1.822   0.431   0.674 -0.6471 -0.5028 -0.4853
 5818TIP3    H141649   1.740   0.479   0.668 -0.6714 -0.5153 -0.2727
 5818TIP3    H241650   1.890   0.498   0.664 -0.6749 -0.3225  0.4479
 5819TIP3   OH241651   3.770   0.729   1.774  0.3178 -0.0138 -0.6527
 5819TIP3    H141652   3.823   0.776   1.839 -1.7302  1.7785 -0.1483
 5819TIP3    H241653   3.816   0.646   1.761  0.5747 -0.7314  3.5212
 5820TIP3   OH241654   3.878   6.386   2.177  0.1811  0.1071 -0.1668
 5820TIP3    H141655   3.791   6.351   2.192 -0.4699  2.8924  3.9135
 5820TIP3    H241656   3.937   6.315   2.202 -0.8594 -1.1293 -1.0846
 5821TIP3   OH241657   2.809   0.983   1.271  0.4497  0.5431  0.2914
 5821TIP3    H141658   2.837   1.023   1.354 -0.9016 -0.1603  1.1286
 5821TIP3    H241659   2.851   0.897   1.271 -2.8968 -1.3068  2.4620
 5822TIP3   OH241660   0.465   7.006   2.149  0.3727  0.0845  0.3910
 5822TIP3    H141661   0.518   6.951   2.092 -0.8329 -0.0867 -0.6058
 5822TIP3    H241662   0.474   6.966   2.236  0.9949 -0.5740  0.0343
 5823TIP3   OH241663   5.356   4.029   1.904 -0.2459  0.4483  0.3592
 5823TIP3    H141664   5.378   4.112   1.860 -1.0368  0.4165 -0.1108
 5823TIP3    H241665   5.272   4.004   1.867  0.3497 -0.9852 -0.0919
 5824TIP3   OH241666   0.946   1.141   2.905  0.1458  0.1297  0.4752
 5824TIP3    H141667   0.979   1.206   2.968 -1.3912 -0.3059  1.8005
 5824TIP3    H241668   1.018   1.080   2.893  0.5325  0.3226  1.7130
 5825TIP3   OH241669   6.083   4.516   3.341 -0.3576  0.4307 -0.1685
 5825TIP3    H141670   5.991   4.542   3.338 -0.5034 -0.1491 -0.8751
 5825TIP3    H241671   6.131   4.599   3.337 -0.8252  0.9508  2.6200
 5826TIP3   OH241672   1.281   5.715   0.582  0.0759 -0.2267 -0.9843
 5826TIP3    H141673   1.321   5.770   0.649 -0.0717  0.8679 -1.7833
 5826TIP3    H241674   1.302   5.757   0.499  0.0987 -1.4646 -1.6385
 5827TIP3   OH241675   5.028   6.418   0.666  0.5899  0.7536 -0.0645
 5827TIP3    H141676   5.052   6.328   0.692  0.4411  0.3776 -1.1757
 5827TIP3    H241677   5.106   6.451   0.622  0.1163  0.6021 -1.0343
 5828TIP3   OH241678   5.542   2.674   1.548 -0.3250  0.3505 -0.4287
 5828TIP3    H141679   5.599   2.742   1.583  0.9917 -0.1374 -1.5285
 5828TIP3    H241680   5.601   2.604   1.520 -1.5721 -0.8054 -0.3007
 5829TIP3   OH241681   0.974   1.821   1.528  0.6003 -0.3397  0.8010
 5829TIP3    H141682   1.019   1.905   1.538  0.5582 -0.1902 -0.2087
 5829TIP3    H241683   0.980   1.801   1.435 -0.5110 -0.8247  0.8130
 5830TIP3   OH241684   4.734   4.823   1.599  0.1543  0.1548  0.0785
 5830TIP3    H141685   4.828   4.809   1.594  0.1940  0.0083  1.0458
 5830TIP3    H241686   4.725   4.914   1.630 -0.0243  0.2617 -0.2834
 5831TIP3   OH241687   7.660   0.209   2.018  0.1262 -0.0244  0.0985
 5831TIP3    H141688   7.693   0.193   2.107  1.5780  0.5245 -0.2999
 5831TIP3    H241689   7.665   0.124   1.975 -1.5035 -0.5071  0.7970
 5832TIP3   OH241690   2.892   6.707   1.746 -0.0497  0.5117  0.2194
 5832TIP3    H141691   2.898   6.636   1.810 -0.4335 -0.1455 -0.4565
 5832TIP3    H241692   2.977   6.707   1.702  0.7028  1.8241  1.5860
 5833TIP3   OH241693   3.810   2.236   2.351  0.1843  0.0430 -0.1635
 5833TIP3    H141694   3.902   2.211   2.350  0.1278 -0.1708 -1.0844
 5833TIP3    H241695   3.800   2.296   2.277 -0.7917 -1.4335 -1.2936
 5834TIP3   OH241696   1.827   0.477   1.039  0.1198  0.0949 -0.5335
 5834TIP3    H141697   1.759   0.409   1.032  0.1998  0.0501 -0.8890
 5834TIP3    H241698   1.849   0.499   0.949 -0.0769  0.7719 -0.4210
 5835TIP3   OH241699   4.655   5.676   2.091  0.0196  0.7622 -0.2371
 5835TIP3    H141700   4.631   5.600   2.144  2.7858 -1.0150 -1.3165
 5835TIP3    H241701   4.603   5.668   2.011  1.0889 -0.7147 -0.8242
 5836TIP3   OH241702   2.216   3.622   2.275  0.1479  0.4107  0.3732
 5836TIP3    H141703   2.304   3.593   2.250 -0.2064 -0.9952  0.6850
 5836TIP3    H241704   2.231   3.707   2.318  1.7689 -1.0897  3.1340
 5837TIP3   OH241705   1.053   7.277   0.435  0.3249  0.1002  0.2103
 5837TIP3    H141706   1.130   7.258   0.488 -1.9969  0.9269  4.3413
 5837TIP3    H241707   1.003   7.196   0.434 -0.2533  0.4457  0.4282
 5838TIP3   OH241708   5.955   5.615   3.006  0.2809 -0.0554  0.0176
 5838TIP3    H141709   5.870   5.657   3.020  0.7081  0.6146  0.7033
 5838TIP3    H241710   6.009   5.683   2.966  0.3398 -0.6534 -0.9515
 5839TIP3   OH241711   2.370   6.527   0.716 -0.4227 -0.0664 -0.0662
 5839TIP3    H141712   2.370   6.601   0.776  0.2902 -0.6168  0.6245
 5839TIP3    H241713   2.455   6.485   0.727 -1.3189 -1.8245  0.6169
 5840TIP3   OH241714   4.490   2.152   0.571 -0.6467 -0.2258 -0.2387
 5840TIP3    H141715   4.437   2.082   0.533  1.1232 -0.1846 -3.0403
 5840TIP3    H241716   4.439   2.231   0.555 -0.4023 -0.3342 -1.7589
 5841TIP3   OH241717   2.807   1.658   0.896 -0.1977 -0.4408  0.1943
 5841TIP3    H141718   2.764   1.711   0.963  0.8187  0.1983  0.3594
 5841TIP3    H241719   2.890   1.703   0.879  0.1775 -1.3579 -0.4919
 5842TIP3   OH241720   4.219   3.992   2.033  0.1589  0.5703 -0.2486
 5842TIP3    H141721   4.241   3.923   1.970 -0.0284  0.7117 -0.4700
 5842TIP3    H241722   4.210   4.071   1.979 -3.2230  0.1227 -0.5574
 5843TIP3   OH241723   3.961   2.091   2.539 -0.5104  0.3368 -0.3734
 5843TIP3    H141724   3.881   2.069   2.492  0.7824 -3.4245 -1.1236
 5843TIP3    H241725   3.942   2.071   2.631 -1.0051  1.4087 -0.2273
 5844TIP3   OH241726   0.839   0.105   2.850 -0.1414 -0.2978 -0.3461
 5844TIP3    H141727   0.884   0.054   2.783  1.2973  1.5836 -0.8937
 5844TIP3    H241728   0.796   0.176   2.801 -1.1567 -0.3103  0.4916
 5845TIP3   OH241729   7.307   2.962   1.796  0.0830  0.1565 -0.1103
 5845TIP3    H141730   7.369   2.963   1.869 -0.7367  1.3767  0.6056
 5845TIP3    H241731   7.225   2.930   1.834  0.4803 -2.5610 -1.2935
 5846TIP3   OH241732   6.285   5.740   2.779  0.2424  0.2938  0.1224
 5846TIP3    H141733   6.221   5.725   2.710  1.7771 -0.2016 -1.2534
 5846TIP3    H241734   6.253   5.818   2.824 -0.8688  0.5713 -1.0817
 5847TIP3   OH241735   2.054   3.245   1.333  0.0420 -0.6067 -0.4189
 5847TIP3    H141736   2.094   3.206   1.411 -1.4032  0.2815  0.8266
 5847TIP3    H241737   1.960   3.237   1.348 -0.2640  0.3876 -1.6714
 5848TIP3   OH241738   0.146   4.505   0.926  0.1694  0.2807 -0.0062
 5848TIP3    H141739   0.198   4.561   0.983  3.1329 -0.9990 -1.2598
 5848TIP3    H241740   0.067   4.556   0.909 -0.4361  1.1674  4.2621
 5849TIP3   OH241741   1.151   3.105   1.223  0.1498 -0.1070 -0.3448
 5849TIP3    H141742   1.184   3.138   1.139 -0.2983 -0.8202 -0.8155
 5849TIP3    H241743   1.120   3.183   1.269  2.0476  0.5521 -0.0540
 5850TIP3   OH241744   0.580   3.832   2.410 -0.0615  0.9219 -0.5027
 5850TIP3    H141745   0.519   3.895   2.372 -0.6491 -0.0125 -1.1483
 5850TIP3    H241746   0.527   3.783   2.473 -0.3968 -0.8434 -2.0732
 5851TIP3   OH241747   4.643   4.277   0.782  0.4907  0.1027 -0.0076
 5851TIP3    H141748   4.689   4.360   0.796 -0.6088  0.7589 -0.1732
 5851TIP3    H241749   4.668   4.250   0.694 -0.8862  1.4391 -0.8556
 5852TIP3   OH241750   3.287   0.054   2.265 -0.0013 -0.2343 -0.2210
 5852TIP3    H141751   3.373   0.040   2.304 -0.0651  1.3266  0.5572
 5852TIP3    H241752   3.278  -0.016   2.201  2.1204 -0.0661 -0.7786
 5853TIP3   OH241753   6.562   4.814   1.558 -0.0758  0.6759 -0.1025
 5853TIP3    H141754   6.593   4.822   1.648  0.7522  1.6671 -0.4477
 5853TIP3    H241755   6.481   4.864   1.556 -0.1120  0.6270  0.0988
 5854TIP3   OH241756   4.543   2.265   2.778 -0.1492 -0.5890 -0.6773
 5854TIP3    H141757   4.537   2.360   2.787 -1.1086 -0.8333  2.7204
 5854TIP3    H241758   4.637   2.247   2.786 -0.0516  0.0176 -0.3448
 5855TIP3   OH241759   5.880   3.828   1.087 -0.1735  1.2098 -0.0144
 5855TIP3    H141760   5.801   3.863   1.129 -1.7375 -0.7812 -1.1104
 5855TIP3    H241761   5.920   3.772   1.153  0.5795  2.5242  0.6744
 5856TIP3   OH241762   6.306   7.382   1.492 -0.2607 -0.1073  0.1872
 5856TIP3    H141763   6.256   7.458   1.460 -1.8285 -0.7332  1.0355
 5856TIP3    H241764   6.336   7.408   1.579  1.6140  0.5386 -0.5887
 5857TIP3   OH241765   1.247   4.609   2.278  0.0167  0.3131  0.5281
 5857TIP3    H141766   1.225   4.702   2.288  2.2714  1.2088 -1.5105
 5857TIP3    H241767   1.231   4.592   2.185 -0.5604 -1.4484  0.9230
 5858TIP3   OH241768   5.639   6.725   0.974 -0.0386  0.1012  0.0804
 5858TIP3    H141769   5.637   6.654   0.910  0.2350 -0.1231  0.3171
 5858TIP3    H241770   5.641   6.805   0.921  0.4561 -0.0873 -0.1990
 5859TIP3   OH241771   7.463   2.416   0.756  0.2434  0.1306 -0.1324
 5859TIP3    H141772   7.409   2.403   0.835 -0.5948  0.2654 -0.6763
 5859TIP3    H241773   7.442   2.341   0.700  1.9348 -0.7600  0.3613
 5860TIP3   OH241774   4.588   3.302   1.775  0.2451 -0.1239  0.0889
 5860TIP3    H141775   4.548   3.283   1.690  1.2206 -2.3553  0.0725
 5860TIP3    H241776   4.519   3.286   1.839 -0.1093  0.2614 -0.1960
 5861TIP3   OH241777   4.027   0.564   2.174 -0.2100 -0.1007  0.0412
 5861TIP3    H141778   4.019   0.554   2.269 -0.8422 -0.5972 -0.0625
 5861TIP3    H241779   3.943   0.535   2.139  0.4796 -1.2246 -0.7603
 5862TIP3   OH241780   4.832   5.320   2.069  0.4144  0.1715 -0.5672
 5862TIP3    H141781   4.894   5.302   1.998  1.6642  1.3989  0.1801
 5862TIP3    H241782   4.835   5.242   2.124 -0.5557 -0.7881 -1.8159
 5863TIP3   OH241783   3.799   4.979   3.173 -0.2277  0.0317 -0.6703
 5863TIP3    H141784   3.869   4.915   3.165  0.7303  0.9170  0.3788
 5863TIP3    H241785   3.721   4.933   3.142  0.7811 -1.0051 -1.7707
 5864TIP3   OH241786   1.339   2.933   2.851  0.0535  0.2475 -0.1826
 5864TIP3    H141787   1.380   2.865   2.798  1.3600  0.7320  0.1865
 5864TIP3    H241788   1.410   2.970   2.903 -0.6151  1.9291 -0.4049
 5865TIP3   OH241789   6.200   5.123   0.674 -0.6646 -0.0879  0.0913
 5865TIP3    H141790   6.147   5.043   0.666 -0.5269 -0.1559 -0.1838
 5865TIP3    H241791   6.150   5.190   0.627 -1.6146  0.4273  1.7566
 5866TIP3   OH241792   3.387   0.839   1.612 -0.2211 -0.3053  0.1644
 5866TIP3    H141793   3.350   0.751   1.608 -0.8432 -0.0379 -0.0885
 5866TIP3    H241794   3.344   0.886   1.540  2.3179 -0.6203 -1.6894
 5867TIP3   OH241795   6.490   6.212   2.440  0.3855 -0.4971  0.1908
 5867TIP3    H141796   6.436   6.134   2.431  1.7729 -1.5490  0.5138
 5867TIP3    H241797   6.487   6.255   2.355  2.5790 -2.9714 -1.2965
 5868TIP3   OH241798   3.319   3.448   1.289  0.2873  0.2681  0.1920
 5868TIP3    H141799   3.393   3.402   1.328  0.7648  1.6362  0.9830
 5868TIP3    H241800   3.359   3.513   1.231 -0.1718  1.8374  1.5290
 5869TIP3   OH241801   7.266   2.490   2.773  0.2895  0.1139 -0.3030
 5869TIP3    H141802   7.256   2.503   2.678  0.0701  0.4478 -0.2389
 5869TIP3    H241803   7.277   2.579   2.807 -2.9259  0.3810  0.3509
 5870TIP3   OH241804   5.562   0.967   2.623 -0.0418 -0.0629  0.0261
 5870TIP3    H141805   5.630   0.910   2.586 -0.3564 -0.6526  0.3521
 5870TIP3    H241806   5.551   0.936   2.713  1.7934  2.3009  1.1955
 5871TIP3   OH241807   7.340   6.203   0.919  0.3761  0.7364 -0.1980
 5871TIP3    H141808   7.388   6.283   0.898  0.8508  0.4940 -0.0390
 5871TIP3    H241809   7.392   6.161   0.988 -0.2300  0.6354  0.2073
 5872TIP3   OH241810   6.325   3.853   0.920 -0.0016 -0.1815 -0.1386
 5872TIP3    H141811   6.332   3.939   0.962  1.4422 -0.6893  0.7483
 5872TIP3    H241812   6.238   3.852   0.880 -0.3945  1.3377  0.6258
 5873TIP3   OH241813   2.846   3.763   0.657 -0.3219  0.0539  0.3978
 5873TIP3    H141814   2.812   3.853   0.665  0.5359  0.2471  2.7344
 5873TIP3    H241815   2.909   3.767   0.585  2.5183  2.3680  2.7562
 5874TIP3   OH241816   4.804   3.170   1.023 -0.1308  0.7533 -0.0607
 5874TIP3    H141817   4.774   3.133   1.106 -0.1695 -1.0685 -0.8232
 5874TIP3    H241818   4.723   3.198   0.980 -0.3864 -0.4816 -0.4392
 5875TIP3   OH241819   6.899   0.425   1.239 -0.0331  0.3729 -0.0154
 5875TIP3    H141820   6.927   0.510   1.273 -0.0801  0.2430  0.3525
 5875TIP3    H241821   6.843   0.446   1.164  2.4192  0.6399 -1.9124
 5876TIP3   OH241822   0.095   0.029   1.046  0.2332 -0.4230  0.4288
 5876TIP3    H141823   0.133  -0.054   1.021 -0.1080 -0.7310  0.9119
 5876TIP3    H241824   0.160   0.069   1.104  0.7685  0.0328 -0.4734
 5877TIP3   OH241825   5.004   2.036   2.077  0.6568 -0.0790  0.4481
 5877TIP3    H141826   5.007   1.943   2.098 -1.3941 -0.2793  0.0974
 5877TIP3    H241827   4.935   2.071   2.134 -2.7499  0.0157 -3.2381
 5878TIP3   OH241828   3.134   2.922   0.839 -0.5670 -0.6052 -0.0928
 5878TIP3    H141829   3.186   2.892   0.914 -0.6035 -0.8199 -0.1546
 5878TIP3    H241830   3.050   2.876   0.848 -0.4772 -0.8315 -0.4121
 5879TIP3   OH241831   5.256   1.587   0.950  0.5545  0.4825  0.2204
 5879TIP3    H141832   5.310   1.509   0.937  0.7293  0.7759 -0.9344
 5879TIP3    H241833   5.188   1.559   1.012 -1.0543 -1.4564 -2.2209
 5880TIP3   OH241834   4.749   6.552   2.311  0.2195 -0.5263  0.1087
 5880TIP3    H141835   4.765   6.541   2.217 -0.2098 -1.0803  0.0944
 5880TIP3    H241836   4.833   6.536   2.352 -0.0053 -2.3221 -0.0388
 5881TIP3   OH241837   0.985   2.216   0.502 -0.1099 -0.1862  0.0601
 5881TIP3    H141838   0.970   2.300   0.546  1.1590  0.2093 -0.2123
 5881TIP3    H241839   0.907   2.165   0.520 -1.1681  1.2626 -0.2457
 5882TIP3   OH241840   5.758   1.833   1.788 -0.9247  0.3399  0.2937
 5882TIP3    H141841   5.772   1.847   1.695 -1.1804 -0.0271  0.1985
 5882TIP3    H241842   5.673   1.790   1.794 -0.3855 -0.7312  0.6006
 5883TIP3   OH241843   5.487   0.828   3.125  0.0441  0.6663 -0.3395
 5883TIP3    H141844   5.502   0.759   3.190  0.6025 -0.7546 -1.9220
 5883TIP3    H241845   5.393   0.827   3.110  0.0760  0.0476 -0.5374
 5884TIP3   OH241846   5.073   4.585   2.090 -0.1202 -0.0186 -0.2719
 5884TIP3    H141847   5.157   4.543   2.109 -1.2868 -1.6672  1.6731
 5884TIP3    H241848   5.059   4.572   1.997  0.9310 -1.3754 -0.2642
 5885TIP3   OH241849   6.373   0.489   1.403  0.1451  0.0099 -0.2112
 5885TIP3    H141850   6.374   0.585   1.403 -1.6904  0.0691  0.0313
 5885TIP3    H241851   6.332   0.466   1.486  0.7884 -1.0067 -0.1658
 5886TIP3   OH241852   2.058   5.391   1.922 -0.2996 -0.3629 -0.0679
 5886TIP3    H141853   2.041   5.297   1.914 -2.1789  0.0057 -1.1787
 5886TIP3    H241854   2.039   5.426   1.835 -1.2189  1.2491  0.7322
 5887TIP3   OH241855   5.838   6.644   1.966  0.4297  0.2981 -0.1937
 5887TIP3    H141856   5.863   6.579   1.901  2.5697  1.2519 -0.4121
 5887TIP3    H241857   5.800   6.593   2.038 -2.2090 -0.7635 -2.1740
 5888TIP3   OH241858   1.526   5.909   1.020 -0.2898 -0.0271 -0.2258
 5888TIP3    H141859   1.504   5.999   0.995 -1.7231 -0.6616 -1.3834
 5888TIP3    H241860   1.619   5.912   1.042 -0.5803  1.9996  1.0252
 5889TIP3   OH241861   5.050   0.438   2.057 -1.0675  0.3125 -0.4453
 5889TIP3    H141862   4.998   0.434   1.977  0.0964  1.4951 -1.2916
 5889TIP3    H241863   5.032   0.356   2.102  0.3827 -1.6969 -3.2635
 5890TIP3   OH241864   5.600   5.497   2.460  0.4071  0.0721  0.3217
 5890TIP3    H141865   5.512   5.512   2.493  0.8170 -0.9241  1.9909
 5890TIP3    H241866   5.637   5.585   2.449 -0.6415  0.4842 -0.0075
 5891TIP3   OH241867   3.305   3.678   1.559 -0.8624  0.0497  1.0295
 5891TIP3    H141868   3.215   3.674   1.528 -0.4426  1.5517 -0.5778
 5891TIP3    H241869   3.336   3.587   1.556 -1.6557 -0.2025 -0.5977
 5892TIP3   OH241870   2.408   0.503   2.109 -0.2863  0.0540 -0.4958
 5892TIP3    H141871   2.462   0.564   2.159 -2.3749  0.1685  1.7827
 5892TIP3    H241872   2.449   0.501   2.022  2.8899  0.6796  0.8323
 5893TIP3   OH241873   6.872   1.841   2.664  0.4250  0.1984  0.5971
 5893TIP3    H141874   6.808   1.798   2.607  0.4644 -0.8194  1.2891
 5893TIP3    H241875   6.822   1.910   2.709  0.3996  1.0090 -0.6480
 5894TIP3   OH241876   0.300   3.696   1.360 -0.1779 -0.3072  0.4465
 5894TIP3    H141877   0.241   3.699   1.285  1.9312 -0.8407 -1.3361
 5894TIP3    H241878   0.308   3.603   1.381  2.2765 -0.5799 -1.3146
 5895TIP3   OH241879   1.497   6.249   2.013 -0.5438 -0.3924  0.0462
 5895TIP3    H141880   1.410   6.224   1.983 -2.0926  1.9865  2.1473
 5895TIP3    H241881   1.482   6.293   2.097  2.3807  2.3336 -0.6551
 5896TIP3   OH241882   4.481   7.384   1.426 -0.2126 -0.0619  0.0754
 5896TIP3    H141883   4.421   7.310   1.432  0.5361 -0.7380 -0.5157
 5896TIP3    H241884   4.565   7.345   1.400  0.3797  0.9065  0.4857
 5897TIP3   OH241885   6.631   2.264   2.871 -0.0464  0.3584  0.2551
 5897TIP3    H141886   6.586   2.348   2.875  0.8987  0.9092 -0.2013
 5897TIP3    H241887   6.598   2.215   2.946 -0.9564  0.9607  0.2535
 5898TIP3   OH241888   7.378   4.976   2.056 -0.0559  0.4233 -0.1887
 5898TIP3    H141889   7.413   4.888   2.061  1.5263  1.0788  1.5408
 5898TIP3    H241890   7.393   5.003   1.965 -2.5115 -1.7467 -1.3726
 5899TIP3   OH241891   3.725   2.644   0.943 -0.8069 -0.4331  0.2201
 5899TIP3    H141892   3.724   2.580   1.014 -1.7839 -1.0798 -0.3483
 5899TIP3    H241893   3.796   2.616   0.886  0.7322  0.7328  1.4655
 5900TIP3   OH241894   2.680   3.784   1.262 -0.0913 -0.3052  0.1504
 5900TIP3    H141895   2.775   3.783   1.275 -0.1673  0.9685  0.9803
 5900TIP3    H241896   2.644   3.760   1.347 -0.5136 -0.9743 -0.2164
 5901TIP3   OH241897   2.438   1.617   0.351 -0.3593 -0.4291 -0.1751
 5901TIP3    H141898   2.477   1.640   0.435 -1.3290 -3.5998  1.3318
 5901TIP3    H241899   2.393   1.534   0.368  0.2607 -1.7854 -4.0667
 5902TIP3   OH241900   5.084   1.776   3.000 -0.5584 -0.3834  0.1663
 5902TIP3    H141901   5.154   1.719   3.031 -1.2134 -0.5231  1.4402
 5902TIP3    H241902   5.014   1.716   2.973 -0.3841 -0.2296 -0.6638
 5903TIP3   OH241903   7.148   1.759   1.445  0.8492  0.9516  0.0667
 5903TIP3    H141904   7.175   1.667   1.440 -1.0282  0.4307 -1.4086
 5903TIP3    H241905   7.170   1.785   1.534  0.6996 -1.1608  0.7718
 5904TIP3   OH241906   1.215   3.826   2.603 -0.6441 -0.2632  0.2835
 5904TIP3    H141907   1.133   3.779   2.593 -1.1183  0.4054  0.9031
 5904TIP3    H241908   1.242   3.848   2.514 -2.1731  1.2411  0.1391
 5905TIP3   OH241909   0.852   0.334   0.447 -0.4954 -0.5576 -0.1299
 5905TIP3    H141910   0.943   0.325   0.476 -0.9458 -0.5891  1.3535
 5905TIP3    H241911   0.831   0.249   0.408  0.2035 -0.4419 -0.7874
 5906TIP3   OH241912   3.070   7.520   0.917  0.5283  0.0200 -0.6367
 5906TIP3    H141913   3.017   7.532   0.996  0.3299 -1.2779 -0.5478
 5906TIP3    H241914   3.139   7.459   0.943  0.0989 -0.9254 -1.5845
 5907TIP3   OH241915   7.146   6.177   1.432  0.6074  0.1608  0.0917
 5907TIP3    H141916   7.135   6.260   1.386 -3.3286 -0.3981 -0.3446
 5907TIP3    H241917   7.132   6.198   1.524 -0.0424  0.0386  0.0218
 5908TIP3   OH241918   1.548   7.386   1.834  0.1813  0.1401 -0.0398
 5908TIP3    H141919   1.533   7.473   1.870 -1.2089 -0.1021 -0.0052
 5908TIP3    H241920   1.467   7.363   1.790 -0.7043 -2.4098  2.5902
 5909TIP3   OH241921   5.612   5.258   1.075 -0.0504  0.0112 -0.6728
 5909TIP3    H141922   5.686   5.211   1.115 -0.3813 -0.9466 -1.1511
 5909TIP3    H241923   5.546   5.263   1.144 -0.6368 -1.6747 -1.0753
 5910TIP3   OH241924   7.583   1.230   0.842  0.2889 -0.1221  0.0496
 5910TIP3    H141925   7.504   1.177   0.847 -0.9525  1.7390  1.4307
 5910TIP3    H241926   7.621   1.224   0.930 -0.1405  1.5797  0.3856
 5911TIP3   OH241927   0.911   6.610   2.327 -0.1104  0.2760 -0.0832
 5911TIP3    H141928   1.003   6.599   2.304 -0.1733 -0.5339  0.0160
 5911TIP3    H241929   0.906   6.582   2.419 -0.2029  1.6627  0.3458
 5912TIP3   OH241930   7.375   3.491   1.164 -0.4817  0.0080  0.4532
 5912TIP3    H141931   7.281   3.478   1.178 -0.5715  0.9476  0.7741
 5912TIP3    H241932   7.412   3.499   1.252  0.2145 -2.2423  0.4257
 5913TIP3   OH241933   6.764   0.347   2.311 -0.0751 -0.2750  0.2618
 5913TIP3    H141934   6.834   0.411   2.299 -1.8857  1.4822 -1.7990
 5913TIP3    H241935   6.778   0.282   2.241  1.5078 -2.0297  2.0855
 5914TIP3   OH241936   0.906   5.407   2.839 -0.3156 -0.2418  0.5486
 5914TIP3    H141937   0.964   5.477   2.869 -0.5206 -0.5572  1.7181
 5914TIP3    H241938   0.962   5.330   2.833  0.0106  0.0904 -1.1742
 5915TIP3   OH241939   5.844   6.351   2.620 -0.2575  0.1620 -0.3201
 5915TIP3    H141940   5.839   6.413   2.547 -0.5086 -0.0682 -0.4998
 5915TIP3    H241941   5.822   6.403   2.697  1.8299  0.8646 -0.1231
 5916TIP3   OH241942   0.894   1.757   2.228  0.7328 -0.8080  0.0623
 5916TIP3    H141943   0.829   1.795   2.287  0.3213 -1.9204  0.3488
 5916TIP3    H241944   0.882   1.663   2.237  2.5370 -1.0523  0.2851
 5917TIP3   OH241945   6.320   6.834   1.078 -0.3025  0.6563 -0.4477
 5917TIP3    H141946   6.236   6.814   1.119  0.3182 -0.4049  0.3524
 5917TIP3    H241947   6.368   6.884   1.144  0.6528 -0.9461  0.1488
 5918TIP3   OH241948   1.620   7.331   0.733 -0.1860  0.4408  0.1871
 5918TIP3    H141949   1.610   7.269   0.661 -1.0084  0.4606  0.2737
 5918TIP3    H241950   1.554   7.398   0.716  0.3011  0.9855  0.4104
 5919TIP3   OH241951   1.511   4.465   1.892 -0.4782 -0.3426 -0.2414
 5919TIP3    H141952   1.546   4.388   1.937  0.1361  0.4207  0.6179
 5919TIP3    H241953   1.588   4.511   1.859 -0.7317  0.6169  0.4433
 5920TIP3   OH241954   0.798   2.648   0.982  0.9995  0.1438  0.1528
 5920TIP3    H141955   0.878   2.700   0.990  1.1645  0.1796 -1.4159
 5920TIP3    H241956   0.784   2.639   0.888  0.6819 -2.2137  0.3616
 5921TIP3   OH241957   1.021   7.073   2.019  0.6156 -0.0618  0.7905
 5921TIP3    H141958   1.073   7.029   2.086  0.6154 -0.9112  0.2471
 5921TIP3    H241959   0.956   7.123   2.067  1.2754  0.1846  1.4484
 5922TIP3   OH241960   4.658   4.752   0.779  0.4063 -0.1219  0.7562
 5922TIP3    H141961   4.677   4.795   0.863  0.4573 -0.8752  1.1430
 5922TIP3    H241962   4.641   4.823   0.718  0.7022  0.4478  1.3334
 5923TIP3   OH241963   5.271   7.334   1.646 -0.6146  0.1883  0.1670
 5923TIP3    H141964   5.298   7.296   1.562  1.7537  1.0476  0.4638
 5923TIP3    H241965   5.249   7.425   1.626 -1.5624 -0.0083  0.2561
 5924TIP3   OH241966   0.549   0.958   0.673 -0.8618  0.4140  0.2908
 5924TIP3    H141967   0.537   0.863   0.676 -1.3456  0.4918  2.1004
 5924TIP3    H241968   0.627   0.974   0.726 -1.4262  1.0919  0.9402
 5925TIP3   OH241969   5.263   0.959   0.577  0.2086 -0.4820 -0.5110
 5925TIP3    H141970   5.302   0.872   0.584 -0.1580 -0.5574  0.8902
 5925TIP3    H241971   5.338   1.019   0.585  0.3404 -0.6618 -0.3676
 5926TIP3   OH241972   6.583   4.884   2.156  0.1257 -0.5012 -0.4553
 5926TIP3    H141973   6.525   4.811   2.175  0.9989 -1.2397 -0.5594
 5926TIP3    H241974   6.645   4.849   2.092 -0.7865  0.9739 -2.2490
 5927TIP3   OH241975   1.377   6.710   0.745 -0.3353 -0.0736 -0.4394
 5927TIP3    H141976   1.297   6.756   0.723 -1.2559 -1.1629  0.4707
 5927TIP3    H241977   1.392   6.730   0.837  0.2905 -0.0794 -0.5363
 5928TIP3   OH241978   1.692   4.536   2.833  0.0067  0.2055 -0.3806
 5928TIP3    H141979   1.642   4.554   2.753  1.3791 -4.2657 -2.6051
 5928TIP3    H241980   1.645   4.464   2.874  2.1931 -1.1835 -0.1905
 5929TIP3   OH241981   6.201   7.586   1.293  0.9379  0.0156  0.0577
 5929TIP3    H141982   6.212   7.555   1.203  0.9291  0.2733 -0.0318
 5929TIP3    H241983   6.168   7.675   1.284  0.6324 -0.0716  0.3198
 5930TIP3   OH241984   6.109   5.780   2.297  0.0306 -0.4359  0.2547
 5930TIP3    H141985   6.055   5.750   2.224  1.2228  1.4713 -1.5624
 5930TIP3    H241986   6.188   5.726   2.292 -0.4741 -1.2792  1.0919
 5931TIP3   OH241987   1.705   7.430   1.055 -0.5588 -0.5712 -0.6315
 5931TIP3    H141988   1.787   7.402   1.096 -1.0034 -2.9799 -1.2446
 5931TIP3    H241989   1.727   7.512   1.012  1.1111 -0.3605  0.5331
 5932TIP3   OH241990   2.335   0.839   2.257  0.0579 -0.1295  0.0836
 5932TIP3    H141991   2.360   0.916   2.309 -1.0740  0.1155  0.2818
 5932TIP3    H241992   2.418   0.805   2.224  0.4916  3.3122 -3.1094
 5933TIP3   OH241993   4.735   4.586   2.848 -0.4291  0.7444 -0.7413
 5933TIP3    H141994   4.777   4.504   2.822 -2.6630 -0.9081  0.5336
 5933TIP3    H241995   4.799   4.628   2.905 -0.2580 -1.5349  0.9096
 5934TIP3   OH241996   5.710   2.874   1.672 -0.5803 -0.2598  0.2700
 5934TIP3    H141997   5.777   2.942   1.676  1.8527 -2.3536 -1.7968
 5934TIP3    H241998   5.628   2.922   1.661  0.8895  2.3528  0.0222
 5935TIP3   OH241999   3.542   0.253   2.519 -0.3263 -0.2008  0.1602
 5935TIP3    H142000   3.599   0.217   2.586 -2.5438 -2.2185  1.0968
 5935TIP3    H242001   3.524   0.180   2.460  1.7168  1.5424 -2.9277
 5936TIP3   OH242002   5.994   4.196   1.637 -0.5139  0.2098 -0.0853
 5936TIP3    H142003   5.926   4.207   1.570 -1.2530 -0.1771  0.5816
 5936TIP3    H242004   5.963   4.124   1.691  0.1278  0.4373  0.6051
 5937TIP3   OH242005   2.768   7.550   1.808 -0.2272 -0.2323 -0.7186
 5937TIP3    H142006   2.715   7.629   1.810  0.1267  0.0001 -0.5623
 5937TIP3    H242007   2.858   7.581   1.807 -0.0792 -0.6434 -0.1872
 5938TIP3   OH242008   5.136   5.616   0.913 -0.8550  0.0453  0.1697
 5938TIP3    H142009   5.126   5.697   0.963  0.3337 -0.5948  1.5273
 5938TIP3    H242010   5.140   5.547   0.979  0.4403 -0.8760 -0.8134
 5939TIP3   OH242011   4.378   6.443   2.499 -0.0150 -0.0990 -0.1796
 5939TIP3    H142012   4.420   6.442   2.584  0.9381  1.8891 -0.5682
 5939TIP3    H242013   4.304   6.503   2.509  0.8565  1.1767 -1.0253
 5940TIP3   OH242014   4.941   7.519   0.903 -0.4113 -0.2047 -0.2069
 5940TIP3    H142015   4.988   7.592   0.864  1.5659 -0.9470  0.5969
 5940TIP3    H242016   4.901   7.555   0.982 -0.1211  0.1997 -0.2428
 5941TIP3   OH242017   2.314   3.935   2.183  0.2627 -0.7202 -0.1922
 5941TIP3    H142018   2.367   3.893   2.116  0.0736  0.8655 -1.3789
 5941TIP3    H242019   2.315   4.028   2.161  0.7746 -0.0113  2.4131
 5942TIP3   OH242020   2.661   6.356   1.657 -0.2027  0.0809 -0.5855
 5942TIP3    H142021   2.638   6.444   1.687 -1.6686  0.0888 -1.5959
 5942TIP3    H242022   2.662   6.363   1.561  1.5294 -0.5861 -0.6508
 5943TIP3   OH242023   2.757   7.006   1.014 -0.4296 -0.2757 -0.7287
 5943TIP3    H142024   2.722   6.926   0.976  1.7759 -1.0336 -1.3035
 5943TIP3    H242025   2.839   6.980   1.055 -0.5973  1.3578  0.7827
 5944TIP3   OH242026   1.218   2.204   0.673  0.1281 -0.5337  0.6399
 5944TIP3    H142027   1.137   2.192   0.623 -0.3235 -0.3767  1.3202
 5944TIP3    H242028   1.286   2.163   0.619 -0.0384  1.1360 -0.9472
 5945TIP3   OH242029   7.245   5.710   1.265 -0.2098  0.1173 -0.0647
 5945TIP3    H142030   7.221   5.803   1.265 -0.6345  0.0105 -0.1290
 5945TIP3    H242031   7.164   5.665   1.287 -0.2252 -0.2987 -0.9521
 5946TIP3   OH242032   7.249   0.450   1.828  0.0416  0.0197  0.1331
 5946TIP3    H142033   7.292   0.464   1.912  0.4545 -2.7338  0.4613
 5946TIP3    H242034   7.158   0.428   1.850 -0.1054  0.2409 -0.2257
 5947TIP3   OH242035   1.383   0.108   0.566 -0.3838 -0.0545 -0.2270
 5947TIP3    H142036   1.427   0.175   0.514 -0.1844 -0.4669 -0.5971
 5947TIP3    H242037   1.380   0.144   0.654  0.5026  0.0661 -0.2396
 5948TIP3   OH242038   6.675   1.061   2.648  0.0910 -0.0150 -0.3549
 5948TIP3    H142039   6.662   1.126   2.578 -1.5880 -0.6832 -0.7126
 5948TIP3    H242040   6.763   1.078   2.679 -0.1462  2.2197 -0.6819
 5949TIP3   OH242041   2.691   2.129   2.367  0.2314  0.1347  0.5154
 5949TIP3    H142042   2.623   2.124   2.299  0.1350  1.0884  0.5225
 5949TIP3    H242043   2.766   2.082   2.329 -0.9290 -2.4004  1.1766
 5950TIP3   OH242044   0.285   3.988   1.222 -0.1780  0.4534  0.5604
 5950TIP3    H142045   0.252   3.966   1.135 -1.9451 -1.3464  1.6083
 5950TIP3    H242046   0.346   3.917   1.244  1.8318  1.9393  0.0523
 5951TIP3   OH242047   3.616   6.990   1.583  0.5736 -0.0723  0.1030
 5951TIP3    H142048   3.625   6.921   1.518  1.1399 -1.0515  1.1930
 5951TIP3    H242049   3.597   6.944   1.665  1.4029  1.0246  0.9435
 5952TIP3   OH242050   3.496   4.936   1.552 -0.2177  0.1815  0.1058
 5952TIP3    H142051   3.585   4.902   1.559 -1.0854 -1.9320  2.0581
 5952TIP3    H242052   3.443   4.861   1.524 -1.6144  0.9790  0.5157
 5953TIP3   OH242053   3.751   3.397   3.562 -0.3134 -0.0264 -0.0051
 5953TIP3    H142054   3.671   3.447   3.576 -0.7555 -0.7685  0.1783
 5953TIP3    H242055   3.734   3.345   3.483  0.7279  1.2618 -1.1315
 5954TIP3   OH242056   3.938   5.709   1.930 -0.2422 -0.4068  0.3313
 5954TIP3    H142057   3.963   5.738   1.843  0.5346 -0.1226  0.6362
 5954TIP3    H242058   4.004   5.643   1.953 -0.4555 -0.4989  0.6944
 5955TIP3   OH242059   5.658   1.635   1.386  0.0693  0.4501 -0.2522
 5955TIP3    H142060   5.665   1.655   1.479  0.0258  2.3271 -0.6061
 5955TIP3    H242061   5.649   1.721   1.344 -2.0659 -0.4458 -1.8060
 5956TIP3   OH242062   5.350   0.369   8.704 -0.3004 -0.3321 -0.2303
 5956TIP3    H142063   5.423   0.430   8.694  1.1066 -1.6960  1.2877
 5956TIP3    H242064   5.321   0.352   8.614 -0.6107  2.3173 -0.7392
 5957TIP3   OH242065   3.317   5.307   1.166 -0.2388 -0.1881  0.0530
 5957TIP3    H142066   3.222   5.302   1.172 -0.1889 -0.7245  0.4105
 5957TIP3    H242067   3.347   5.311   1.257  0.1481 -1.4135 -0.0020
 5958TIP3   OH242068   0.154   2.025   2.701 -0.3306 -0.0352  0.0623
 5958TIP3    H142069   0.069   1.987   2.721 -0.7190  0.0748 -1.2852
 5958TIP3    H242070   0.178   2.075   2.779 -0.7998 -1.2892  1.0247
 5959TIP3   OH242071   1.152   5.856   1.076 -0.7799  0.0449  0.0019
 5959TIP3    H142072   1.068   5.854   1.121 -1.0049 -0.0135 -0.4221
 5959TIP3    H242073   1.132   5.885   0.987 -0.5775 -1.5803 -0.6017
 5960TIP3   OH242074   5.858   0.956   2.016 -0.2468  0.0546  0.0561
 5960TIP3    H142075   5.866   1.038   2.066 -1.3190 -0.3020  0.8782
 5960TIP3    H242076   5.851   0.888   2.084 -1.2070 -0.5054 -0.5768
 5961TIP3   OH242077   1.526   4.449   1.001  0.1600  0.4597  0.2746
 5961TIP3    H142078   1.537   4.451   1.096  0.5801 -0.1689  0.2463
 5961TIP3    H242079   1.491   4.535   0.979 -2.2994 -0.1778  1.2946
 5962TIP3   OH242080   2.734   0.480   1.269 -0.2991 -0.0521 -0.0785
 5962TIP3    H142081   2.643   0.450   1.270  0.0157 -1.0778 -0.3407
 5962TIP3    H242082   2.786   0.399   1.273  0.6081  0.3849 -1.7877
 5963TIP3   OH242083   5.838   1.017   0.551 -0.4456  0.3671 -0.4207
 5963TIP3    H142084   5.864   0.925   0.550 -0.4973  0.3362  0.4162
 5963TIP3    H242085   5.901   1.058   0.610  0.0093  1.0036 -1.3297
 5964TIP3   OH242086   0.646   3.502   2.244 -0.0997 -0.0960 -0.8071
 5964TIP3    H142087   0.715   3.438   2.226 -0.6135 -1.5606  1.8692
 5964TIP3    H242088   0.692   3.583   2.262  0.9688 -1.0278  0.8467
 5965TIP3   OH242089   4.209   0.978   1.548 -0.7880 -0.4636 -0.1590
 5965TIP3    H142090   4.217   1.072   1.533 -0.7372 -0.4416  0.0071
 5965TIP3    H242091   4.274   0.939   1.489 -0.8350 -0.3963 -0.2547
 5966TIP3   OH242092   5.677   6.226   1.138  0.3948  0.4900  0.0394
 5966TIP3    H142093   5.617   6.187   1.203  0.2124  0.9545  0.1529
 5966TIP3    H242094   5.737   6.279   1.190 -0.0317  1.2246 -0.2094
 5967TIP3   OH242095   1.257   3.663   0.583  0.0000 -0.0175  0.5193
 5967TIP3    H142096   1.285   3.709   0.662 -1.5611  0.8135  0.6403
 5967TIP3    H242097   1.161   3.670   0.584 -0.0355  2.1153 -2.6271
 5968TIP3   OH242098   5.117   7.251   1.856 -0.5013 -0.1431  0.3624
 5968TIP3    H142099   5.021   7.248   1.856 -0.5018 -0.5992  1.1133
 5968TIP3    H242100   5.140   7.300   1.777 -1.3935  1.1720  0.8793
 5969TIP3   OH242101   2.514   5.135   1.872  0.3246 -0.2495  0.1137
 5969TIP3    H142102   2.422   5.135   1.845  0.3915  0.9963 -0.2003
 5969TIP3    H242103   2.562   5.131   1.789  0.5366  0.7396  0.1748
 5970TIP3   OH242104   5.538   0.023   2.671 -0.4772 -0.1507  0.0743
 5970TIP3    H142105   5.484   0.004   2.595 -1.1792 -2.2450  1.0084
 5970TIP3    H242106   5.626  -0.005   2.646 -0.7138 -0.8723  0.0255
 5971TIP3   OH242107   4.086   6.728   1.498  0.0790  0.4448 -0.1256
 5971TIP3    H142108   4.106   6.650   1.446  1.8021  0.7740 -0.0199
 5971TIP3    H242109   3.992   6.741   1.486  0.1967 -0.1634 -2.2099
 5972TIP3   OH242110   1.271   4.508   2.804  0.6176  0.7156 -0.4240
 5972TIP3    H142111   1.185   4.546   2.824 -0.3303 -1.5662  0.1662
 5972TIP3    H242112   1.273   4.503   2.709 -1.4363 -2.2528 -0.4446
 5973TIP3   OH242113   0.575   5.088   2.168  0.1922 -0.2269 -0.1470
 5973TIP3    H142114   0.570   5.070   2.074  0.1134 -1.9977  0.1634
 5973TIP3    H242115   0.484   5.090   2.198  0.2213  0.2043 -0.0804
 5974TIP3   OH242116   7.281   2.191   2.683  0.0280 -0.2893  0.1170
 5974TIP3    H142117   7.291   2.281   2.712  1.4810 -0.7910  1.2876
 5974TIP3    H242118   7.364   2.149   2.706  0.2811 -1.3809 -2.4520
 5975TIP3   OH242119   0.980   5.195   1.721 -0.1882  0.0679 -0.8646
 5975TIP3    H142120   1.020   5.121   1.767  0.1023  0.2541 -0.8162
 5975TIP3    H242121   0.891   5.199   1.756 -0.2776 -0.3987 -1.0322
 5976TIP3   OH242122   6.342   2.210   2.983 -0.3516 -0.0737 -0.1325
 5976TIP3    H142123   6.398   2.222   3.060 -0.5524 -0.0939  0.0169
 5976TIP3    H242124   6.284   2.287   2.983 -1.5614 -0.9500  0.7608
 5977TIP3   OH242125   7.554   7.152   1.050 -0.6306 -0.3732 -0.1625
 5977TIP3    H142126   7.610   7.134   1.126 -1.2593 -0.4366  0.2906
 5977TIP3    H242127   7.615   7.175   0.980  0.0679 -1.8255 -0.0752
 5978TIP3   OH242128   3.388   3.943   1.485  0.3029  0.2131  0.7109
 5978TIP3    H142129   3.354   3.863   1.525  0.7994  0.0410  0.8044
 5978TIP3    H242130   3.458   3.912   1.427  0.2107  0.5448  0.4193
 5979TIP3   OH242131   6.816   4.993   2.962  0.1243 -0.1529  0.4086
 5979TIP3    H142132   6.855   4.968   2.879 -1.3617 -1.8828  0.1913
 5979TIP3    H242133   6.847   5.083   2.976 -0.0721  0.4225 -2.2853
 5980TIP3   OH242134   2.280   1.957   1.913  0.5462  0.2880  0.0625
 5980TIP3    H142135   2.334   1.898   1.859 -0.8123 -1.6149  0.6864
 5980TIP3    H242136   2.296   1.928   2.003 -1.2747 -0.1523  0.2810
 5981TIP3   OH242137   1.461   5.261   2.039  0.1170  0.3051  0.5058
 5981TIP3    H142138   1.454   5.355   2.057 -1.3712  0.0404  1.4313
 5981TIP3    H242139   1.535   5.255   1.978  1.2751  1.9061  1.6545
 5982TIP3   OH242140   2.678   1.751   2.065  0.1506 -0.2635  0.2655
 5982TIP3    H142141   2.671   1.686   1.995  0.7962 -0.8002  0.6918
 5982TIP3    H242142   2.689   1.699   2.145  1.3209  0.3747  0.5357
 5983TIP3   OH242143   0.703   3.207   2.280 -0.1673  0.0092 -0.6091
 5983TIP3    H142144   0.795   3.189   2.303 -0.5204  1.0713  2.0133
 5983TIP3    H242145   0.706   3.230   2.188  2.2099 -0.0866 -0.6290
 5984TIP3   OH242146   5.535   0.013   1.627 -0.2501 -0.1177  0.0605
 5984TIP3    H142147   5.532  -0.049   1.700  0.0479  0.4986  0.5974
 5984TIP3    H242148   5.535  -0.043   1.549  3.1630 -1.0186  0.5268
 5985TIP3   OH242149   7.643   5.317   0.767 -1.1071  0.5030  0.1038
 5985TIP3    H142150   7.714   5.316   0.831  0.5692  1.4891 -1.6150
 5985TIP3    H242151   7.620   5.225   0.754  2.4614 -0.2786 -1.9130
 5986TIP3   OH242152   6.891   2.196   1.896 -0.1656 -0.0816  0.0080
 5986TIP3    H142153   6.954   2.137   1.937 -1.0687  0.3480  2.1265
 5986TIP3    H242154   6.945   2.258   1.846  1.0267 -0.3093  0.9805
 5987TIP3   OH242155   5.879   3.830   2.581  0.0083  0.5480 -0.0499
 5987TIP3    H142156   5.812   3.762   2.570  0.3868  0.1247  0.2458
 5987TIP3    H242157   5.914   3.844   2.493 -0.8164  1.1409 -0.2991
 5988TIP3   OH242158   5.811   4.872   1.441  0.4088  0.0529  0.2611
 5988TIP3    H142159   5.769   4.796   1.401  0.1010  0.2652  0.1818
 5988TIP3    H242160   5.741   4.936   1.452  0.3162 -0.2835  1.8948
 5989TIP3   OH242161   0.365   4.368   3.920  0.0433 -0.6239  0.7622
 5989TIP3    H142162   0.412   4.381   3.837  2.3253  1.9892  2.2683
 5989TIP3    H242163   0.409   4.294   3.961  0.1779 -0.7235  0.4438
 5990TIP3   OH242164   0.122   4.184   2.846 -0.0847  0.2563  0.4878
 5990TIP3    H142165   0.152   4.144   2.928 -0.2689  0.8521  0.8582
 5990TIP3    H242166   0.096   4.111   2.791 -1.6751 -0.1019  1.6456
 5991TIP3   OH242167   7.362   2.090   3.905 -0.0084  0.2068 -0.0959
 5991TIP3    H142168   7.348   2.177   3.868 -1.4517  1.1547  2.4445
 5991TIP3    H242169   7.275   2.050   3.907  0.5585 -1.1051 -0.7453
 5992TIP3   OH242170   1.077   6.728   1.968 -0.2133  0.6388  0.2000
 5992TIP3    H142171   0.997   6.780   1.968 -0.0233  0.9728 -1.1615
 5992TIP3    H242172   1.079   6.688   1.881 -0.0519 -1.1845  0.9951
 5993TIP3   OH242173   6.743   5.062   2.582 -0.6236  0.1268  0.0460
 5993TIP3    H142174   6.662   5.022   2.614 -0.3033  0.0215  0.7357
 5993TIP3    H242175   6.763   5.013   2.502 -0.9604 -0.1903  0.1512
 5994TIP3   OH242176   1.291   2.562   2.860 -0.2567  0.3402 -0.2890
 5994TIP3    H142177   1.304   2.488   2.919  0.8233  1.7234  1.3076
 5994TIP3    H242178   1.250   2.630   2.914 -0.2231  1.2890 -1.4065
 5995TIP3   OH242179   6.259   3.968   1.242  0.0473  0.7386 -0.1917
 5995TIP3    H142180   6.250   3.996   1.150 -2.6470  2.1512  0.4081
 5995TIP3    H242181   6.282   4.049   1.289  0.3873  0.2239  0.5471
 5996TIP3   OH242182   7.203   4.817   2.443 -0.1393 -0.5229  0.3524
 5996TIP3    H142183   7.140   4.788   2.508 -0.1620  1.2537  1.1802
 5996TIP3    H242184   7.287   4.816   2.489 -0.0839  0.2999  0.2869
 5997TIP3   OH242185   2.059   5.553   2.194  0.3500  0.3563  0.2614
 5997TIP3    H142186   1.994   5.564   2.125 -2.1301 -0.6671  2.2627
 5997TIP3    H242187   2.018   5.590   2.273  2.0957 -0.5247  1.6694
 5998TIP3   OH242188   6.884   5.119   2.228  0.1697  0.0893  0.4217
 5998TIP3    H142189   6.866   5.033   2.266 -0.9256  0.3431  0.5052
 5998TIP3    H242190   6.813   5.174   2.260 -0.0685  0.6179 -0.9819
 5999TIP3   OH242191   7.029   7.536   1.548  0.3219 -0.6340 -0.0938
 5999TIP3    H142192   7.025   7.548   1.643 -0.8459  0.0114 -0.1984
 5999TIP3    H242193   6.999   7.447   1.533 -2.1897  0.0962  0.0209
 6000TIP3   OH242194   0.500   6.841   3.347  0.3929  0.3515  0.6521
 6000TIP3    H142195   0.583   6.799   3.370 -0.6229 -1.1177  1.8386
 6000TIP3    H242196   0.441   6.768   3.327 -0.6758  1.3495  0.0551
 6001TIP3   OH242197   2.009   2.644   2.419  0.2010 -0.1512  0.2676
 6001TIP3    H142198   2.077   2.597   2.467 -1.4155 -2.8797  0.1347
 6001TIP3    H242199   2.054   2.683   2.345  1.9150 -0.1541  1.2515
 6002TIP3   OH242200   2.419   3.306   2.335 -0.1946 -0.0367  0.2610
 6002TIP3    H142201   2.371   3.337   2.258 -1.0725 -1.6302  0.1249
 6002TIP3    H242202   2.466   3.383   2.366  0.0024  0.7160 -1.7243
 6003TIP3   OH242203   3.000   0.603   1.831 -0.7038 -0.5643  0.5337
 6003TIP3    H142204   2.965   0.650   1.756 -1.0888 -3.1764 -1.0095
 6003TIP3    H242205   2.924   0.559   1.870 -0.0408 -1.7631  0.5184
 6004TIP3   OH242206   6.576   0.250   1.528  0.0007 -0.2487 -0.3596
 6004TIP3    H142207   6.519   0.302   1.584  0.7530  0.0958  0.0976
 6004TIP3    H242208   6.554   0.159   1.550 -0.5300 -0.1242 -0.3575
 6005TIP3   OH242209   5.422   3.482   0.738 -0.3015  0.4219  0.4707
 6005TIP3    H142210   5.513   3.496   0.712 -0.5346  2.7381  0.6916
 6005TIP3    H242211   5.427   3.447   0.827  0.3722  0.4390  0.4427
 6006TIP3   OH242212   4.170   0.119   2.374 -0.3307  0.1176 -0.0849
 6006TIP3    H142213   4.090   0.127   2.321 -0.6846 -0.6808  0.3105
 6006TIP3    H242214   4.198   0.029   2.360 -1.0511 -0.4658  1.9245
 6007TIP3   OH242215   5.255   4.612   1.474 -0.0602 -0.0400  0.0841
 6007TIP3    H142216   5.343   4.600   1.510  0.4581  0.8457 -0.8382
 6007TIP3    H242217   5.200   4.555   1.527  1.1948 -1.2618  0.1449
 6008TIP3   OH242218   1.824   2.185   2.061 -0.1021 -0.6921 -0.0483
 6008TIP3    H142219   1.869   2.115   2.109  0.6649 -1.5682 -1.9313
 6008TIP3    H242220   1.849   2.171   1.970 -0.9827  1.2828 -0.6474
 6009TIP3   OH242221   1.886   0.654   1.239 -0.6400  0.1644  0.1413
 6009TIP3    H142222   1.886   0.575   1.186  0.8278  0.5823 -0.5280
 6009TIP3    H242223   1.798   0.689   1.230 -1.0853 -0.9874 -0.1539
 6010TIP3   OH242224   5.742   7.293   1.556 -0.3728 -0.0337  0.4812
 6010TIP3    H142225   5.813   7.318   1.497 -1.8393  1.9081 -0.5519
 6010TIP3    H242226   5.690   7.230   1.506 -0.4759  0.0628  0.4649
 6011TIP3   OH242227   0.549   2.962   1.714 -0.8292 -0.5059 -0.2290
 6011TIP3    H142228   0.596   2.937   1.634  0.9400  2.7211 -0.3323
 6011TIP3    H242229   0.608   2.936   1.785  0.8342  2.5340 -0.3260
 6012TIP3   OH242230   0.267   3.565   2.742  0.1656  0.7779  0.3656
 6012TIP3    H142231   0.240   3.525   2.660  0.4927 -0.0071  0.6239
 6012TIP3    H242232   0.208   3.639   2.754 -1.4317 -0.4570  0.5743
 6013TIP3   OH242233   2.384   4.102   1.604  0.6685  0.1199  0.2345
 6013TIP3    H142234   2.382   4.095   1.509  0.0549  1.6678  0.1107
 6013TIP3    H242235   2.328   4.030   1.634  1.4364 -0.8240 -0.5158
 6014TIP3   OH242236   3.246   2.868   2.058 -0.2558 -0.3072 -0.4589
 6014TIP3    H142237   3.192   2.907   1.990 -1.0074 -0.9669 -0.2683
 6014TIP3    H242238   3.202   2.785   2.078  1.2868 -1.2744 -0.8759
 6015TIP3   OH242239   3.457   3.064   2.010  0.2811 -0.1720 -0.2665
 6015TIP3    H142240   3.386   3.002   2.026 -0.3531  0.8070  1.0217
 6015TIP3    H242241   3.495   3.079   2.097  0.9112  0.6376 -0.6672
 6016TIP3   OH242242   3.189   0.256   1.231  0.2106  0.1426  0.9617
 6016TIP3    H142243   3.209   0.165   1.210 -0.9830 -0.2759  1.5196
 6016TIP3    H242244   3.274   0.299   1.238  0.8002 -1.0137  1.0611
 6017TIP3   OH242245   4.033   4.813   1.388  0.0718  0.0562 -0.1570
 6017TIP3    H142246   4.069   4.761   1.317  2.6025  1.7072 -0.1930
 6017TIP3    H242247   4.080   4.784   1.466  0.1257  0.9289  0.1547
 6018TIP3   OH242248   7.634   6.220   2.284  0.4273 -0.4520 -0.5825
 6018TIP3    H142249   7.707   6.273   2.316 -0.1030  1.3620 -2.1874
 6018TIP3    H242250   7.577   6.282   2.239 -3.2334 -1.3795  2.2870
 6019TIP3   OH242251   4.396   5.866   2.571 -0.9021 -0.0364  0.3107
 6019TIP3    H142252   4.359   5.871   2.659 -0.0571 -0.1186  0.6829
 6019TIP3    H242253   4.375   5.950   2.531  0.5006  0.8543  1.3414
 6020TIP3   OH242254   1.737   3.539   1.743  0.3992  0.0864 -0.6945
 6020TIP3    H142255   1.749   3.581   1.828  0.1737 -0.3124 -0.4602
 6020TIP3    H242256   1.825   3.515   1.715  0.5515  0.9029 -0.9305
 6021TIP3   OH242257   2.822   4.996   1.827  0.0758 -0.6994 -0.0543
 6021TIP3    H142258   2.736   4.976   1.790  0.1659 -0.5508 -0.3528
 6021TIP3    H242259   2.880   4.997   1.751 -0.1231  1.9205 -0.2595
 6022TIP3   OH242260   1.197   6.374   3.112 -0.0948  0.1501  0.3153
 6022TIP3    H142261   1.233   6.411   3.031 -0.5154  3.0704  1.3612
 6022TIP3    H242262   1.272   6.335   3.156  0.8452  1.6895  0.1311
 6023TIP3   OH242263   0.786   0.448   2.198 -0.0354 -0.4768 -0.0515
 6023TIP3    H142264   0.854   0.401   2.248  0.8230 -0.8336 -1.4800
 6023TIP3    H242265   0.770   0.392   2.122 -1.1571  0.1510 -0.2957
 6024TIP3   OH242266   0.540   0.458   1.877 -0.1596 -0.1855 -0.3019
 6024TIP3    H142267   0.550   0.367   1.851 -0.0538  0.1442 -1.4690
 6024TIP3    H242268   0.628   0.487   1.897 -0.2060 -0.3607  0.1723
 6025TIP3   OH242269   1.904   1.189   1.883 -0.0276  0.1121  0.1329
 6025TIP3    H142270   1.941   1.250   1.820  1.1998 -0.4140  0.3029
 6025TIP3    H242271   1.810   1.205   1.881  0.1276  0.9731 -0.8949
 6026TIP3   OH242272   2.433   2.754   0.599 -0.2235 -0.4422  0.3240
 6026TIP3    H142273   2.488   2.695   0.650 -0.0668 -0.7415 -0.1854
 6026TIP3    H242274   2.382   2.697   0.542 -2.2687 -0.2862  1.9025
 6027TIP3   OH242275   1.334   0.623   2.629 -0.2758 -0.3375  0.4892
 6027TIP3    H142276   1.269   0.605   2.696  0.7933 -0.5431  1.5125
 6027TIP3    H242277   1.351   0.537   2.589 -0.7524 -0.2530  0.0975
 6028TIP3   OH242278   6.793   4.897   2.372  0.2450 -0.2597  0.6171
 6028TIP3    H142279   6.853   4.825   2.354  0.4133  0.4086 -1.9200
 6028TIP3    H242280   6.718   4.882   2.314  0.3117  1.5748 -0.0274
 6029TIP3   OH242281   6.396   6.017   2.117 -0.2742 -0.1561  0.2456
 6029TIP3    H142282   6.398   6.085   2.050 -2.5637 -0.7466 -0.5346
 6029TIP3    H242283   6.482   5.976   2.113  0.1028  0.7191 -1.4039
 6030TIP3   OH242284   7.136   5.053   1.276  0.7946 -0.2194  0.1687
 6030TIP3    H142285   7.105   4.968   1.309 -0.1179 -0.4970 -1.2767
 6030TIP3    H242286   7.057   5.096   1.244  1.6266 -0.1749 -1.9939
 6031TIP3   OH242287   4.887   1.664   2.648  0.2041 -0.0585 -0.2133
 6031TIP3    H142288   4.974   1.633   2.670  0.9896 -0.0207 -2.8860
 6031TIP3    H242289   4.868   1.625   2.562 -1.9278  0.8540 -0.2391
 6032TIP3   OH242290   2.850   2.505   1.981 -0.0193  0.2345  0.3669
 6032TIP3    H142291   2.775   2.556   2.014 -0.0484  0.0389  0.6059
 6032TIP3    H242292   2.833   2.416   2.011 -1.2516 -0.4694 -2.1634
 6033TIP3   OH242293   4.756   5.522   1.586  0.2100  0.2896 -0.1171
 6033TIP3    H142294   4.816   5.495   1.656  0.8036  1.1903 -0.2637
 6033TIP3    H242295   4.808   5.513   1.506 -0.2042  0.0464 -0.3586
 6034TIP3   OH242296   4.360   5.143   0.398  0.1822 -0.0395 -0.1075
 6034TIP3    H142297   4.434   5.125   0.339 -0.0911  0.4788 -0.6097
 6034TIP3    H242298   4.401   5.162   0.482  0.5991 -0.2359 -0.2619
 6035TIP3   OH242299   2.781   2.095   3.006  0.1153 -0.1650 -0.0245
 6035TIP3    H142300   2.801   2.186   3.028 -2.6114  0.9100 -1.5572
 6035TIP3    H242301   2.698   2.077   3.051 -1.3988 -0.5285 -2.7596
 6036TIP3   OH242302   4.874   5.183   1.400  0.4629 -0.5453  0.1154
 6036TIP3    H142303   4.876   5.113   1.335 -2.0230 -0.0548 -0.6121
 6036TIP3    H242304   4.841   5.141   1.480  1.0999 -0.6430  0.3287
 6037TIP3   OH242305   5.710   6.802   1.391 -0.1969 -0.6892  0.4878
 6037TIP3    H142306   5.691   6.751   1.312 -0.8378 -0.0761  0.2319
 6037TIP3    H242307   5.770   6.748   1.441  2.3156 -0.0205 -1.5996
 6038TIP3   OH242308   3.363   5.894   2.798 -0.7021 -0.0655 -0.0936
 6038TIP3    H142309   3.367   5.883   2.893  0.7133  0.0038 -0.1147
 6038TIP3    H242310   3.332   5.809   2.766 -1.4084 -0.0189  0.4339
 6039TIP3   OH242311   3.280   5.251   2.497 -0.1483  0.3647  0.3181
 6039TIP3    H142312   3.195   5.293   2.507 -0.1412  0.2465  0.9163
 6039TIP3    H242313   3.313   5.283   2.413  0.3413  2.4680  1.2201
 6040TIP3   OH242314   7.147   5.178   2.573 -0.2155  0.0875 -0.3698
 6040TIP3    H142315   7.137   5.182   2.478 -1.4165 -0.0168 -0.2575
 6040TIP3    H242316   7.219   5.238   2.592 -1.2429  1.6418 -1.1557
 6041TIP3   OH242317   6.602   4.686   1.318  0.1639 -0.1393 -0.2677
 6041TIP3    H142318   6.585   4.742   1.394 -2.0047  0.4019 -1.0783
 6041TIP3    H242319   6.671   4.731   1.270 -0.2758  0.9148  0.0474
 6042TIP3   OH242320   3.948   7.286   2.169  0.5345  0.7906 -0.2338
 6042TIP3    H142321   3.901   7.316   2.247  0.9263 -0.2023  0.4050
 6042TIP3    H242322   3.908   7.334   2.097 -0.8177  0.6686  0.4010
 6043TIP3   OH242323   2.549   0.535   1.836  0.4473 -0.1171 -0.4399
 6043TIP3    H142324   2.578   0.475   1.768 -2.0304 -0.3753 -1.3967
 6043TIP3    H242325   2.548   0.621   1.793  1.3944  0.1591  0.0874
 6044TIP3   OH242326   1.298   4.621   1.980  0.0288  0.1373 -0.1624
 6044TIP3    H142327   1.342   4.543   1.947  0.0376  0.1744 -0.2402
 6044TIP3    H242328   1.328   4.691   1.921  0.4384  0.2971  0.2300
 6045TIP3   OH242329   6.996   3.972   3.094  0.6068  0.6803 -0.3483
 6045TIP3    H142330   7.012   4.006   3.182  1.1385  1.5806 -0.7766
 6045TIP3    H242331   7.028   3.882   3.096 -0.2669  0.3667  0.6421
 6046TIP3   OH242332   5.664   6.687   0.647  0.0713 -0.2916 -0.1833
 6046TIP3    H142333   5.680   6.759   0.585 -0.6717  0.0252 -0.0231
 6046TIP3    H242334   5.572   6.696   0.670  0.2564 -0.6045  0.7220
 6047TIP3   OH242335   5.081   4.874   2.005  0.4125 -0.4232  0.1440
 6047TIP3    H142336   5.162   4.912   2.040 -0.5046  1.4775  0.3602
 6047TIP3    H242337   5.032   4.846   2.083  0.2103 -0.1258  0.1283
 6048TIP3   OH242338   1.756   3.893   0.931 -0.0172  0.0007  0.4655
 6048TIP3    H142339   1.699   3.855   0.998  1.6170 -1.0699  1.2974
 6048TIP3    H242340   1.790   3.973   0.970 -2.1358  1.5475 -0.6517
 6049TIP3   OH242341   5.551   5.925   3.151 -0.0837 -0.0744  0.8640
 6049TIP3    H142342   5.495   5.987   3.103  0.4797  0.3067  0.6930
 6049TIP3    H242343   5.491   5.884   3.214 -0.4824  0.6037  0.9435
 6050TIP3   OH242344   4.157   5.277   0.555 -0.0319 -0.2719  0.0972
 6050TIP3    H142345   4.076   5.312   0.516  0.2447 -0.2536 -0.4688
 6050TIP3    H242346   4.195   5.222   0.487  0.7363  0.1916  0.1391
 6051TIP3   OH242347   3.149   7.655   2.869 -0.5081 -0.4181  0.3179
 6051TIP3    H142348   3.177   7.567   2.895 -1.1928 -0.5487  0.6495
 6051TIP3    H242349   3.071   7.640   2.816 -0.6542 -0.0078  0.4162
 6052TIP3   OH242350   1.348   2.818   0.695 -0.3460  0.4399  0.2662
 6052TIP3    H142351   1.278   2.812   0.759 -0.6625 -0.5754 -0.1683
 6052TIP3    H242352   1.417   2.761   0.729 -1.0293 -1.1581 -0.9145
 6053TIP3   OH242353   1.596   0.726   2.307 -0.2858  0.0877  0.3430
 6053TIP3    H142354   1.660   0.692   2.370 -0.2155  0.9364  0.7421
 6053TIP3    H242355   1.551   0.648   2.274 -0.5399 -0.3467  1.6724
 6054TIP3   OH242356   7.554   2.452   2.056  0.1906 -0.1675 -0.1747
 6054TIP3    H142357   7.584   2.396   2.128  0.1231 -0.8761 -0.6922
 6054TIP3    H242358   7.629   2.510   2.040 -0.1351  0.6408  1.0864
 6055TIP3   OH242359   3.450   3.896   3.305 -0.1768  0.4098 -0.0029
 6055TIP3    H142360   3.411   3.811   3.326 -0.6449  0.9016  1.2582
 6055TIP3    H242361   3.381   3.943   3.258  0.7866 -0.6044 -2.5384
 6056TIP3   OH242362   3.789   6.028   0.882  0.2109 -0.0251  0.2337
 6056TIP3    H142363   3.788   6.123   0.868  1.4923 -0.0933 -0.4262
 6056TIP3    H242364   3.861   6.013   0.943  1.1022 -0.7244 -0.9660
 6057TIP3   OH242365   3.078   0.292   1.699 -0.4489  0.1914  0.0986
 6057TIP3    H142366   3.151   0.320   1.644 -0.4840 -0.6511 -0.4027
 6057TIP3    H242367   3.090   0.339   1.782  1.1184 -0.5285  0.3103
 6058TIP3   OH242368   5.031   1.564   1.124 -0.0145 -0.5173  0.1236
 6058TIP3    H142369   4.956   1.621   1.140 -0.1742 -0.8949  0.7226
 6058TIP3    H242370   5.071   1.551   1.210  1.1428  0.2252 -0.2748
 6059TIP3   OH242371   2.556   5.108   0.848  0.4693 -0.2168 -0.0304
 6059TIP3    H142372   2.521   5.197   0.855  0.0825 -0.4159  0.7502
 6059TIP3    H242373   2.497   5.064   0.787  0.0668 -0.2070  0.3442
 6060TIP3   OH242374   4.431   0.778   0.526  0.0103  0.0546  0.3403
 6060TIP3    H142375   4.371   0.834   0.575 -0.4317  0.4223 -0.5956
 6060TIP3    H242376   4.479   0.838   0.469 -1.1856 -0.5688 -1.4196
 6061TIP3   OH242377   7.353   3.720   2.841  0.2387 -0.3388  0.2388
 6061TIP3    H142378   7.321   3.736   2.752 -1.0419  0.3131  0.7991
 6061TIP3    H242379   7.394   3.634   2.836  0.2978 -0.2597 -1.0088
 6062TIP3   OH242380   1.410   4.444   1.616 -0.0567 -0.1921  0.7950
 6062TIP3    H142381   1.421   4.453   1.710 -0.9310  0.0628  0.8741
 6062TIP3    H242382   1.428   4.531   1.581 -0.8787  0.0040  0.8418
 6063TIP3   OH242383   3.490   7.131   1.157  0.2910  0.0671 -0.1737
 6063TIP3    H142384   3.430   7.160   1.226  0.9215 -0.6963  0.7201
 6063TIP3    H242385   3.438   7.072   1.103 -0.0402  0.1962  0.0003
 6064TIP3   OH242386   0.521   4.132   2.457  0.4640  0.2513 -0.6330
 6064TIP3    H142387   0.572   4.070   2.509 -1.3746 -0.8421 -0.0833
 6064TIP3    H242388   0.503   4.205   2.516  3.5911  2.0100 -1.5903
 6065TIP3   OH242389   0.828   3.058   2.751  0.0070  0.2003  0.2056
 6065TIP3    H142390   0.851   3.044   2.659 -0.6712 -0.0085  0.0569
 6065TIP3    H242391   0.738   3.024   2.758 -0.3152  1.1121  0.7061
 6066TIP3   OH242392   0.235   3.474   0.352  0.5695  0.3220  0.1174
 6066TIP3    H142393   0.155   3.523   0.369  0.5977  0.2711  0.4173
 6066TIP3    H242394   0.206   3.394   0.309  0.6244  1.1109 -1.4583
 6067TIP3   OH242395   0.064   4.125   1.303 -0.2991 -0.1219 -0.2378
 6067TIP3    H142396   0.149   4.103   1.266 -0.3734  1.3070 -1.3623
 6067TIP3    H242397   0.007   4.138   1.227 -0.5957  2.3602  0.3191
 6068TIP3   OH242398   0.794   3.909   3.144  0.5015 -0.1370 -0.1376
 6068TIP3    H142399   0.783   3.982   3.205 -1.0641  0.4566 -1.0854
 6068TIP3    H242400   0.821   3.835   3.199 -1.2336  0.2756  1.3426
 6069TIP3   OH242401   7.402   4.908   1.084  0.1917  0.1432 -0.2514
 6069TIP3    H142402   7.464   4.974   1.115 -0.5627  0.7197  0.0960
 6069TIP3    H242403   7.349   4.954   1.019 -0.4212 -0.0789  0.0786
 6070TIP3   OH242404   4.285   3.289   2.902  0.2281 -0.0205 -0.2580
 6070TIP3    H142405   4.240   3.313   2.821  0.4240  0.1738 -0.3116
 6070TIP3    H242406   4.317   3.200   2.886  1.7472  0.6345 -1.0571
 6071TIP3   OH242407   1.560   0.174   2.005 -0.4297  0.1981 -0.5534
 6071TIP3    H142408   1.645   0.181   2.048 -0.4392 -1.8166 -0.0898
 6071TIP3    H242409   1.510   0.248   2.039  0.7204  0.6856  0.1494
 6072TIP3   OH242410   5.873   7.297   2.703  0.5190  0.2800  0.1619
 6072TIP3    H142411   5.943   7.360   2.688  2.4686 -0.8116  3.4496
 6072TIP3    H242412   5.915   7.212   2.692 -0.9609 -0.4418 -0.1265
 6073TIP3   OH242413   1.715   1.331   2.693  0.1855 -0.7182  0.2048
 6073TIP3    H142414   1.655   1.268   2.653  1.3184 -2.6446  1.3382
 6073TIP3    H242415   1.666   1.413   2.698 -0.7717 -0.9588 -2.9788
 6074TIP3   OH242416   1.912   7.211   2.748 -0.5141 -0.3212 -0.2561
 6074TIP3    H142417   1.827   7.247   2.774 -0.4660 -0.8639  0.7351
 6074TIP3    H242418   1.967   7.224   2.825  0.0164 -0.8655 -0.5384
 6075TIP3   OH242419   1.313   4.809   3.076 -0.0454  0.1508 -0.4576
 6075TIP3    H142420   1.295   4.749   3.149  0.6120 -0.6223 -0.9070
 6075TIP3    H242421   1.375   4.872   3.113  1.2923 -0.9796 -0.6449
 6076TIP3   OH242422   7.385   1.601   1.760  0.5465 -0.7055  0.3350
 6076TIP3    H142423   7.395   1.670   1.826 -0.0563 -0.2791 -0.0073
 6076TIP3    H242424   7.424   1.639   1.681 -1.0819 -0.1791 -0.2363
 6077TIP3   OH242425   3.298   3.376   0.923  0.0842  0.1855 -0.4682
 6077TIP3    H142426   3.314   3.298   0.977  0.5646  0.7116  0.1739
 6077TIP3    H242427   3.218   3.414   0.959  1.1472  1.3008  0.8264
 6078TIP3   OH242428   5.716   6.567   2.204  0.4686 -0.0571  0.0539
 6078TIP3    H142429   5.652   6.638   2.208  0.7071  0.0913  2.0533
 6078TIP3    H242430   5.742   6.553   2.295  0.0650 -3.0470 -0.1927
 6079TIP3   OH242431   2.456   0.495   1.286  0.1160  0.0155  0.0005
 6079TIP3    H142432   2.430   0.412   1.248  0.9391  0.0438 -0.6570
 6079TIP3    H242433   2.375   0.544   1.297 -0.1819 -0.1492 -1.3576
 6080TIP3   OH242434   0.269   2.010   3.160 -0.1772 -0.0024 -0.4196
 6080TIP3    H142435   0.240   2.014   3.251  1.1764  3.0402 -0.0111
 6080TIP3    H242436   0.359   1.977   3.166 -0.8888 -2.2145 -0.9764
 6081TIP3   OH242437   5.405   6.512   1.221  0.2458  0.5689  0.4363
 6081TIP3    H142438   5.341   6.582   1.211 -0.8505 -0.7223 -4.0578
 6081TIP3    H242439   5.353   6.434   1.240  1.1307  0.3268  2.0736
 6082TIP3   OH242440   4.325   0.006   3.330 -0.1907  0.2469  0.0020
 6082TIP3    H142441   4.321   0.047   3.416 -1.8273 -2.3197  1.2429
 6082TIP3    H242442   4.237   0.018   3.293 -0.6362 -1.7991  0.2946
 6083TIP3   OH242443   4.558   6.082   1.955 -0.2021 -0.6854 -0.6042
 6083TIP3    H142444   4.469   6.049   1.968 -0.7995  0.5509 -1.3578
 6083TIP3    H242445   4.590   6.102   2.043 -0.9437 -0.4815 -0.3786
 6084TIP3   OH242446   3.340   3.524   2.488 -0.3218 -0.4254 -0.2159
 6084TIP3    H142447   3.332   3.618   2.473  1.0681 -0.1102  0.8680
 6084TIP3    H242448   3.304   3.511   2.576  0.2706 -0.7726 -0.0217
 6085TIP3   OH242449   2.370   3.911   3.292 -0.4878 -0.4052 -0.2364
 6085TIP3    H142450   2.451   3.894   3.339  0.3917 -0.5886 -1.7593
 6085TIP3    H242451   2.320   3.829   3.300 -1.4553  0.3621  2.3873
 6086TIP3   OH242452   1.227   4.922   1.001 -0.1086  0.4291 -0.1649
 6086TIP3    H142453   1.159   4.910   0.934  1.1023  1.4777 -1.6648
 6086TIP3    H242454   1.261   5.010   0.985  0.9099  0.3184  1.1988
 6087TIP3   OH242455   6.127   2.947   1.455  0.0449  0.6707 -0.3245
 6087TIP3    H142456   6.114   3.011   1.386  1.7146  0.5408 -0.7949
 6087TIP3    H242457   6.137   2.863   1.410  1.2725  0.6014  0.0246
 6088TIP3   OH242458   0.865   6.622   0.760 -0.5302  0.6326  0.3540
 6088TIP3    H142459   0.857   6.662   0.847 -1.0587 -1.1346  1.1697
 6088TIP3    H242460   0.856   6.528   0.776  0.5380  0.1719 -1.4903
 6089TIP3   OH242461   1.529   3.007   3.039  0.1934  0.0078  0.3614
 6089TIP3    H142462   1.551   3.056   3.119 -0.5028  1.3538 -0.2415
 6089TIP3    H242463   1.555   2.917   3.059 -0.3429  0.2138  2.2819
 6090TIP3   OH242464   1.241   2.085   0.919  0.3369  0.2003  0.1542
 6090TIP3    H142465   1.196   2.119   0.842 -0.2149  1.2531  0.9160
 6090TIP3    H242466   1.332   2.113   0.908  0.2249  0.4994 -0.0203
 6091TIP3   OH242467   2.566   0.007   1.513  0.2243 -0.9326 -0.4146
 6091TIP3    H142468   2.643  -0.003   1.458  0.9821 -0.8916  0.6195
 6091TIP3    H242469   2.587   0.078   1.573 -1.2620  0.2174 -1.1754
 6092TIP3   OH242470   0.687   1.789   1.764 -0.6792  0.5264 -0.2649
 6092TIP3    H142471   0.634   1.742   1.700  0.3610 -0.4630 -0.4311
 6092TIP3    H242472   0.664   1.748   1.848 -0.8898  0.7608 -0.2070
 6093TIP3   OH242473   5.990   4.139   1.254 -0.0145  0.2037 -0.5228
 6093TIP3    H142474   5.987   4.084   1.175  0.0521  1.9256 -1.7861
 6093TIP3    H242475   5.918   4.201   1.242  0.6758  1.1828  0.2369
 6094TIP3   OH242476   1.138   6.350   2.782  0.0861 -0.3802  0.0215
 6094TIP3    H142477   1.153   6.256   2.793 -0.5423 -0.6415 -1.1601
 6094TIP3    H242478   1.224   6.390   2.796  0.5755 -1.2264 -0.4930
 6095TIP3   OH242479   7.079   4.145   0.637 -0.2541 -0.2319  0.0892
 6095TIP3    H142480   7.070   4.054   0.663  0.0497 -0.7764 -1.5637
 6095TIP3    H242481   7.118   4.189   0.713 -0.2617 -1.5032  0.8432
 6096TIP3   OH242482   4.133   1.136   1.897  0.3494  0.1840  0.4302
 6096TIP3    H142483   4.060   1.178   1.942  1.6861  0.0747  2.9059
 6096TIP3    H242484   4.179   1.087   1.966  1.6050 -1.4161 -1.4153
 6097TIP3   OH242485   4.534   2.665   1.755 -0.3161 -0.0411 -0.5197
 6097TIP3    H142486   4.529   2.731   1.685 -0.7319  2.7194  1.9041
 6097TIP3    H242487   4.623   2.674   1.789 -0.5922 -0.2847  0.2752
 6098TIP3   OH242488   6.488   7.438   1.277 -0.2496 -0.5988  0.1874
 6098TIP3    H142489   6.412   7.420   1.332  0.1997  0.5704  1.2537
 6098TIP3    H242490   6.490   7.366   1.214 -0.8125 -1.9931  1.6766
 6099TIP3   OH242491   6.114   7.604   2.130 -0.5299  0.1032 -0.3014
 6099TIP3    H142492   6.194   7.590   2.180 -0.1871  4.0860  0.6613
 6099TIP3    H242493   6.046   7.620   2.196 -0.9040  1.7124 -1.0067
 6100TIP3   OH242494   7.113   3.712   3.002 -0.0777  0.5607  0.3953
 6100TIP3    H142495   7.182   3.737   2.942 -0.4251 -0.0355 -0.2755
 6100TIP3    H242496   7.158   3.669   3.075  0.2085 -1.0767 -0.6764
 6101TIP3   OH242497   0.773   7.175   2.657  0.3855 -0.0464 -0.2650
 6101TIP3    H142498   0.827   7.252   2.673 -1.9170  1.4058  0.9387
 6101TIP3    H242499   0.801   7.144   2.570  1.2676  2.2080 -0.8561
 6102TIP3   OH242500   4.625   5.639   1.807 -0.2718 -0.2737  0.6281
 6102TIP3    H142501   4.652   5.614   1.718 -0.2091 -1.7524  1.0286
 6102TIP3    H242502   4.623   5.734   1.806 -1.1471 -0.2781 -1.2235
 6103TIP3   OH242503   5.719   3.026   2.683  0.0123  0.1075  0.1947
 6103TIP3    H142504   5.776   2.999   2.754  0.9255  0.2469 -0.4702
 6103TIP3    H242505   5.634   3.041   2.725 -0.3194 -2.8109  0.7413
 6104TIP3   OH242506   1.819   0.100   1.801 -0.1028  0.3012 -0.1061
 6104TIP3    H142507   1.761   0.062   1.866  0.7548 -0.9674 -0.0484
 6104TIP3    H242508   1.767   0.103   1.721 -0.2451 -0.8483 -0.0661
 6105TIP3   OH242509   3.650   4.295   0.340 -0.4875  0.4884  0.1886
 6105TIP3    H142510   3.673   4.266   0.252 -1.2264 -1.6236  0.6322
 6105TIP3    H242511   3.709   4.368   0.357  0.1403  0.5063 -1.7822
 6106TIP3   OH242512   7.423   5.262   2.587 -0.6136 -0.0685  0.0429
 6106TIP3    H142513   7.496   5.218   2.632  0.2196  0.5179 -0.6938
 6106TIP3    H242514   7.428   5.230   2.497  0.5096  2.0479 -0.7221
 6107TIP3   OH242515   5.539   3.999   1.153 -0.4316 -0.6688 -0.6386
 6107TIP3    H142516   5.479   4.072   1.168 -0.2057 -0.7609  0.8562
 6107TIP3    H242517   5.603   4.034   1.091  0.7197  1.0825  1.4001
 6108TIP3   OH242518   0.446   5.372   1.261  0.3549 -0.3046 -0.0458
 6108TIP3    H142519   0.446   5.467   1.253 -0.0497 -0.4469 -2.9122
 6108TIP3    H242520   0.371   5.352   1.317 -0.2908  1.0324 -0.3944
 6109TIP3   OH242521   6.668   6.317   0.503  0.1347 -0.2561 -0.7523
 6109TIP3    H142522   6.661   6.294   0.411  0.8456  2.2351 -1.4953
 6109TIP3    H242523   6.577   6.319   0.534 -0.2737  0.8372 -1.9428
 6110TIP3   OH242524   0.086   4.883   1.970  0.2247 -0.3991  0.5389
 6110TIP3    H142525   0.138   4.924   1.901  0.8471 -0.3021  1.0479
 6110TIP3    H242526   0.012   4.843   1.924  0.8399 -0.6877 -0.2348
 6111TIP3   OH242527   1.384   0.532   2.270  0.0413 -0.5572 -0.6723
 6111TIP3    H142528   1.301   0.579   2.281  2.8215  5.0700 -0.3712
 6111TIP3    H242529   1.401   0.494   2.356 -0.9049  0.8544  0.1919
 6112TIP3   OH242530   2.791   1.743   2.706  0.0690  0.3930 -0.3059
 6112TIP3    H142531   2.808   1.771   2.797 -0.5165 -0.8360  0.1977
 6112TIP3    H242532   2.696   1.737   2.700  0.0778  0.9356 -1.1698
 6113TIP3   OH242533   5.366   6.534   1.558  0.2573  0.1897  0.1923
 6113TIP3    H142534   5.446   6.526   1.610  0.9541  0.4135 -0.7956
 6113TIP3    H242535   5.384   6.607   1.498  0.0122 -0.8732 -1.2204
 6114TIP3   OH242536   2.877   6.346   2.327 -0.6376 -0.1670 -0.4337
 6114TIP3    H142537   2.870   6.256   2.297 -3.0021 -0.0449 -0.4496
 6114TIP3    H242538   2.790   6.383   2.311 -0.4564  1.4039  1.8097
 6115TIP3   OH242539   0.707   0.982   2.796  0.2905  0.5349  0.1298
 6115TIP3    H142540   0.754   0.912   2.752 -0.0592 -0.7425  1.6945
 6115TIP3    H242541   0.771   1.023   2.853 -0.5150 -1.7195  2.8641
 6116TIP3   OH242542   5.951   4.728   2.518  0.2490 -0.2385  0.1674
 6116TIP3    H142543   5.935   4.635   2.504  1.2340 -0.1734 -1.6418
 6116TIP3    H242544   6.044   4.735   2.538  0.2954  0.3815 -0.2047
 6117TIP3   OH242545   0.251   5.878   3.386 -0.2874  0.1027 -0.0353
 6117TIP3    H142546   0.180   5.841   3.333 -1.3201  2.5465 -0.5168
 6117TIP3    H242547   0.257   5.821   3.462 -2.6405 -0.3474 -0.0957
 6118TIP3   OH242548   0.437   2.140   2.234  0.3563  0.0843 -0.1059
 6118TIP3    H142549   0.439   2.059   2.184  1.1810 -0.4820  0.8029
 6118TIP3    H242550   0.394   2.116   2.317  0.0546  0.7244 -0.0710
 6119TIP3   OH242551   5.371   4.010   2.194 -0.5755 -0.4523  0.4423
 6119TIP3    H142552   5.386   3.982   2.104 -1.0317 -1.4678  0.6756
 6119TIP3    H242553   5.283   3.979   2.215 -1.0899  1.1139  0.7356
 6120TIP3   OH242554   1.604   2.009   0.776 -0.3047 -0.1184 -0.1520
 6120TIP3    H142555   1.694   2.034   0.796  0.2516 -0.1570 -2.3515
 6120TIP3    H242556   1.603   1.913   0.786 -0.1771 -0.0916  0.1316
 6121TIP3   OH242557   1.701   6.818   1.979  0.3305  0.4660 -0.6376
 6121TIP3    H142558   1.653   6.737   1.997  2.8481 -0.5982  2.1417
 6121TIP3    H242559   1.780   6.789   1.932  1.4435  1.2048  0.7105
 6122TIP3   OH242560   6.374   7.246   1.101 -0.4512 -0.1121  0.2461
 6122TIP3    H142561   6.465   7.217   1.100  0.0108  1.2592 -0.8460
 6122TIP3    H242562   6.326   7.175   1.058  0.2408 -0.4302 -0.0247
 6123TIP3   OH242563   6.725   3.375   1.448 -0.6816  0.1065 -0.6008
 6123TIP3    H142564   6.641   3.394   1.489 -0.2160 -0.6723  0.7768
 6123TIP3    H242565   6.769   3.316   1.509  0.4657 -0.3006 -1.7683
 6124TIP3   OH242566   2.084   0.977   0.611  0.0659 -0.0469  0.2314
 6124TIP3    H142567   2.020   0.972   0.539  0.1093 -0.2260  0.2064
 6124TIP3    H242568   2.036   0.947   0.688 -0.4295  1.5178  0.5764
 6125TIP3   OH242569   0.845   0.417   1.058 -0.0408 -0.5541  0.1324
 6125TIP3    H142570   0.819   0.343   1.113 -1.0138  0.6734  1.3889
 6125TIP3    H242571   0.801   0.493   1.096  1.3278  0.7830 -0.8029
 6126TIP3   OH242572   6.898   1.132   2.965 -0.1638  0.3312 -0.2377
 6126TIP3    H142573   6.851   1.160   3.044  0.5314 -2.2646  1.1973
 6126TIP3    H242574   6.981   1.179   2.969 -0.7026  1.3236 -0.2514
 6127TIP3   OH242575   4.900   0.357   3.074 -0.0294 -0.4165 -0.4289
 6127TIP3    H142576   4.921   0.267   3.050 -0.8382 -0.7000 -0.1168
 6127TIP3    H242577   4.974   0.408   3.042  0.1995 -1.1221 -1.0609
 6128TIP3   OH242578   1.547   4.625   2.619  0.7609 -0.3288 -0.4632
 6128TIP3    H142579   1.509   4.709   2.592  0.4972 -0.9467 -2.1795
 6128TIP3    H242580   1.492   4.559   2.576 -0.3014 -1.5154  2.4703
 6129TIP3   OH242581   6.823   0.868   2.948 -0.1306  0.0134 -0.0723
 6129TIP3    H142582   6.760   0.869   3.021 -0.5978 -0.7825 -0.4509
 6129TIP3    H242583   6.868   0.953   2.954 -0.7082  0.2801  0.6665
 6130TIP3   OH242584   6.780   6.852   0.510  0.0274  0.4208  0.5136
 6130TIP3    H142585   6.870   6.845   0.542 -0.0864 -1.3873  0.5522
 6130TIP3    H242586   6.749   6.937   0.542  2.3234  2.0373 -1.1316
 6131TIP3   OH242587   2.161   5.297   1.243  0.1078  0.2510  0.4982
 6131TIP3    H142588   2.186   5.379   1.202  1.3148 -0.4105 -0.1385
 6131TIP3    H242589   2.105   5.254   1.178 -0.4902  0.5385  0.8148
 6132TIP3   OH242590   0.954   3.842   1.873 -0.1272 -0.1909 -0.3032
 6132TIP3    H142591   0.962   3.894   1.952  0.8197 -0.6692 -0.0721
 6132TIP3    H242592   0.934   3.905   1.804 -0.3414  0.2989  0.2051
 6133TIP3   OH242593   5.869   4.710   1.106 -0.0180  0.1309 -0.3505
 6133TIP3    H142594   5.778   4.686   1.122 -0.3891  2.1630  1.0432
 6133TIP3    H242595   5.905   4.725   1.193  1.8863 -1.3000 -0.8387
 6134TIP3   OH242596   6.417   5.457   0.455 -0.4561 -0.3294 -0.4163
 6134TIP3    H142597   6.352   5.453   0.526 -2.5000 -1.4340 -2.2336
 6134TIP3    H242598   6.418   5.549   0.429 -1.4472 -0.3203 -0.4599
 6135TIP3   OH242599   6.409   5.627   3.141 -0.3588 -0.0749  0.3604
 6135TIP3    H142600   6.372   5.705   3.181 -0.7806 -1.4363  2.7650
 6135TIP3    H242601   6.343   5.559   3.154  0.4873 -1.1348 -0.6463
 6136TIP3   OH242602   0.450   6.181   2.698  0.0174  0.4530  0.5108
 6136TIP3    H142603   0.542   6.169   2.722 -0.6742 -1.0639  2.8294
 6136TIP3    H242604   0.403   6.119   2.754 -2.2189 -0.9424 -2.6391
 6137TIP3   OH242605   5.119   5.917   2.062 -0.2974  0.7770 -0.5480
 6137TIP3    H142606   5.092   6.009   2.058  0.3656  0.9608 -0.9627
 6137TIP3    H242607   5.084   5.885   2.144  0.5603  1.7610  0.2294
 6138TIP3   OH242608   1.068   2.096   1.408 -0.2151 -0.4284  0.4932
 6138TIP3    H142609   1.107   2.111   1.322  1.1093  1.1478  1.3196
 6138TIP3    H242610   1.051   2.183   1.443 -0.5163 -1.0351  1.9378
 6139TIP3   OH242611   6.030   1.480   2.841 -0.3544 -0.0453 -0.0779
 6139TIP3    H142612   6.070   1.489   2.927 -0.9233  0.4913  0.1441
 6139TIP3    H242613   6.097   1.510   2.780 -0.3799  0.7720  0.2783
 6140TIP3   OH242614   1.100   5.948   0.833 -0.0981  1.0552 -0.2831
 6140TIP3    H142615   1.189   5.913   0.818 -0.9544 -2.4587  1.6313
 6140TIP3    H242616   1.058   5.944   0.747  0.5036 -1.0549 -0.5513
 6141TIP3   OH242617   6.347   7.544   2.634  0.7359  0.3003 -0.3255
 6141TIP3    H142618   6.393   7.612   2.683 -0.4015  0.0855  1.1110
 6141TIP3    H242619   6.412   7.475   2.621  0.7220 -0.2945  2.2337
 6142TIP3   OH242620   3.636   0.780   1.515  0.0249 -0.3113  0.2265
 6142TIP3    H142621   3.549   0.809   1.544  0.3340  1.6366 -0.6548
 6142TIP3    H242622   3.685   0.768   1.596 -1.2746 -2.3762  0.8023
 6143TIP3   OH242623   0.943   2.097   0.814 -0.2878  0.1227  0.3030
 6143TIP3    H142624   0.949   2.191   0.831  0.2503  0.2318 -0.4109
 6143TIP3    H242625   0.921   2.059   0.899  3.1140  0.5362  1.5361
 6144TIP3   OH242626   1.309   5.152   2.982 -0.0874  0.0219  0.7114
 6144TIP3    H142627   1.316   5.242   2.951  0.2737 -0.4520 -0.6644
 6144TIP3    H242628   1.398   5.126   3.003  0.3975 -1.0633 -2.1670
 6145TIP3   OH242629   2.631   1.818   1.039 -0.5691  0.9722  0.5153
 6145TIP3    H142630   2.612   1.911   1.026  0.0445  1.2311  1.3933
 6145TIP3    H242631   2.640   1.809   1.134 -0.1870  0.1028  0.3982
 6146TIP3   OH242632   4.145   2.872   2.388 -0.1702  0.4799  0.1591
 6146TIP3    H142633   4.061   2.838   2.358 -0.1621  0.0873  0.5755
 6146TIP3    H242634   4.121   2.939   2.453 -0.1554 -0.9058  1.6506
 6147TIP3   OH242635   0.470   2.985   1.023  0.3235  0.2899 -0.2041
 6147TIP3    H142636   0.477   2.978   0.928 -0.9848 -1.2000 -0.2260
 6147TIP3    H242637   0.387   2.943   1.044  0.7677  0.2675  1.6433
 6148TIP3   OH242638   4.118   6.786   1.047  0.3787  0.4871  0.3851
 6148TIP3    H142639   4.044   6.848   1.050 -1.1276 -1.2718  1.6547
 6148TIP3    H242640   4.101   6.733   0.970  1.1307  0.9892 -0.1376
 6149TIP3   OH242641   7.362   6.111   2.548  0.4972 -0.0971  0.6114
 6149TIP3    H142642   7.295   6.113   2.617  0.4344 -0.3496  0.5607
 6149TIP3    H242643   7.444   6.099   2.594  0.4842 -0.0088  0.6588
 6150TIP3   OH242644   0.104   1.091   0.687 -0.6977  0.4943  0.3953
 6150TIP3    H142645   0.049   1.120   0.760 -2.5543 -2.7243  0.4569
 6150TIP3    H242646   0.079   1.148   0.614 -1.2843  1.5731  1.3989
 6151TIP3   OH242647   2.410   6.549   1.796 -0.1229  0.4154  0.0596
 6151TIP3    H142648   2.422   6.602   1.717  0.6065  0.5165  0.2293
 6151TIP3    H242649   2.386   6.612   1.864 -2.0741  0.1722 -0.3558
 6152TIP3   OH242650   3.863   4.476   1.368  0.0459 -0.3887  0.4304
 6152TIP3    H142651   3.913   4.535   1.312 -1.8652  1.8141  0.8685
 6152TIP3    H242652   3.835   4.405   1.309  2.3123 -0.8732 -0.1390
 6153TIP3   OH242653   4.217   0.156   3.563 -0.1743 -0.4572 -0.3196
 6153TIP3    H142654   4.269   0.235   3.549 -0.5765 -0.0316  0.5218
 6153TIP3    H242655   4.127   0.184   3.551 -0.2711 -1.0182 -0.9898
 6154TIP3   OH242656   5.438   6.476   2.978 -0.1692 -0.1017  0.1560
 6154TIP3    H142657   5.478   6.465   2.891  1.2276 -0.4003  0.8088
 6154TIP3    H242658   5.365   6.414   2.979  0.7053 -1.1814 -0.2868
 6155TIP3   OH242659   2.413   5.097   1.409  0.2027  0.2294  0.2516
 6155TIP3    H142660   2.491   5.060   1.368  0.9238  2.4554 -0.4767
 6155TIP3    H242661   2.381   5.163   1.348 -1.7316  0.0457  0.9741
 6156TIP3   OH242662   5.740   2.729   2.260  0.4668  0.2369 -0.6454
 6156TIP3    H142663   5.740   2.814   2.305 -1.6129 -0.3954  0.7374
 6156TIP3    H242664   5.778   2.668   2.324  0.4663 -0.1397 -1.0035
 6157TIP3   OH242665   2.871   2.911   1.806  0.0101 -0.0927  0.2885
 6157TIP3    H142666   2.798   2.894   1.865  0.5365 -1.6476  0.5295
 6157TIP3    H242667   2.830   2.923   1.720 -0.6868  1.3255  0.7898
 6158TIP3   OH242668   3.576   6.862   1.864 -0.0671 -0.3350 -0.0898
 6158TIP3    H142669   3.523   6.783   1.857 -0.7906  0.0914  0.4545
 6158TIP3    H242670   3.567   6.890   1.955  0.0650  0.4496 -0.3067
 6159TIP3   OH242671   5.396   1.490   1.845 -0.0786 -0.1057  0.2628
 6159TIP3    H142672   5.370   1.493   1.937  1.1328 -2.4873  0.7516
 6159TIP3    H242673   5.328   1.437   1.803 -0.6372  0.9883 -0.2569
 6160TIP3   OH242674   5.864   3.931   2.861  0.0984 -0.7908  0.4414
 6160TIP3    H142675   5.840   3.885   2.781  0.3776  1.4727 -1.0530
 6160TIP3    H242676   5.791   3.991   2.877  1.0627  0.4067  0.5115
 6161TIP3   OH242677   2.659   0.328   2.210 -0.7024 -0.3974  0.0461
 6161TIP3    H142678   2.578   0.362   2.248 -0.6278  1.3109 -1.1973
 6161TIP3    H242679   2.719   0.402   2.212  1.0192 -1.7553  1.3529
 6162TIP3   OH242680   0.332   2.740   3.320 -0.4214 -0.2433 -0.0574
 6162TIP3    H142681   0.410   2.695   3.290 -0.0356  0.5298 -0.2377
 6162TIP3    H242682   0.297   2.783   3.242 -0.3244  0.4286  0.2565
 6163TIP3   OH242683   2.782   1.488   2.547  0.3478  0.3521  0.7433
 6163TIP3    H142684   2.693   1.464   2.523  0.9217 -0.6383 -0.4979
 6163TIP3    H242685   2.771   1.556   2.614 -1.3386 -2.3009  3.4000
 6164TIP3   OH242686   5.188   7.448   2.438  0.2516  0.3782 -0.1411
 6164TIP3    H142687   5.207   7.503   2.362 -0.3662 -0.2723 -0.7759
 6164TIP3    H242688   5.177   7.361   2.402 -2.0754  0.3867  0.4127
 6165TIP3   OH242689   4.064   7.390   1.383 -0.0447 -0.4624  0.0989
 6165TIP3    H142690   4.096   7.472   1.421  0.8399 -0.1061 -1.3320
 6165TIP3    H242691   4.108   7.321   1.433 -1.0707 -0.1125  1.5559
 6166TIP3   OH242692   3.781   5.387   2.232 -0.0393 -0.0118  0.3646
 6166TIP3    H142693   3.854   5.337   2.197 -1.5367 -2.1484  0.0663
 6166TIP3    H242694   3.721   5.395   2.157 -1.3259 -0.7983  1.2736
 6167TIP3   OH242695   0.617   3.705   0.812  0.1743 -0.1944 -0.1221
 6167TIP3    H142696   0.648   3.624   0.852 -0.8424 -0.1369  0.8098
 6167TIP3    H242697   0.533   3.723   0.855  0.7532  1.7730  0.2601
 6168TIP3   OH242698   0.425   7.377   0.684  0.5698 -0.0597  0.3769
 6168TIP3    H142699   0.461   7.457   0.647  1.1870 -0.8516 -0.8021
 6168TIP3    H242700   0.483   7.307   0.652  0.1492 -0.9604  1.5097
 6169TIP3   OH242701   5.944   4.523   9.140 -0.0321  0.0062  0.0327
 6169TIP3    H142702   6.006   4.483   9.201  1.1082 -0.9374 -1.6563
 6169TIP3    H242703   5.883   4.453   9.119 -0.9147  0.5608  0.6719
 6170TIP3   OH242704   1.679   0.944   1.315 -0.1370 -0.2610 -0.0471
 6170TIP3    H142705   1.663   0.894   1.395  0.7540 -0.4442  0.0264
 6170TIP3    H242706   1.643   0.891   1.245  0.7252 -0.9824  0.0409
 6171TIP3   OH242707   2.666   4.532   2.104  0.6740  0.7679  0.4212
 6171TIP3    H142708   2.749   4.550   2.147  1.2683 -0.7661 -0.0354
 6171TIP3    H242709   2.602   4.532   2.176  1.2231  0.9129  0.9207
 6172TIP3   OH242710   1.966   5.488   0.804  0.0581 -0.9870 -0.1248
 6172TIP3    H142711   1.882   5.458   0.838 -0.5939  0.1408 -0.6738
 6172TIP3    H242712   2.013   5.521   0.881 -0.6424 -0.1801 -0.0350
 6173TIP3   OH242713   3.405   2.255   3.083 -0.2417 -0.2777 -0.2718
 6173TIP3    H142714   3.339   2.190   3.057 -2.0816  0.7680  1.4722
 6173TIP3    H242715   3.359   2.339   3.079  1.0162  0.5076  0.9031
 6174TIP3   OH242716   5.682   2.217   3.271 -0.1071  0.3321  0.0868
 6174TIP3    H142717   5.608   2.195   3.214  0.9047 -0.0442 -1.1511
 6174TIP3    H242718   5.646   2.216   3.359 -1.3774 -0.7177 -0.4094
 6175TIP3   OH242719   4.621   6.301   2.638  0.4024 -0.1659 -0.1964
 6175TIP3    H142720   4.646   6.378   2.689  0.4490  0.3263 -0.9354
 6175TIP3    H242721   4.685   6.234   2.662  1.2849  0.4907 -0.6369
 6176TIP3   OH242722   7.544   2.178   1.689 -0.2855  0.3256 -0.1372
 6176TIP3    H142723   7.548   2.140   1.601  1.4629 -0.1469  0.0984
 6176TIP3    H242724   7.573   2.108   1.747  0.4055  1.1850  0.5955
 6177TIP3   OH242725   4.718   6.216   2.906  0.0338 -0.1533  0.4168
 6177TIP3    H142726   4.763   6.292   2.869 -1.1172  0.3887  0.0832
 6177TIP3    H242727   4.682   6.247   2.988  0.5802 -0.6936  0.8714
 6178TIP3   OH242728   5.075   5.671   1.550  0.4733  0.3970  0.7281
 6178TIP3    H142729   5.042   5.674   1.461  1.8312 -0.3229  0.1766
 6178TIP3    H242730   5.093   5.578   1.566 -1.5306  0.2204  2.4547
 6179TIP3   OH242731   1.571   6.834   1.597 -0.5756  0.1146 -0.4435
 6179TIP3    H142732   1.492   6.779   1.598 -1.0425  0.7111  1.6056
 6179TIP3    H242733   1.643   6.774   1.615 -0.6488 -0.3178 -1.5615
 6180TIP3   OH242734   5.259   7.149   0.870  0.1388  0.1343  0.0572
 6180TIP3    H142735   5.282   7.144   0.963 -1.4949  0.2146  0.4952
 6180TIP3    H242736   5.189   7.084   0.859  1.3651 -1.0193 -1.4946
 6181TIP3   OH242737   1.142   4.244   1.265 -0.4759  0.3390 -0.1669
 6181TIP3    H142738   1.096   4.160   1.260 -0.4812  0.3658 -0.6047
 6181TIP3    H242739   1.214   4.228   1.325 -0.4635  0.0135 -0.2621
 6182TIP3   OH242740   1.203   0.868   0.775 -0.1267 -0.0744  0.6787
 6182TIP3    H142741   1.251   0.941   0.813 -0.2915  0.6659 -0.4753
 6182TIP3    H242742   1.249   0.849   0.694 -0.9199 -0.3100  0.2676
 6183TIP3   OH242743   6.618   5.284   1.082  0.1211  0.1610  0.3962
 6183TIP3    H142744   6.637   5.230   1.005 -1.3284 -1.7250  1.2575
 6183TIP3    H242745   6.523   5.299   1.078  0.1508  0.6941  1.4009
 6184TIP3   OH242746   2.487   3.571   0.986 -0.4664  0.0974  0.5000
 6184TIP3    H142747   2.450   3.519   1.057 -0.4920 -0.5433  0.0221
 6184TIP3    H242748   2.411   3.601   0.936 -0.4151  0.0176  0.3739
 6185TIP3   OH242749   3.034   4.101   0.715 -0.6284  0.2760  0.2728
 6185TIP3    H142750   2.950   4.114   0.672  1.1109  0.8780 -3.2620
 6185TIP3    H242751   3.066   4.017   0.682  0.9317  0.8928  0.1452
 6186TIP3   OH242752   3.819   0.824   2.034  0.4167 -0.2898 -0.0417
 6186TIP3    H142753   3.773   0.752   2.077 -2.1004 -0.2231 -2.3263
 6186TIP3    H242754   3.751   0.887   2.013  1.7476  0.5224 -2.3365
 6187TIP3   OH242755   1.211   5.333   1.751 -0.0943  0.2769  0.6443
 6187TIP3    H142756   1.211   5.383   1.669  2.1112  1.1681  1.1202
 6187TIP3    H242757   1.122   5.301   1.759 -0.9983  2.1835 -0.8859
 6188TIP3   OH242758   0.692   4.383   0.539 -0.0953 -0.0751 -0.0278
 6188TIP3    H142759   0.666   4.470   0.508 -0.1453 -0.2913 -0.6070
 6188TIP3    H242760   0.612   4.347   0.578 -0.2798 -0.1604 -0.4787
 6189TIP3   OH242761   5.572   6.958   0.560 -0.1466  0.3025 -0.0050
 6189TIP3    H142762   5.494   6.902   0.556 -1.1687  1.7399 -1.7866
 6189TIP3    H242763   5.538   7.046   0.572  1.0829  1.1125 -1.9329
 6190TIP3   OH242764   3.036   3.451   1.262  0.3239  0.3153  0.1767
 6190TIP3    H142765   3.130   3.461   1.247 -0.0136  2.8007 -0.7998
 6190TIP3    H242766   2.999   3.438   1.175 -0.3832  1.2244  0.3243
 6191TIP3   OH242767   4.953   0.172   1.087 -0.6426  0.0811  0.3238
 6191TIP3    H142768   4.930   0.116   1.161  0.8242 -1.6306 -0.4325
 6191TIP3    H242769   5.015   0.235   1.124  1.1550 -1.6140  0.3605
 6192TIP3   OH242770   6.486   4.539   1.076 -1.0536 -0.0301  0.1736
 6192TIP3    H142771   6.531   4.580   1.149 -0.5745  1.0764 -0.6980
 6192TIP3    H242772   6.461   4.452   1.107  0.2938 -0.0735  1.1916
 6193TIP3   OH242773   4.949   5.539   1.148  0.4263 -0.0910  0.1668
 6193TIP3    H142774   4.964   5.496   1.232 -0.3016  0.1434  0.4154
 6193TIP3    H242775   4.922   5.628   1.170 -0.9337 -0.3757 -0.2775
 6194TIP3   OH242776   2.419   0.005   1.852  0.1288 -0.3215  0.6423
 6194TIP3    H142777   2.397   0.050   1.934  1.3094  0.8635  0.3350
 6194TIP3    H242778   2.404   0.070   1.784 -1.9370 -1.6286 -0.2702
 6195TIP3   OH242779   5.364   2.458   1.675  0.0727 -0.2514  1.1601
 6195TIP3    H142780   5.289   2.452   1.616 -0.8600 -1.8506  2.4139
 6195TIP3    H242781   5.417   2.529   1.639 -0.5593 -0.9719 -1.4094
 6196TIP3   OH242782   6.951   5.615   1.257 -0.7171  0.3684  0.3052
 6196TIP3    H142783   6.903   5.655   1.185  0.5947  1.4320 -0.0197
 6196TIP3    H242784   7.006   5.549   1.215 -0.1313  0.8216  0.3456
 6197TIP3   OH242785   1.981   3.969   1.490 -0.0397  0.5336 -0.8514
 6197TIP3    H142786   2.052   3.956   1.552 -0.2324  0.7024 -0.5952
 6197TIP3    H242787   2.018   3.944   1.405  0.6366  1.5744 -0.8755
 6198TIP3   OH242788   3.479   6.820   0.996 -0.5434  0.9305  0.3322
 6198TIP3    H142789   3.433   6.853   0.919 -0.5332 -0.3666 -0.2412
 6198TIP3    H242790   3.499   6.729   0.976  0.6089  0.9337  1.3447
 6199TIP3   OH242791   6.175   6.848   2.245  0.2890 -0.1040  1.0117
 6199TIP3    H142792   6.250   6.809   2.290  0.1705 -1.7557 -0.1192
 6199TIP3    H242793   6.157   6.788   2.172 -2.1722  0.1845  1.2854
 6200TIP3   OH242794   6.995   0.571   1.538 -0.5961 -0.4701  0.1167
 6200TIP3    H142795   6.908   0.545   1.568  0.4692 -1.8220  2.2480
 6200TIP3    H242796   7.038   0.489   1.515 -0.0759  0.2471 -1.6197
 6201TIP3   OH242797   5.844   7.126   2.437 -0.1087 -0.2219 -0.3415
 6201TIP3    H142798   5.908   7.143   2.507 -0.4195 -0.9548  0.1325
 6201TIP3    H242799   5.764   7.104   2.484  0.2173 -2.8759 -0.8641
 6202TIP3   OH242800   4.240   3.417   1.366 -0.4047 -0.6674 -0.7158
 6202TIP3    H142801   4.265   3.412   1.274 -1.4963  0.5213 -1.1012
 6202TIP3    H242802   4.168   3.480   1.369  1.1051  1.1067  1.2656
 6203TIP3   OH242803   6.674   5.599   0.574  0.3488  0.7244  0.0355
 6203TIP3    H142804   6.668   5.505   0.592  1.2085  0.7750  0.6517
 6203TIP3    H242805   6.658   5.606   0.480 -0.2309  0.0183  0.0720
 6204TIP3   OH242806   3.214   2.102   1.551 -0.2590  0.4253  0.6308
 6204TIP3    H142807   3.222   2.178   1.608 -0.3653  0.3905  0.6919
 6204TIP3    H242808   3.248   2.029   1.603  3.3866  0.9775 -0.6524
 6205TIP3   OH242809   1.061   1.216   1.592 -0.6490  0.4345  0.1027
 6205TIP3    H142810   1.059   1.310   1.572  0.5419  0.1853 -1.3087
 6205TIP3    H242811   1.039   1.212   1.685 -0.4434  2.1388  0.2635
 6206TIP3   OH242812   7.611   1.679   2.617 -0.5997  0.1721  0.0398
 6206TIP3    H142813   7.705   1.662   2.624 -0.8357 -0.5887  1.9031
 6206TIP3    H242814   7.587   1.715   2.702 -2.0948 -0.1164 -0.2385
 6207TIP3   OH242815   5.954   4.940   2.944 -0.5337  0.3024  0.2583
 6207TIP3    H142816   5.924   4.933   2.853 -0.3210  5.5630 -0.5403
 6207TIP3    H242817   6.042   4.904   2.943 -0.8365 -0.4863 -1.3879
 6208TIP3   OH242818   1.401   5.530   2.009 -0.0127  0.3586 -0.3639
 6208TIP3    H142819   1.476   5.575   1.969  0.0162  0.0001 -0.7231
 6208TIP3    H242820   1.327   5.552   1.953 -0.1036  0.4055 -0.2254
 6209TIP3   OH242821   3.544   0.034   1.095 -0.0856 -0.1556  0.0160
 6209TIP3    H142822   3.629  -0.002   1.071  0.3811 -0.8131  2.3715
 6209TIP3    H242823   3.535   0.113   1.043  1.6432 -0.4609 -0.8031
 6210TIP3   OH242824   6.536   1.450   0.636  0.7770 -0.0123  0.4788
 6210TIP3    H142825   6.579   1.413   0.714  1.8126  0.3308  0.0883
 6210TIP3    H242826   6.554   1.543   0.641  2.2651 -0.1886 -1.0006
 6211TIP3   OH242827   2.137   5.153   0.854  0.4579  0.1726 -0.0291
 6211TIP3    H142828   2.125   5.200   0.771  0.2126 -0.5320 -0.4045
 6211TIP3    H242829   2.088   5.205   0.918 -1.8997 -0.8340 -0.8953
 6212TIP3   OH242830   3.059   3.335   1.790  0.6653 -0.9288 -0.7370
 6212TIP3    H142831   3.135   3.277   1.794 -0.1952 -2.0673 -0.2760
 6212TIP3    H242832   3.026   3.325   1.701  0.8499 -0.6946 -0.8333
 6213TIP3   OH242833   1.702   7.055   0.840  0.1128  0.0467  0.2030
 6213TIP3    H142834   1.689   7.148   0.822  1.3112  0.1115 -0.4696
 6213TIP3    H242835   1.725   7.051   0.933  3.5499  0.8937 -0.4541
 6214TIP3   OH242836   6.719   1.174   2.408 -0.3356  0.4524 -0.1202
 6214TIP3    H142837   6.760   1.088   2.413 -2.0775 -0.4323 -0.4123
 6214TIP3    H242838   6.693   1.184   2.316  0.0742  1.4019 -0.1433
 6215TIP3   OH242839   6.616   3.870   2.763 -0.3620 -0.1811  0.2369
 6215TIP3    H142840   6.555   3.817   2.815 -0.7954  1.2953  1.2797
 6215TIP3    H242841   6.675   3.910   2.827  0.2576  0.2202 -0.5679
 6216TIP3   OH242842   5.182   1.252   1.340  0.7446  0.5870  0.4316
 6216TIP3    H142843   5.154   1.191   1.408 -0.7192  1.6580  0.8382
 6216TIP3    H242844   5.141   1.335   1.364  0.7886  1.1655 -1.3605
 6217TIP3   OH242845   5.999   3.415   0.383 -0.1885  0.5668 -0.0360
 6217TIP3    H142846   6.034   3.504   0.387  1.4610 -0.0845  1.3024
 6217TIP3    H242847   5.927   3.415   0.446  0.3562  0.7396  0.5962
 6218TIP3   OH242848   7.094   2.088   1.530  0.1239  0.3426 -0.4453
 6218TIP3    H142849   7.109   2.137   1.611  0.1711 -0.1147 -0.1746
 6218TIP3    H242850   7.161   2.020   1.529 -0.1397  0.0791 -0.6565
 6219TIP3   OH242851   1.103   6.766   0.655 -0.0324  1.1002  0.0602
 6219TIP3    H142852   1.013   6.742   0.679 -0.2144  2.6884  1.1404
 6219TIP3    H242853   1.127   6.704   0.586 -0.7566 -1.5370  2.0000
 6220TIP3   OH242854   6.378   0.996   1.593  0.1987  0.0196  0.0150
 6220TIP3    H142855   6.291   1.022   1.626 -0.1109 -1.3989  0.3584
 6220TIP3    H242856   6.438   1.060   1.632 -0.4173 -0.3505  1.6670
 6221TIP3   OH242857   1.699   0.825   0.716  0.3954 -0.0998 -0.5471
 6221TIP3    H142858   1.666   0.914   0.723  0.5681 -0.0732 -0.0717
 6221TIP3    H242859   1.737   0.806   0.802 -0.4496 -0.9532 -0.3489
 6222TIP3   OH242860   0.060   6.282   1.395 -0.1621  0.4000  0.0746
 6222TIP3    H142861  -0.001   6.352   1.418 -0.8625 -0.5322  1.1478
 6222TIP3    H242862   0.053   6.274   1.300 -2.5590 -0.3952  0.2473
 6223TIP3   OH242863   4.723   7.352   1.298  0.6480  0.5881  0.4275
 6223TIP3    H142864   4.790   7.325   1.360  0.8642  2.7323  1.1998
 6223TIP3    H242865   4.766   7.415   1.241 -1.0158  3.4336  2.0711
 6224TIP3   OH242866   1.838   7.375   1.441 -0.3189  0.2576  0.0625
 6224TIP3    H142867   1.806   7.302   1.495 -0.8225  0.6684  0.3356
 6224TIP3    H242868   1.772   7.443   1.452 -0.3914  0.3826 -1.0259
 6225TIP3   OH242869   4.138   4.260   1.383  0.1772  0.1842 -0.4649
 6225TIP3    H142870   4.147   4.351   1.355  0.3558  0.3282  0.0470
 6225TIP3    H242871   4.087   4.265   1.464  0.9263 -0.0805  0.0399
 6226TIP3   OH242872   6.445   6.889   2.769  0.3101 -0.1134 -0.7481
 6226TIP3    H142873   6.487   6.844   2.695  0.8799 -1.7249  0.5037
 6226TIP3    H242874   6.516   6.938   2.810 -0.0280  0.8645 -1.3071
 6227TIP3   OH242875   6.104   6.664   1.140 -0.5125  0.6300  0.2583
 6227TIP3    H142876   6.052   6.708   1.072  0.4923 -0.0344 -1.0058
 6227TIP3    H242877   6.080   6.572   1.133 -0.2007  0.5212  0.6093
 6228TIP3   OH242878   4.471   0.988   0.957  0.6556 -0.1132 -0.4670
 6228TIP3    H142879   4.429   1.073   0.942  0.6014 -0.3929 -2.0936
 6228TIP3    H242880   4.558   0.997   0.918 -0.3081 -1.6205 -3.3350
 6229TIP3   OH242881   0.157   0.633   1.606 -0.0068  0.1090 -0.3537
 6229TIP3    H142882   0.247   0.662   1.591 -0.4545  0.8345 -1.8745
 6229TIP3    H242883   0.143   0.563   1.542 -0.3698 -0.3618  0.2264
 6230TIP3   OH242884   1.405   0.204   0.810  0.4754 -0.3861 -0.1803
 6230TIP3    H142885   1.360   0.174   0.890 -0.0595  0.7183 -0.0581
 6230TIP3    H242886   1.493   0.227   0.840  0.0097  0.8551  0.2709
 6231TIP3   OH242887   5.698   5.761   2.494  0.8457  0.2550 -0.2816
 6231TIP3    H142888   5.760   5.756   2.567  0.1313  0.8088  0.3820
 6231TIP3    H242889   5.627   5.817   2.527  0.3226  0.1848 -1.2636
 6232TIP3   OH242890   3.749   3.948   1.578  0.1754 -0.4533 -0.2196
 6232TIP3    H142891   3.765   3.985   1.491  0.8452 -2.3520 -0.9560
 6232TIP3    H242892   3.697   3.869   1.561  0.9538 -1.2645  1.0194
 6233TIP3   OH242893   0.138   1.029   0.334 -0.1529  0.1237  0.1564
 6233TIP3    H142894   0.222   1.012   0.376 -0.2357  0.9842  0.6978
 6233TIP3    H242895   0.117   0.948   0.289  1.2213  0.0640 -0.4341
 6234TIP3   OH242896   0.940   2.601   2.923  0.2473 -0.4596  0.2987
 6234TIP3    H142897   0.855   2.594   2.878 -0.1383 -0.4708  1.0162
 6234TIP3    H242898   0.926   2.555   3.006  1.2365 -1.2703  0.0352
 6235TIP3   OH242899   7.470   0.471   1.607  0.1654  0.3823 -0.4759
 6235TIP3    H142900   7.484   0.393   1.660 -0.8204  0.0463 -0.6788
 6235TIP3    H242901   7.496   0.544   1.663 -1.5150  0.0926  0.7511
 6236TIP3   OH242902   4.431   1.111   0.656  0.4324 -0.1703 -0.6448
 6236TIP3    H142903   4.495   1.055   0.700 -0.5171 -0.0660  0.9369
 6236TIP3    H242904   4.350   1.060   0.657  0.2976 -0.0397 -2.0610
 6237TIP3   OH242905   2.915   3.087   3.384 -0.5366  0.1133  0.4783
 6237TIP3    H142906   2.865   3.009   3.358  0.7508 -1.1682  1.6713
 6237TIP3    H242907   2.957   3.062   3.466  1.3708  1.4403 -0.0289
 6238TIP3   OH242908   0.923   5.233   1.022 -0.6157  0.1584  0.4114
 6238TIP3    H142909   1.011   5.227   1.059 -0.7346  0.1496  0.6900
 6238TIP3    H242910   0.933   5.291   0.946 -0.2598 -0.2800  0.1091
 6239TIP3   OH242911   0.173   5.229   0.975 -0.3583  0.0646  0.5048
 6239TIP3    H142912   0.122   5.153   1.003 -1.0088  0.4803  0.4609
 6239TIP3    H242913   0.200   5.270   1.058 -0.2351 -0.0566  0.5263
 6240TIP3   OH242914   3.190   1.229   0.746 -0.4687  0.2269  0.2429
 6240TIP3    H142915   3.244   1.150   0.741 -1.6305 -0.7516  1.9813
 6240TIP3    H242916   3.232   1.290   0.686  0.2114 -1.8520 -1.5727
 6241TIP3   OH242917   4.096   3.878   2.250  0.1170 -0.3095 -0.1716
 6241TIP3    H142918   4.154   3.802   2.251  1.2850  0.5279 -1.1203
 6241TIP3    H242919   4.102   3.911   2.160 -0.7433  0.6306  0.0992
 6242TIP3   OH242920   1.584   5.030   3.539 -0.2316  0.7227  0.0816
 6242TIP3    H142921   1.493   5.006   3.521 -0.7532  1.3430  1.7123
 6242TIP3    H242922   1.578   5.092   3.611  1.5777 -0.3681  1.2335
 6243TIP3   OH242923   6.404   5.204   2.872 -0.2690 -0.0536 -0.1243
 6243TIP3    H142924   6.359   5.288   2.860 -0.1736  0.0002 -0.1012
 6243TIP3    H242925   6.458   5.195   2.794 -1.0921 -0.6013 -0.6449
 6244TIP3   OH242926   1.758   2.511   0.907  0.1599  0.0289 -0.3161
 6244TIP3    H142927   1.723   2.445   0.967 -1.1133  1.3731  0.4904
 6244TIP3    H242928   1.739   2.477   0.820 -0.4424 -0.6676  0.0760
 6245TIP3   OH242929   0.615   0.526   2.391  1.0159 -0.6129  0.1389
 6245TIP3    H142930   0.660   0.541   2.474  0.9705  1.0951 -0.1115
 6245TIP3    H242931   0.684   0.500   2.330  1.1768 -1.0439  0.5046
 6246TIP3   OH242932   5.815   1.630   2.759 -0.1496 -0.0806 -0.0398
 6246TIP3    H142933   5.894   1.580   2.779 -0.4924 -0.8545 -0.6103
 6246TIP3    H242934   5.798   1.680   2.839 -0.3214 -1.5692  0.8922
 6247TIP3   OH242935   1.977   4.239   1.391  0.8266 -0.1143 -0.0869
 6247TIP3    H142936   1.988   4.152   1.431  0.4780  0.3394  1.0419
 6247TIP3    H242937   2.026   4.298   1.448 -1.9219  0.9614  1.3201
 6248TIP3   OH242938   2.155   0.012   2.145  0.4431 -0.6153 -0.0909
 6248TIP3    H142939   2.098  -0.019   2.075  1.1644  1.2511 -1.6149
 6248TIP3    H242940   2.116   0.095   2.172  0.7816 -0.7895  0.9815
 6249TIP3   OH242941   6.401   0.183   2.404 -0.1176 -0.3258 -0.4672
 6249TIP3    H142942   6.312   0.161   2.378 -1.1114  0.8692  1.6682
 6249TIP3    H242943   6.391   0.232   2.486  2.5627 -1.0555  0.4066
 6250TIP3   OH242944   1.913   4.922   1.682 -0.7431  0.1004  0.0556
 6250TIP3    H142945   2.000   4.917   1.643 -0.2580  0.3120  1.0822
 6250TIP3    H242946   1.856   4.878   1.619  0.6130 -3.1819  0.8956
 6251TIP3   OH242947   4.690   1.787   0.694 -0.4458 -0.0566  0.1652
 6251TIP3    H142948   4.619   1.809   0.755  0.2133  2.0788  0.2547
 6251TIP3    H242949   4.705   1.868   0.645  1.2367 -0.7701 -0.5726
 6252TIP3   OH242950   3.549   4.576   1.267 -0.5852 -0.0436 -0.3599
 6252TIP3    H142951   3.572   4.668   1.250 -1.1930  0.1442 -0.1804
 6252TIP3    H242952   3.586   4.529   1.192  2.6016 -0.1212  1.0946
 6253TIP3   OH242953   2.040   2.795   3.932  0.2253 -0.4728  0.7152
 6253TIP3    H142954   1.968   2.833   3.983  0.1701 -1.2398  1.2201
 6253TIP3    H242955   2.009   2.709   3.907  0.6063 -0.4444  0.1344
 6254TIP3   OH242956   2.799   6.869   0.679 -0.5085  0.4299  0.3992
 6254TIP3    H142957   2.751   6.894   0.600  1.0759  0.6799 -0.5446
 6254TIP3    H242958   2.757   6.918   0.750 -2.6068 -0.5656 -0.0815
 6255TIP3   OH242959   4.458   1.694   1.359 -0.2679  0.8604  0.0065
 6255TIP3    H142960   4.376   1.659   1.323 -0.0581 -0.7361  0.9693
 6255TIP3    H242961   4.527   1.650   1.309  0.0303  2.2385 -0.8354
 6256TIP3   OH242962   1.238   5.312   2.467  0.2660 -0.0912  0.1754
 6256TIP3    H142963   1.176   5.279   2.403 -0.9490  1.6363  0.3764
 6256TIP3    H242964   1.203   5.398   2.492  2.2955  0.5806  0.9331
 6257TIP3   OH242965   0.270   5.887   0.797 -0.4365 -0.1737 -0.2395
 6257TIP3    H142966   0.242   5.866   0.708 -0.2287 -1.2331 -0.0733
 6257TIP3    H242967   0.207   5.953   0.827  0.1665  1.0335 -1.5502
 6258TIP3   OH242968   2.088   5.194   3.540  0.1553 -0.0563  0.4178
 6258TIP3    H142969   2.148   5.178   3.467 -2.0218 -2.9552 -0.9233
 6258TIP3    H242970   2.035   5.269   3.511 -0.7874 -1.2650 -1.1417
 6259TIP3   OH242971   1.258   2.190   2.441 -0.1516  0.0017 -0.3224
 6259TIP3    H142972   1.345   2.218   2.413  0.5551 -1.7640  0.0129
 6259TIP3    H242973   1.251   2.221   2.531  0.1161  0.1506 -0.3509
 6260TIP3   OH242974   6.764   0.758   2.123 -0.1141  0.4292 -0.1420
 6260TIP3    H142975   6.689   0.813   2.145 -1.4310 -0.8681 -1.1379
 6260TIP3    H242976   6.735   0.708   2.046  1.9282  0.1626 -0.8052
 6261TIP3   OH242977   1.380   1.877   1.904 -0.0509 -0.0033  0.4899
 6261TIP3    H142978   1.431   1.953   1.876 -2.1492  0.3041 -3.1789
 6261TIP3    H242979   1.307   1.915   1.953 -1.0724  0.4725 -1.3003
 6262TIP3   OH242980   0.831   7.486   2.223  0.0052  0.0239  0.3525
 6262TIP3    H142981   0.914   7.513   2.262  0.1272 -1.7067  1.3951
 6262TIP3    H242982   0.772   7.474   2.298 -0.7248 -0.2419 -0.2524
 6263TIP3   OH242983   5.759   2.491   3.221  0.0069 -0.3267 -0.0906
 6263TIP3    H142984   5.852   2.493   3.199  0.2681 -0.0428  0.9754
 6263TIP3    H242985   5.744   2.403   3.256  0.5469  0.4935  2.3787
 6264TIP3   OH242986   2.008   1.099   1.407  0.2265  0.2476 -0.2935
 6264TIP3    H142987   2.033   1.057   1.489  0.8779  3.4570  1.2998
 6264TIP3    H242988   1.984   1.026   1.349  3.8717 -2.5212  1.2458
 6265TIP3   OH242989   5.539   2.426   2.215 -0.3847 -0.0503  0.3384
 6265TIP3    H142990   5.450   2.401   2.193 -0.4459  0.2684  0.2284
 6265TIP3    H242991   5.593   2.353   2.184 -0.6487 -0.4602  0.8307
 6266TIP3   OH242992   2.235   3.125   2.753 -0.1738  0.0408  0.1805
 6266TIP3    H142993   2.179   3.048   2.749 -0.3598  0.2013 -0.3870
 6266TIP3    H242994   2.275   3.122   2.840  1.2800 -1.7362 -0.4926
 6267TIP3   OH242995   2.432   1.994   1.629  0.3462 -0.2768 -0.4378
 6267TIP3    H142996   2.423   1.922   1.692  0.4060  0.4079  0.3768
 6267TIP3    H242997   2.468   2.066   1.681  1.4326 -0.0311 -1.5088
 6268TIP3   OH242998   1.712   3.972   3.773 -0.3186  0.2376 -0.1759
 6268TIP3    H142999   1.734   3.990   3.681  0.9052  1.4667  0.3149
 6268TIP3    H243000   1.618   3.984   3.778 -0.7150 -1.7779 -1.6678
 6269TIP3   OH243001   4.639   0.667   2.684 -0.4672 -0.2856  0.7187
 6269TIP3    H143002   4.572   0.722   2.644 -1.4173 -2.2655 -0.5652
 6269TIP3    H243003   4.604   0.578   2.678  2.3705 -1.4532 -0.2511
 6270TIP3   OH243004   2.205   3.957   2.447 -0.7621  0.2502 -0.3858
 6270TIP3    H143005   2.251   3.957   2.362  0.0635  2.4134  0.0032
 6270TIP3    H243006   2.261   3.904   2.504 -0.7017 -0.2116 -0.8560
 6271TIP3   OH243007   5.732   1.888   2.600  0.3311  0.3956 -0.1380
 6271TIP3    H143008   5.799   1.941   2.644 -0.7859 -0.9915  3.5107
 6271TIP3    H243009   5.749   1.799   2.628 -1.7516 -0.2937 -0.8857
 6272TIP3   OH243010   7.421   5.247   2.900 -0.4795  0.2861  0.0936
 6272TIP3    H143011   7.464   5.233   2.984 -0.3203 -2.7409 -0.3992
 6272TIP3    H243012   7.492   5.259   2.838 -0.5983  2.5446  0.3013
 6273TIP3   OH243013   1.658   2.864   0.569 -0.3123 -0.0183  0.1050
 6273TIP3    H143014   1.612   2.807   0.630 -0.2492  0.3821  0.5351
 6273TIP3    H243015   1.660   2.815   0.486  1.6265 -1.5416  0.9930
 6274TIP3   OH243016   6.048   1.066   2.330  0.0898 -0.0981 -0.3858
 6274TIP3    H143017   6.069   0.986   2.377 -0.7528  0.0747  0.3164
 6274TIP3    H243018   5.966   1.046   2.284 -0.6694  0.6484  0.5896
 6275TIP3   OH243019   0.893   6.216   2.467 -0.7212  0.0583  0.4832
 6275TIP3    H143020   0.815   6.247   2.420 -1.3984  0.2133  1.6623
 6275TIP3    H243021   0.859   6.152   2.529  0.3800 -1.4571 -0.4019
 6276TIP3   OH243022   2.885   1.213   1.117 -0.3755  0.6151  0.1498
 6276TIP3    H143023   2.833   1.137   1.145 -0.4918 -0.1952 -2.0646
 6276TIP3    H243024   2.970   1.200   1.160 -0.6973 -0.2328  0.5696
 6277TIP3   OH243025   6.061   2.602   1.075 -0.2644 -0.2950  1.3499
 6277TIP3    H143026   5.974   2.569   1.053 -1.5725  2.5519  1.7881
 6277TIP3    H243027   6.110   2.598   0.992 -1.3605 -0.3654  0.6858
 6278TIP3   OH243028   6.490   7.115   2.395  0.0107 -0.5293  0.3879
 6278TIP3    H143029   6.519   7.206   2.385 -0.3921 -0.5833 -1.4988
 6278TIP3    H243030   6.572   7.066   2.407  0.2844 -0.0339  0.6165
 6279TIP3   OH243031   4.175   6.664   0.522  0.2382  0.5625 -0.0559
 6279TIP3    H143032   4.131   6.676   0.606 -1.5828  1.3295 -1.0756
 6279TIP3    H243033   4.106   6.635   0.462  1.9893 -2.7537 -0.7287
 6280TIP3   OH243034   1.924   3.650   1.389  0.3084 -0.6009  0.4290
 6280TIP3    H143035   1.924   3.570   1.337 -0.1822 -0.1079 -0.3594
 6280TIP3    H243036   1.835   3.684   1.380  0.2359 -0.4538  1.5338
 6281TIP3   OH243037   6.070   7.102   1.112  0.4918  0.3394 -0.1658
 6281TIP3    H143038   6.020   7.023   1.131  1.5107 -0.2811 -0.0337
 6281TIP3    H243039   6.089   7.140   1.197  0.4198  0.4809 -0.2107
 6282TIP3   OH243040   0.251   3.126   1.878  0.0481 -0.0067  0.1116
 6282TIP3    H143041   0.263   3.044   1.926  0.7309  0.1051  0.1446
 6282TIP3    H243042   0.340   3.157   1.862 -0.2111  1.4320  1.2788
 6283TIP3   OH243043   4.517   3.652   1.200 -0.1737 -0.5196 -0.2534
 6283TIP3    H143044   4.588   3.593   1.225 -0.6317 -1.2211 -0.5613
 6283TIP3    H243045   4.472   3.671   1.282  0.1196 -0.4011 -0.1181
 6284TIP3   OH243046   0.441   6.608   1.486  0.3165 -0.1395  0.3537
 6284TIP3    H143047   0.349   6.603   1.512 -0.1102 -0.6924 -1.1543
 6284TIP3    H243048   0.440   6.645   1.398  1.6821  1.4525  0.9531
 6285TIP3   OH243049   0.177   3.151   1.189 -0.5416  0.4173  0.2280
 6285TIP3    H143050   0.097   3.204   1.192  0.2264  1.5854  1.0859
 6285TIP3    H243051   0.192   3.127   1.281  0.5541  0.9572  0.2053
 6286TIP3   OH243052   2.713   4.486   1.690  0.7032  0.8815 -0.0491
 6286TIP3    H143053   2.662   4.405   1.697  2.3961 -0.2130  0.0517
 6286TIP3    H243054   2.751   4.498   1.778 -0.3314  2.3657  0.2369
 6287TIP3   OH243055   6.071   6.301   1.327 -0.1521  0.2311  0.5032
 6287TIP3    H143056   5.976   6.314   1.320 -0.4622 -1.0362  1.8840
 6287TIP3    H243057   6.107   6.353   1.256 -2.1153 -2.4452 -2.7399
 6288TIP3   OH243058   5.675   5.309   1.871 -0.4452 -0.0924  0.1141
 6288TIP3    H143059   5.694   5.252   1.945 -0.5589 -0.8171 -0.4018
 6288TIP3    H243060   5.711   5.262   1.795 -0.3588  0.6184 -0.2945
 6289TIP3   OH243061   6.935   5.212   3.245  0.3936 -0.3929 -0.7492
 6289TIP3    H143062   7.030   5.200   3.245  0.2746 -1.5312 -0.0539
 6289TIP3    H243063   6.907   5.177   3.330 -0.4824  1.5009 -0.2185
 6290TIP3   OH243064   7.520   2.077   3.653 -0.4303  0.7310  0.4653
 6290TIP3    H143065   7.479   2.064   3.738  0.0588 -1.6759  0.3954
 6290TIP3    H243066   7.467   2.026   3.592  1.9881 -1.7221  0.2218
 6291TIP3   OH243067   4.555   4.568   3.194  0.0362  0.0085  0.3227
 6291TIP3    H143068   4.501   4.586   3.117  0.0748  0.4468  0.3936
 6291TIP3    H243069   4.605   4.649   3.206 -1.6397  0.8521  2.1784
 6292TIP3   OH243070   7.228   0.355   1.549 -0.0390  0.4514 -0.2845
 6292TIP3    H143071   7.304   0.352   1.491 -1.2620  1.8695 -2.0820
 6292TIP3    H243072   7.261   0.391   1.631  1.2809  0.7338 -0.9170
 6293TIP3   OH243073   2.361   5.852   2.415  0.2916  0.0885 -0.1958
 6293TIP3    H143074   2.365   5.945   2.395  0.6599  0.4305  1.3721
 6293TIP3    H243075   2.283   5.841   2.469  2.0996  0.1715  2.6660
 6294TIP3   OH243076   0.745   2.121   1.376 -0.4152  0.1617 -0.0035
 6294TIP3    H143077   0.673   2.064   1.350 -0.1292 -0.2921  0.1919
 6294TIP3    H243078   0.757   2.103   1.470  0.2227 -0.0710 -0.1283
 6295TIP3   OH243079   7.106   3.180   1.028  0.2189  0.2321 -0.4925
 6295TIP3    H143080   7.046   3.177   0.953  0.7650  1.6174 -1.0241
 6295TIP3    H243081   7.050   3.160   1.103 -0.9568  1.4825 -0.9704
 6296TIP3   OH243082   0.253   0.733   3.276  0.0516 -0.1645 -0.3025
 6296TIP3    H143083   0.347   0.714   3.281  0.4059  1.4663 -0.1894
 6296TIP3    H243084   0.243   0.780   3.193 -0.5916  0.0565 -0.1016
 6297TIP3   OH243085   7.178   2.932   0.631  0.2406  0.0302  0.1645
 6297TIP3    H143086   7.228   2.864   0.677  0.0471  0.5543  1.1757
 6297TIP3    H243087   7.087   2.918   0.657  0.2111  0.7337  0.4871
 6298TIP3   OH243088   0.862   0.350   3.410 -0.6145 -0.1522 -0.0860
 6298TIP3    H143089   0.850   0.267   3.363  0.3333 -1.1017  1.2704
 6298TIP3    H243090   0.923   0.399   3.355 -1.2338 -0.3004 -0.9379
 6299TIP3   OH243091   0.825   0.819   0.974  0.1614 -0.4661 -0.7646
 6299TIP3    H143092   0.893   0.757   0.948 -0.9124 -2.0920  0.1311
 6299TIP3    H243093   0.838   0.831   1.068  0.8248  1.3158 -1.0444
 6300TIP3   OH243094   0.718   1.325   1.791  0.5644 -0.5776  0.0324
 6300TIP3    H143095   0.704   1.349   1.700  0.9248 -0.8522 -0.0960
 6300TIP3    H243096   0.714   1.230   1.792  0.3422 -0.5664  0.3417
 6301TIP3   OH243097   4.338   5.358   1.798  0.2338  0.1634 -0.4474
 6301TIP3    H143098   4.300   5.300   1.731 -2.0801  1.2214 -0.1474
 6301TIP3    H243099   4.429   5.329   1.805 -0.2540 -2.0055 -1.8326
 6302TIP3   OH243100   4.840   2.246   0.889  0.0696 -0.2774  0.0114
 6302TIP3    H143101   4.767   2.295   0.928 -0.9863 -1.3618 -0.5370
 6302TIP3    H243102   4.875   2.194   0.961  0.5628  0.5197  0.3645
 6303TIP3   OH243103   2.648   5.955   1.246 -0.1827  0.0666 -0.2416
 6303TIP3    H143104   2.609   6.011   1.179 -2.0485  1.7285  2.0588
 6303TIP3    H243105   2.574   5.905   1.282  0.5862 -0.1381  1.1459
 6304TIP3   OH243106   3.918   2.483   2.189  0.5418  0.5121  0.3965
 6304TIP3    H143107   3.882   2.553   2.134  0.4298 -0.5670 -0.9589
 6304TIP3    H243108   4.002   2.462   2.148  0.7348  0.1019  1.0010
 6305TIP3   OH243109   2.387   6.311   1.163  0.1191 -0.1166 -0.4733
 6305TIP3    H143110   2.368   6.288   1.254  0.3077 -1.0327 -0.6565
 6305TIP3    H243111   2.441   6.390   1.169 -3.1530  2.3020  0.0888
 6306TIP3   OH243112   7.670   4.715   1.141  0.0267  0.2943  0.3730
 6306TIP3    H143113   7.717   4.745   1.062 -0.9400  0.7465 -0.0463
 6306TIP3    H243114   7.664   4.794   1.195  0.8292 -0.0530  0.9877
 6307TIP3   OH243115   2.090   0.751   2.212 -0.6977  0.3104  0.9837
 6307TIP3    H143116   2.062   0.801   2.136  2.0851 -0.2334 -0.5532
 6307TIP3    H243117   2.176   0.787   2.235  1.0005 -2.9288  0.4176
 6308TIP3   OH243118   7.308   1.197   0.892 -0.0372 -0.2673  0.0810
 6308TIP3    H143119   7.302   1.276   0.946 -1.5139 -0.3738  0.1140
 6308TIP3    H243120   7.254   1.217   0.816  0.0645 -1.0312 -0.1952
 6309TIP3   OH243121   5.464   1.852   1.630 -0.1830 -0.3692  0.7783
 6309TIP3    H143122   5.407   1.927   1.644 -2.0580 -1.3350 -1.2018
 6309TIP3    H243123   5.491   1.826   1.718 -2.1858  0.5901  1.7319
 6310TIP3   OH243124   0.455   1.952   2.027  0.5043  0.1135  0.0428
 6310TIP3    H143125   0.410   1.879   1.985 -1.3954  1.4088 -0.2817
 6310TIP3    H243126   0.473   2.014   1.955  0.0120  0.9661  0.6333
 6311TIP3   OH243127   3.874   0.266   1.691 -0.2816 -0.2534 -0.0802
 6311TIP3    H143128   3.932   0.203   1.647 -0.3092 -1.7789  1.9032
 6311TIP3    H243129   3.918   0.350   1.679  0.7846 -0.9259 -1.1906
 6312TIP3   OH243130   5.451   1.455   2.820 -0.1793 -0.2360 -0.1816
 6312TIP3    H143131   5.455   1.481   2.913  0.2391 -0.4047 -0.1518
 6312TIP3    H243132   5.479   1.364   2.819 -1.6900 -0.7304 -0.2827
 6313TIP3   OH243133   5.420   6.772   1.460 -0.1798  0.2015  0.0910
 6313TIP3    H143134   5.390   6.764   1.369 -1.5389  1.0608  0.4461
 6313TIP3    H243135   5.507   6.812   1.452  0.0123 -0.3514 -0.8455
 6314TIP3   OH243136   5.392   6.687   0.670 -0.0880  0.4791  0.0595
 6314TIP3    H143137   5.301   6.690   0.640 -0.5143 -0.0258  1.2496
 6314TIP3    H243138   5.407   6.595   0.690  0.4319  0.6896  0.6453
 6315TIP3   OH243139   0.781   5.248   2.272  0.4059 -0.2129 -0.1419
 6315TIP3    H143140   0.765   5.331   2.226  0.1590 -0.3198 -0.2464
 6315TIP3    H243141   0.743   5.181   2.216  1.1255 -0.4590 -0.3461
 6316TIP3   OH243142   4.585   1.906   1.475  0.4713  0.2268  0.9396
 6316TIP3    H143143   4.530   1.832   1.451  3.3148 -2.0533  0.8820
 6316TIP3    H243144   4.598   1.954   1.394 -0.1598 -0.1088  0.6327
 6317TIP3   OH243145   0.073   7.097   2.817  0.3427  0.2415 -0.2038
 6317TIP3    H143146   0.042   7.007   2.825 -0.3603  0.6257  1.9961
 6317TIP3    H243147   0.056   7.136   2.902  1.7194  2.1409 -0.7352
 6318TIP3   OH243148   0.142   4.279   2.224  0.3016 -0.4010  0.1105
 6318TIP3    H143149   0.188   4.205   2.183  0.3088 -0.3537  0.0329
 6318TIP3    H243150   0.187   4.356   2.191 -2.6749 -0.0327 -3.7452
 6319TIP3   OH243151   4.904   7.273   1.475 -0.1907  0.2449 -0.6940
 6319TIP3    H143152   4.987   7.225   1.475 -0.9490 -1.1864  1.1095
 6319TIP3    H243153   4.849   7.226   1.537 -1.2721  3.0338  0.6160
 6320TIP3   OH243154   2.261   2.283   1.678  0.2476  0.0814  0.1987
 6320TIP3    H143155   2.289   2.370   1.648  2.3339 -0.5349  0.1748
 6320TIP3    H243156   2.338   2.247   1.721 -1.1351 -1.0786  1.8187
 6321TIP3   OH243157   5.494   6.083   1.288  0.4845  0.0851  0.0452
 6321TIP3    H143158   5.415   6.068   1.236  1.4888  2.7670 -2.4608
 6321TIP3    H243159   5.534   5.996   1.296 -1.7148 -1.0250 -0.2080
 6322TIP3   OH243160   1.697   0.247   0.853 -0.1738 -0.4631  0.1701
 6322TIP3    H143161   1.783   0.229   0.890  0.0069 -1.4982 -0.7083
 6322TIP3    H243162   1.716   0.292   0.771 -0.4657 -0.7304 -0.0444
 6323TIP3   OH243163   1.907   3.159   2.265  0.5749 -0.5808 -0.6865
 6323TIP3    H143164   1.856   3.111   2.330 -2.7665  1.7458 -1.3339
 6323TIP3    H243165   1.968   3.212   2.315  0.3530 -1.2665  0.3267
 6324TIP3   OH243166   5.127   0.644   1.734 -0.4051  0.0024  0.1278
 6324TIP3    H143167   5.220   0.637   1.711 -0.0030  0.5435  1.5236
 6324TIP3    H243168   5.100   0.729   1.701  0.4055  1.1777  2.3025
 6325TIP3   OH243169   5.226   5.449   1.591 -0.2477  0.4339  0.0686
 6325TIP3    H143170   5.187   5.406   1.667  0.2136 -1.9740 -0.9614
 6325TIP3    H243171   5.299   5.499   1.627  1.6068 -2.6958  1.0882
 6326TIP3   OH243172   2.081   1.547   2.762  0.0881 -0.6898  0.1559
 6326TIP3    H143173   2.076   1.493   2.683 -0.6198  0.6332 -0.7357
 6326TIP3    H243174   2.089   1.483   2.834  1.4190 -1.9032 -0.9999
 6327TIP3   OH243175   5.483   3.406   1.901 -0.2038  0.2756  0.2167
 6327TIP3    H143176   5.452   3.319   1.876  0.2268  0.4150 -0.9034
 6327TIP3    H243177   5.535   3.392   1.979  2.5230 -1.0254 -1.6617
 6328TIP3   OH243178   4.890   6.572   1.502 -0.1410 -0.3533 -0.0841
 6328TIP3    H143179   4.853   6.620   1.576 -0.9135 -1.0917  0.0170
 6328TIP3    H243180   4.907   6.640   1.436  0.2424  0.2628  0.6361
 6329TIP3   OH243181   2.664   3.826   2.223 -0.5671 -0.5416 -0.3101
 6329TIP3    H143182   2.642   3.771   2.298 -1.4298 -1.3190 -1.1002
 6329TIP3    H243183   2.716   3.769   2.166 -1.3024 -0.4934 -1.0488
 6330TIP3   OH243184   3.992   4.417   1.051 -0.9743 -0.8311 -0.1115
 6330TIP3    H143185   4.077   4.382   1.080 -0.9021 -0.2257  0.4282
 6330TIP3    H243186   3.928   4.358   1.088 -0.8653 -0.2465  1.0518
 6331TIP3   OH243187   4.879   6.539   2.043 -0.1366  0.5885 -0.7638
 6331TIP3    H143188   4.903   6.628   2.017  1.0563  0.9186  1.2778
 6331TIP3    H243189   4.944   6.483   1.999 -1.0134  0.6428 -2.2168
 6332TIP3   OH243190   5.978   3.321   1.632  0.0832 -0.3742  0.3013
 6332TIP3    H143191   6.049   3.353   1.687  0.3774 -0.2071 -0.1678
 6332TIP3    H243192   5.910   3.388   1.638  0.4672  0.0612 -0.2261
 6333TIP3   OH243193   5.435   2.598   0.723 -0.3859  0.1694 -0.0502
 6333TIP3    H143194   5.390   2.682   0.715 -0.1673  0.3377  0.4270
 6333TIP3    H243195   5.364   2.533   0.721 -0.7033  0.4567  1.1587
 6334TIP3   OH243196   0.457   6.852   1.761 -0.6007  0.0522  0.0287
 6334TIP3    H143197   0.505   6.783   1.715 -1.0107 -0.5533  0.4865
 6334TIP3    H243198   0.524   6.896   1.814 -0.3211  0.0570 -0.3257
 6335TIP3   OH243199   5.114   1.518   1.387 -0.3505  0.2645 -0.0660
 6335TIP3    H143200   5.055   1.566   1.445  0.6445  1.6891 -0.1521
 6335TIP3    H243201   5.190   1.577   1.378 -0.2142 -0.1869 -2.3087
 6336TIP3   OH243202   6.134   3.391   1.393  0.2586  0.6210 -0.2418
 6336TIP3    H143203   6.049   3.409   1.353 -0.0284 -0.2747 -0.0702
 6336TIP3    H243204   6.113   3.366   1.483  0.4544 -1.8564 -0.8168
 6337TIP3   OH243205   0.959   3.719   2.537 -0.2309 -0.3674 -0.2165
 6337TIP3    H143206   0.938   3.698   2.628 -1.1291  1.1107 -0.0511
 6337TIP3    H243207   0.882   3.765   2.504  0.4330 -0.0858 -1.4469
 6338TIP3   OH243208   5.899   5.321   3.285 -0.3831 -0.3031  0.1576
 6338TIP3    H143209   5.840   5.250   3.311 -0.0744 -0.3623  0.7020
 6338TIP3    H243210   5.839   5.393   3.262 -0.6765 -0.3168  0.8382
 6339TIP3   OH243211   2.729   2.401   2.610  1.0681 -0.2037 -0.3602
 6339TIP3    H143212   2.784   2.324   2.615 -0.2896 -1.1693  0.4502
 6339TIP3    H243213   2.640   2.369   2.628  0.6070  1.6971  1.0954
 6340TIP3   OH243214   0.522   2.876   3.526 -0.0765 -0.0408  0.1796
 6340TIP3    H143215   0.464   2.806   3.495  0.1616  1.3865 -4.0522
 6340TIP3    H243216   0.463   2.942   3.562 -0.5272 -1.0762  1.4081
 6341TIP3   OH243217   3.109   0.124   0.566 -0.0288 -0.1987 -0.3830
 6341TIP3    H143218   3.142   0.140   0.654 -0.3388 -2.2365  0.1645
 6341TIP3    H243219   3.045   0.193   0.551 -0.0067  0.1500  1.0031
 6342TIP3   OH243220   5.662   5.047   2.132  0.4045  0.3971  0.1196
 6342TIP3    H143221   5.663   5.067   2.226 -0.9905  0.1560  0.2032
 6342TIP3    H243222   5.753   5.027   2.111  0.5834 -0.5769  1.6527
 6343TIP3   OH243223   0.635   5.737   2.000  0.1548 -0.7092 -0.1919
 6343TIP3    H143224   0.679   5.704   1.921 -0.9212 -1.1443 -0.6369
 6343TIP3    H243225   0.582   5.810   1.968 -1.6752 -1.9958 -0.2396
 6344TIP3   OH243226   2.261   4.639   1.584  0.2535 -0.3956  0.2432
 6344TIP3    H143227   2.187   4.691   1.552 -1.1356 -1.9030  0.8470
 6344TIP3    H243228   2.337   4.674   1.539 -0.4721  2.6458  1.1756
 6345TIP3   OH243229   6.322   2.063   1.844  0.4459  0.0151 -0.1428
 6345TIP3    H143230   6.335   2.062   1.749 -2.6998 -1.5664 -0.6950
 6345TIP3    H243231   6.397   2.013   1.879  1.0788 -0.3139 -1.8741
 6346TIP3   OH243232   1.497   3.494   2.551 -0.0359  0.4669  0.6935
 6346TIP3    H143233   1.551   3.416   2.538  1.4696  1.9242 -3.1203
 6346TIP3    H243234   1.409   3.467   2.523  0.2176 -0.1097  0.4282
 6347TIP3   OH243235   1.655   6.415   2.366  0.2730  0.2253 -0.0453
 6347TIP3    H143236   1.687   6.487   2.311  1.4056  0.2049  0.5544
 6347TIP3    H243237   1.732   6.385   2.414 -0.8204  0.8791  2.2789
 6348TIP3   OH243238   7.556   6.564   2.541 -0.1969 -0.4483  0.5641
 6348TIP3    H143239   7.490   6.495   2.530 -1.6919  0.9696  0.3629
 6348TIP3    H243240   7.541   6.598   2.629 -1.5419  1.6228 -0.3804
 6349TIP3   OH243241   7.264   5.881   3.156  0.5126  0.6999  0.2783
 6349TIP3    H143242   7.340   5.938   3.168  1.0392 -0.1989  1.3827
 6349TIP3    H243243   7.218   5.919   3.081  2.9813  0.2866 -1.6102
 6350TIP3   OH243244   7.638   5.152   1.895  0.2106 -0.1582 -0.1188
 6350TIP3    H143245   7.704   5.133   1.961  1.2818 -0.6076 -1.2653
 6350TIP3    H243246   7.607   5.065   1.866 -1.8882  0.0344  1.3132
 6351TIP3   OH243247   7.534   6.453   1.481  0.2175 -0.6577 -0.5243
 6351TIP3    H143248   7.463   6.411   1.529 -0.5086 -0.4007 -1.3402
 6351TIP3    H243249   7.490   6.511   1.419  1.1894  1.9044  1.0543
 6352TIP3   OH243250   5.297   2.888   1.861 -0.1532  0.3348  0.2508
 6352TIP3    H143251   5.226   2.836   1.824 -0.1726  0.9415 -0.6055
 6352TIP3    H243252   5.324   2.840   1.940  1.2943 -2.2099 -1.6012
 6353TIP3   OH243253   2.066   4.784   1.439 -0.3700 -0.1718  0.1928
 6353TIP3    H143254   1.991   4.727   1.426 -1.2999  1.2199 -0.8710
 6353TIP3    H243255   2.113   4.782   1.356  0.0227  0.0299  0.4038
 6354TIP3   OH243256   4.865   1.691   1.914 -0.4880  0.2530 -0.1295
 6354TIP3    H143257   4.794   1.642   1.956  0.0399 -0.5896 -0.2124
 6354TIP3    H243258   4.823   1.734   1.839 -1.4293  1.7307  1.1796
 6355TIP3   OH243259   0.578   3.993   0.987 -0.6713  0.0933 -0.6610
 6355TIP3    H143260   0.608   3.972   1.075 -2.1755  0.0803 -0.1228
 6355TIP3    H243261   0.512   3.927   0.968 -2.7415  1.9975 -0.4633
 6356TIP3   OH243262   4.025   3.026   2.591  0.0712 -0.1408 -0.1831
 6356TIP3    H143263   3.941   3.049   2.630  0.2533 -1.1981  0.8879
 6356TIP3    H243264   4.080   3.103   2.604 -1.0689  1.0841 -2.0641
 6357TIP3   OH243265   2.540   2.892   1.749 -0.4924  0.4378  0.3639
 6357TIP3    H143266   2.590   2.927   1.675 -1.9493  0.5153 -0.6148
 6357TIP3    H243267   2.521   2.802   1.725 -1.1423  0.5229  0.5545
 6358TIP3   OH243268   4.018   5.142   1.055  0.0171 -0.1722 -0.0172
 6358TIP3    H143269   4.033   5.206   0.985 -1.6974  0.7382  0.4035
 6358TIP3    H243270   3.925   5.124   1.052 -0.2321  0.3260  2.3624
 6359TIP3   OH243271   5.369   5.744   2.558 -0.1559 -0.0274 -0.3641
 6359TIP3    H143272   5.395   5.833   2.582  0.1942 -0.5518  1.3106
 6359TIP3    H243273   5.297   5.756   2.497 -1.1693  1.4404  1.0348
 6360TIP3   OH243274   5.052   4.508   1.206 -0.1407 -0.1715 -0.8084
 6360TIP3    H143275   4.962   4.532   1.182  0.5655  2.5461 -1.0272
 6360TIP3    H243276   5.105   4.584   1.182  1.6896 -0.1304  2.7423
 6361TIP3   OH243277   6.875   7.036   3.311 -0.5211 -0.4141  0.4515
 6361TIP3    H143278   6.854   7.126   3.335 -1.1044 -0.2341 -0.6693
 6361TIP3    H243279   6.958   7.018   3.356 -0.2206  0.7937  0.4203
 6362TIP3   OH243280   3.268   4.506   2.019 -0.1873 -0.2438 -1.0090
 6362TIP3    H143281   3.286   4.418   1.986  1.9055 -0.0818 -0.3986
 6362TIP3    H243282   3.351   4.552   2.012 -0.6659  0.9889  0.7908
 6363TIP3   OH243283   3.973   6.628   2.008  0.6076  0.0265 -0.0278
 6363TIP3    H143284   4.045   6.674   2.051  1.5221 -1.1165 -0.2738
 6363TIP3    H243285   3.897   6.684   2.020  1.1330  0.3912  1.8633
 6364TIP3   OH243286   7.468   3.356   0.547 -0.8581 -0.1797 -0.3803
 6364TIP3    H143287   7.518   3.275   0.555  0.2175  0.1859 -2.7901
 6364TIP3    H243288   7.390   3.341   0.601  1.1733 -1.2133  2.5743
 6365TIP3   OH243289   1.689   1.798   1.963  0.1288 -0.1338  0.1930
 6365TIP3    H143290   1.621   1.784   2.029 -0.6570 -1.8571 -0.9051
 6365TIP3    H243291   1.644   1.841   1.891  0.2778 -0.8578 -0.3506
 6366TIP3   OH243292   0.576   4.358   1.589  0.2850  0.0086  0.2282
 6366TIP3    H143293   0.513   4.286   1.584 -0.1788  0.3087  1.3366
 6366TIP3    H243294   0.648   4.332   1.533 -0.0888 -1.1072  0.2547
 6367TIP3   OH243295   3.083   4.656   3.310 -0.3313  0.8609  0.2510
 6367TIP3    H143296   3.001   4.706   3.311  0.0313  1.4728 -0.0108
 6367TIP3    H243297   3.150   4.719   3.338  0.3068  0.8401 -1.1392
 6368TIP3   OH243298   7.671   1.231   1.127 -0.0583 -0.5775 -0.5449
 6368TIP3    H143299   7.649   1.178   1.203 -2.9618  0.1525 -0.7245
 6368TIP3    H243300   7.688   1.318   1.163 -0.4286 -0.4665 -0.6326
 6369TIP3   OH243301   5.561   7.502   1.409  0.2761  0.0842  0.3146
 6369TIP3    H143302   5.608   7.448   1.473 -1.8267  0.5816  2.3894
 6369TIP3    H243303   5.569   7.453   1.327  1.0651 -1.7890  1.4383
 6370TIP3   OH243304   4.059   1.972   1.770  0.4156 -0.5860  0.0375
 6370TIP3    H143305   4.052   2.003   1.860  0.0144 -0.5449 -0.0042
 6370TIP3    H243306   4.126   2.027   1.730  1.2172 -1.1801  0.5500
 6371TIP3   OH243307   2.314   0.111   0.761  0.3502  0.1191 -0.6200
 6371TIP3    H143308   2.235   0.077   0.720  0.8662 -0.1252 -1.4334
 6371TIP3    H243309   2.330   0.051   0.834  0.7695 -0.8950 -1.5243
 6372TIP3   OH243310   4.016   5.757   3.097  0.3906 -0.4266 -0.0237
 6372TIP3    H143311   3.976   5.698   3.160  1.8731 -0.7648  0.6386
 6372TIP3    H243312   4.100   5.780   3.135 -0.0765  2.0515 -0.3170
 6373TIP3   OH243313   4.253   1.297   2.168 -0.3023 -0.3349 -0.3026
 6373TIP3    H143314   4.248   1.351   2.089  0.8068  0.1280 -0.0727
 6373TIP3    H243315   4.345   1.301   2.194 -0.4740 -1.2408  0.4918
 6374TIP3   OH243316   1.647   0.774   1.120 -0.2547 -0.4127  0.4365
 6374TIP3    H143317   1.568   0.735   1.081 -0.3797  1.3191 -1.2076
 6374TIP3    H243318   1.710   0.776   1.049  0.7430 -0.3288  1.3063
 6375TIP3   OH243319   5.569   1.095   1.287 -0.7247 -0.7284  0.1703
 6375TIP3    H143320   5.506   1.136   1.346 -0.1725 -1.8631  1.6242
 6375TIP3    H243321   5.519   1.078   1.206 -1.6112  0.4931  0.4359
 6376TIP3   OH243322   3.174   3.015   2.563 -0.2085  0.0693 -0.4884
 6376TIP3    H143323   3.114   3.089   2.566  1.7812  1.7488  0.0364
 6376TIP3    H243324   3.195   3.005   2.470  0.2439  0.7970 -0.4696
 6377TIP3   OH243325   0.578   4.883   0.656 -0.4707 -0.1148 -0.3706
 6377TIP3    H143326   0.529   4.826   0.715 -1.0646 -0.6674 -1.3869
 6377TIP3    H243327   0.531   4.966   0.658 -1.7458 -0.7622 -1.6607
 6378TIP3   OH243328   4.855   0.497   2.384  0.0873  0.3068  0.3602
 6378TIP3    H143329   4.882   0.539   2.466 -0.2909 -1.1416  1.2701
 6378TIP3    H243330   4.776   0.544   2.358  1.0864  1.8283 -0.0736
 6379TIP3   OH243331   5.017   4.503   2.444  0.0936 -0.1525  0.3985
 6379TIP3    H143332   5.105   4.529   2.469  0.5821 -2.6400  1.5617
 6379TIP3    H243333   5.029   4.431   2.382 -1.1090 -0.2810  0.2726
 6380TIP3   OH243334   2.589   5.276   2.852 -0.3323 -0.0388  0.0771
 6380TIP3    H143335   2.498   5.272   2.884 -0.1139  3.0503  1.5002
 6380TIP3    H243336   2.641   5.243   2.925 -0.2502 -1.0092 -0.4132
 6381TIP3   OH243337   1.106   7.023   2.949 -0.0007 -0.6751  0.4457
 6381TIP3    H143338   1.163   7.082   2.998  1.3010 -0.9475 -0.6857
 6381TIP3    H243339   1.019   7.061   2.959  0.4539  0.1034  1.6980
 6382TIP3   OH243340   4.963   1.074   0.963 -0.0974 -0.2866  0.1727
 6382TIP3    H143341   5.040   1.091   1.017 -0.3445 -0.0322  0.4465
 6382TIP3    H243342   4.999   1.040   0.881  0.3845  1.0029 -0.1742
 6383TIP3   OH243343   3.901   3.794   1.766  0.4923  0.2171 -0.0796
 6383TIP3    H143344   3.860   3.849   1.699  0.6862 -0.6301 -0.9139
 6383TIP3    H243345   3.910   3.708   1.725  1.7203 -0.0157  0.6113
 6384TIP3   OH243346   1.509   6.932   2.263  0.5731  0.3354  0.2999
 6384TIP3    H143347   1.474   6.981   2.188  2.0855 -0.7969 -1.2158
 6384TIP3    H243348   1.461   6.849   2.262 -0.8276  1.0581  1.8773
 6385TIP3   OH243349   5.316   2.322   3.229 -0.0810  0.0799  0.1540
 6385TIP3    H143350   5.227   2.284   3.229  0.1705 -0.5265  0.3015
 6385TIP3    H243351   5.373   2.247   3.209  0.3994  0.4643  0.0858
 6386TIP3   OH243352   7.246   4.217   0.402  0.2192 -0.2478 -0.4549
 6386TIP3    H143353   7.243   4.313   0.404  0.0943 -0.2238  2.3719
 6386TIP3    H243354   7.189   4.190   0.474 -0.4780 -2.5093 -1.7763
 6387TIP3   OH243355   4.255   6.010   0.887 -0.1142  0.3608  0.1190
 6387TIP3    H143356   4.314   5.981   0.817 -0.0026  0.6594  0.0867
 6387TIP3    H243357   4.307   6.072   0.938 -0.6349  1.2193 -0.3616
 6388TIP3   OH243358   1.398   5.022   2.445  0.7485 -0.1999 -0.4568
 6388TIP3    H143359   1.323   5.007   2.388  1.4831  0.7881 -1.7653
 6388TIP3    H243360   1.378   4.975   2.525 -1.2804  0.0851 -0.7460
 6389TIP3   OH243361   2.443   1.024   2.430 -0.1671  0.2661 -0.3671
 6389TIP3    H143362   2.527   0.997   2.469  0.5322  0.8309 -1.4203
 6389TIP3    H243363   2.402   1.079   2.497  1.5261  2.1697 -0.7956
 6390TIP3   OH243364   7.596   2.750   2.182  0.6048 -0.5303 -0.1829
 6390TIP3    H143365   7.606   2.757   2.087  2.0603 -1.0417 -0.0876
 6390TIP3    H243366   7.518   2.697   2.194  1.1697 -1.6031 -1.1194
 6391TIP3   OH243367   0.774   2.885   2.186 -0.4013 -0.4736  0.8879
 6391TIP3    H143368   0.849   2.940   2.165 -1.8536  1.0699 -0.5488
 6391TIP3    H243369   0.806   2.826   2.254  2.4575 -0.7239 -0.5070
 6392TIP3   OH243370   7.555   6.515   2.271 -0.4606  0.4711 -0.1164
 6392TIP3    H143371   7.610   6.570   2.215  0.8188  0.2561  0.9146
 6392TIP3    H243372   7.576   6.542   2.360 -0.8560 -0.7172  0.3489
 6393TIP3   OH243373   0.058   7.104   1.951  0.1109  0.1832 -0.4429
 6393TIP3    H143374  -0.002   7.037   1.984 -0.0801  0.6622  0.2145
 6393TIP3    H243375   0.025   7.124   1.864  0.2658 -0.6852 -0.7124
 6394TIP3   OH243376   1.047   4.529   1.800 -0.1454 -0.0338 -0.0778
 6394TIP3    H143377   1.037   4.496   1.711  0.6684  0.1273 -0.2369
 6394TIP3    H243378   1.126   4.486   1.833  0.1751  0.7413  0.1782
 6395TIP3   OH243379   2.427   5.840   1.348 -0.2387 -0.2920 -0.0442
 6395TIP3    H143380   2.452   5.892   1.425 -0.1514 -0.5397  0.0976
 6395TIP3    H243381   2.342   5.874   1.323 -0.5279 -0.5837  0.5080
 6396TIP3   OH243382   0.345   0.263   9.571 -0.3611  0.7140  0.3376
 6396TIP3    H143383   0.419   0.226   9.523 -1.4094  0.4528 -1.1135
 6396TIP3    H243384   0.332   0.203   9.644  0.0932  0.0993 -0.0756
 6397TIP3   OH243385   5.298   5.540   2.999 -0.4074 -0.1392  0.6120
 6397TIP3    H143386   5.378   5.591   2.985  0.7200 -1.9029  0.3868
 6397TIP3    H243387   5.270   5.515   2.911 -0.8705 -0.0582  0.7326
 6398TIP3   OH243388   4.169   0.804   2.217 -0.1661  0.4999  0.1361
 6398TIP3    H143389   4.113   0.729   2.195  1.0852 -0.7145  0.9638
 6398TIP3    H243390   4.204   0.784   2.303 -0.0955  2.2506  0.5613
 6399TIP3   OH243391   2.340   4.423   0.907  0.0862  0.3703 -0.1570
 6399TIP3    H143392   2.286   4.470   0.843 -0.4537  1.6370  1.1700
 6399TIP3    H243393   2.358   4.338   0.866 -2.0802  0.2912 -1.0618
 6400TIP3   OH243394   2.488   7.430   1.825 -0.9494 -0.2410  0.0857
 6400TIP3    H143395   2.549   7.416   1.754 -0.9026 -0.6072  0.1949
 6400TIP3    H243396   2.470   7.524   1.824 -0.6241 -0.1813 -0.1387
 6401TIP3   OH243397   2.135   7.029   2.391 -0.1347 -0.6561  0.6711
 6401TIP3    H143398   2.058   6.998   2.439  0.4418 -0.3681  1.8376
 6401TIP3    H243399   2.187   7.075   2.458  0.4596  0.2069 -0.3559
 6402TIP3   OH243400   1.028   0.050   1.293  0.5691 -0.3289 -0.2400
 6402TIP3    H143401   0.986   0.010   1.216 -0.0150 -0.6445  0.2386
 6402TIP3    H243402   0.991   0.003   1.368  0.2719  0.7412  0.3062
 6403TIP3   OH243403   7.363   2.015   2.218 -0.5846  0.4828 -0.0357
 6403TIP3    H143404   7.317   2.068   2.153 -0.6408  0.9210  0.3581
 6403TIP3    H243405   7.295   1.985   2.278 -0.7463 -1.0723 -0.9392
 6404TIP3   OH243406   3.265   7.401   1.060  0.2106  0.1875 -0.4414
 6404TIP3    H143407   3.351   7.427   1.093 -0.4940  1.3177  0.5829
 6404TIP3    H243408   3.275   7.308   1.039  1.6137  0.2477 -0.1544
 6405TIP3   OH243409   5.230   6.671   2.291  0.2575  0.0133  0.7482
 6405TIP3    H143410   5.320   6.679   2.320  0.8464 -0.7305 -0.7326
 6405TIP3    H243411   5.234   6.684   2.196 -1.2877  0.6184  0.7358
 6406TIP3   OH243412   4.059   1.769   1.045 -0.2008 -0.1326 -0.3151
 6406TIP3    H143413   4.098   1.845   1.002 -1.3527  0.8294  0.2979
 6406TIP3    H243414   4.104   1.764   1.129  0.6405 -0.8159 -0.7816
 6407TIP3   OH243415   4.728   5.045   0.667  0.0725 -0.0115 -0.6325
 6407TIP3    H143416   4.815   5.084   0.656  0.1370 -0.3636 -1.4720
 6407TIP3    H243417   4.668   5.120   0.664  0.3749  0.3149  0.6951
 6408TIP3   OH243418   6.188   3.427   1.781 -0.1449 -0.4349  0.1684
 6408TIP3    H143419   6.210   3.356   1.841 -0.1840  0.1377  0.8718
 6408TIP3    H243420   6.213   3.507   1.827 -0.5913  0.0426 -0.3908
 6409TIP3   OH243421   6.286   1.218   2.235  0.0554  0.2205 -0.3370
 6409TIP3    H143422   6.266   1.305   2.270  0.4588  1.1140 -2.1710
 6409TIP3    H243423   6.207   1.167   2.249 -0.2459  0.9231  0.6322
 6410TIP3   OH243424   5.024   4.498   1.822  0.0868  0.0246  0.2565
 6410TIP3    H143425   4.937   4.466   1.845 -0.6493  0.1155 -2.1350
 6410TIP3    H243426   5.049   4.446   1.746  1.0477  1.6606 -0.5928
 6411TIP3   OH243427   4.336   2.682   2.001  0.1461  0.3497  0.5387
 6411TIP3    H143428   4.376   2.623   1.937 -0.1030  0.5726  0.1756
 6411TIP3    H243429   4.295   2.624   2.065  0.8030  0.1187  0.7623
 6412TIP3   OH243430   1.483   0.872   2.589 -0.0048 -0.1132  0.4951
 6412TIP3    H143431   1.578   0.862   2.588  0.2012  0.5931  3.5153
 6412TIP3    H243432   1.449   0.783   2.597  0.4328 -0.2781  0.5348
 6413TIP3   OH243433   4.116   4.911   0.553 -0.1647  0.2459  0.4635
 6413TIP3    H143434   4.153   4.942   0.636  0.4501  1.1841 -0.1401
 6413TIP3    H243435   4.163   4.961   0.486 -1.7135  0.6287 -0.3905
 6414TIP3   OH243436   3.523   1.557   0.631 -0.3973  0.4267  0.1204
 6414TIP3    H143437   3.595   1.619   0.624  0.4423 -0.2381  2.0763
 6414TIP3    H243438   3.446   1.612   0.647  0.1907  1.0321  0.9872
 6415TIP3   OH243439   4.186   5.001   0.823 -0.1281  0.5284 -0.0665
 6415TIP3    H143440   4.157   5.091   0.834  1.2811  0.8147  1.5769
 6415TIP3    H243441   4.122   4.949   0.872 -2.0966  0.3274 -2.5873
 6416TIP3   OH243442   1.932   2.674   0.725 -0.5058 -0.1508 -0.2047
 6416TIP3    H143443   2.008   2.637   0.771  1.7740  2.6203 -1.4401
 6416TIP3    H243444   1.910   2.609   0.658  0.9548 -0.9121  0.0211
 6417TIP3   OH243445   3.113   2.941   1.594 -0.3421 -0.2081 -0.0196
 6417TIP3    H143446   3.115   2.974   1.504 -1.9284  1.3321  0.4410
 6417TIP3    H243447   3.107   3.020   1.648 -2.1240 -1.1613  1.2787
 6418TIP3   OH243448   2.220   4.385   0.633  0.4087 -0.4041 -0.1083
 6418TIP3    H143449   2.273   4.307   0.653 -2.0816 -1.5138  2.8152
 6418TIP3    H243450   2.146   4.351   0.584 -0.2696  0.2615  0.4384
 6419TIP3   OH243451   7.345   7.576   1.641 -0.2322  0.0457 -0.1604
 6419TIP3    H143452   7.329   7.542   1.553  1.7109  0.8778 -0.8945
 6419TIP3    H243453   7.398   7.654   1.627 -1.0092  0.9657  1.7044
 6420TIP3   OH243454   3.470   4.272   2.111  0.2082  0.6974  0.3494
 6420TIP3    H143455   3.532   4.203   2.086  0.1387  0.6852  0.2089
 6420TIP3    H243456   3.394   4.257   2.055 -0.9272 -0.7472  2.1729
 6421TIP3   OH243457   7.598   2.230   3.435 -0.1089 -0.3304  0.1592
 6421TIP3    H143458   7.567   2.178   3.510  1.1692  0.1031  1.0173
 6421TIP3    H243459   7.645   2.304   3.475 -1.5514  1.3217 -1.0178
 6422TIP3   OH243460   2.668   4.596   0.942 -0.2362  0.2344 -0.1252
 6422TIP3    H143461   2.655   4.613   0.849 -1.8174  0.3657  0.0873
 6422TIP3    H243462   2.580   4.600   0.980  0.1344 -1.5849  1.0894
 6423TIP3   OH243463   0.761   0.910   2.396  0.2371  0.1250  0.2024
 6423TIP3    H143464   0.776   0.852   2.321  1.1154  0.4251  0.1325
 6423TIP3    H243465   0.830   0.886   2.458 -0.3303  0.0540  0.8145
 6424TIP3   OH243466   2.218   1.402   0.826 -0.1691  0.0216 -0.3255
 6424TIP3    H143467   2.167   1.341   0.880  0.2899 -0.8470 -0.8503
 6424TIP3    H243468   2.206   1.487   0.868 -1.4332 -0.2956 -0.0040
 6425TIP3   OH243469   7.617   4.600   3.099 -0.6014  0.0173  0.0541
 6425TIP3    H143470   7.584   4.644   3.177 -1.9124 -1.5167  0.4311
 6425TIP3    H243471   7.639   4.671   3.038  0.5507  1.2465  1.8287
 6426TIP3   OH243472   6.965   5.713   1.533  0.7789 -0.3240 -1.0163
 6426TIP3    H143473   6.942   5.668   1.452 -0.4563 -0.3420 -0.6830
 6426TIP3    H243474   6.881   5.724   1.578  1.5507 -1.2287  0.7377
 6427TIP3   OH243475   4.092   3.296   2.688 -0.0002 -0.2683 -0.4632
 6427TIP3    H143476   4.084   3.362   2.620 -0.5230  0.1862  0.0287
 6427TIP3    H243477   4.005   3.290   2.726  1.1475  2.8900  3.2988
 6428TIP3   OH243478   1.340   6.796   1.921 -0.4185 -0.8607 -0.5239
 6428TIP3    H143479   1.255   6.751   1.919  0.2593 -2.1768 -1.0152
 6428TIP3    H243480   1.400   6.732   1.960  0.0747  0.5729  1.1806
 6429TIP3   OH243481   5.100   4.993   1.073  0.0170  0.2664 -0.4492
 6429TIP3    H143482   5.071   4.988   0.982  0.3569  1.3434 -0.6297
 6429TIP3    H243483   5.021   4.974   1.124 -0.2848  0.1281 -0.9594
 6430TIP3   OH243484   4.793   1.916   1.735  0.1225  0.1040 -0.0083
 6430TIP3    H143485   4.744   1.930   1.655 -0.4686 -0.1335  0.3072
 6430TIP3    H243486   4.782   1.997   1.784  0.6928  0.3453 -0.2727
 6431TIP3   OH243487   1.344   2.422   0.805  0.1178  0.0229 -0.1436
 6431TIP3    H143488   1.302   2.355   0.751 -0.0783  1.0091 -1.2552
 6431TIP3    H243489   1.436   2.420   0.779  0.7257 -1.6953  1.8341
 6432TIP3   OH243490   4.592   3.883   1.662 -0.2239  0.1330  0.2942
 6432TIP3    H143491   4.552   3.896   1.576 -0.3185  0.6244  0.4108
 6432TIP3    H243492   4.524   3.840   1.714 -0.2178 -0.0281  0.1704
 6433TIP3   OH243493   1.561   6.763   1.026 -0.1490  0.0453  0.2774
 6433TIP3    H143494   1.554   6.690   1.087  2.6541 -2.0528 -1.6515
 6433TIP3    H243495   1.637   6.813   1.056  2.1863 -1.8285 -2.0444
 6434TIP3   OH243496   0.776   4.474   2.581  0.5856 -0.4863 -0.4753
 6434TIP3    H143497   0.848   4.534   2.566  1.2557 -1.5013 -1.4998
 6434TIP3    H243498   0.739   4.459   2.494 -0.9623  0.1074  0.0445
 6435TIP3   OH243499   0.055   0.579   2.963  0.0601 -0.5667  0.0240
 6435TIP3    H143500   0.010   0.498   2.941 -0.0920 -0.6921  0.7551
 6435TIP3    H243501   0.014   0.608   3.045 -0.8798  1.0011 -0.9550
 6436TIP3   OH243502   7.170   2.078   1.256  0.4981  0.0294 -0.0253
 6436TIP3    H143503   7.155   2.172   1.245 -0.3574 -0.2175 -1.1333
 6436TIP3    H243504   7.141   2.060   1.346 -0.9977  0.5326 -0.3804
 6437TIP3   OH243505   0.220   2.912   2.016  0.9002 -0.3609  0.2383
 6437TIP3    H143506   0.149   2.852   1.997 -0.8585  1.4698  0.6266
 6437TIP3    H243507   0.245   2.893   2.106 -0.2701  0.0746  0.6648
 6438TIP3   OH243508   1.297   0.081   1.439  0.5850  0.0835  0.3559
 6438TIP3    H143509   1.208   0.087   1.405  0.5136  2.2630  0.7753
 6438TIP3    H243510   1.313  -0.013   1.449 -0.7309 -0.4834 -2.0902
 6439TIP3   OH243511   6.814   0.159   1.020 -0.2044  0.7280 -0.1415
 6439TIP3    H143512   6.815   0.164   1.116 -1.7655  0.4834 -0.0871
 6439TIP3    H243513   6.795   0.248   0.991 -1.1559  0.5335 -0.1529
 6440TIP3   OH243514   1.034   5.240   1.423 -0.2450 -0.0629 -0.1437
 6440TIP3    H143515   1.044   5.180   1.497  1.7408 -1.0049 -1.0960
 6440TIP3    H243516   1.046   5.327   1.461 -0.9314 -0.4068  0.8964
 6441TIP3   OH243517   7.615   2.094   0.914  0.1646  0.0786 -0.0712
 6441TIP3    H143518   7.696   2.058   0.952 -0.5761 -2.5433 -0.7862
 6441TIP3    H243519   7.641   2.124   0.827 -0.0580 -3.5332 -1.5493
 6442TIP3   OH243520   2.460   4.578   2.319 -0.1587  0.3638  0.1326
 6442TIP3    H143521   2.378   4.534   2.296  0.5742 -0.4567 -1.0405
 6442TIP3    H243522   2.439   4.629   2.397 -1.6217 -0.3070  0.2107
 6443TIP3   OH243523   5.540   0.978   2.092 -0.3309 -0.6861  0.3033
 6443TIP3    H143524   5.558   1.023   2.174  0.2583 -0.9434  0.3224
 6443TIP3    H243525   5.546   1.047   2.025 -1.3963 -0.3603  0.5238
 6444TIP3   OH243526   4.848   6.343   1.724 -0.3575  0.0087 -0.0793
 6444TIP3    H143527   4.879   6.334   1.634  2.7565  1.4057  0.7384
 6444TIP3    H243528   4.923   6.318   1.778 -0.9816  2.4536  2.1041
 6445TIP3   OH243529   1.770   7.121   1.512  0.3447  0.2725  0.3836
 6445TIP3    H143530   1.847   7.085   1.469  1.2736 -0.5704  2.6028
 6445TIP3    H243531   1.702   7.055   1.500  0.0536  0.8112 -1.1782
 6446TIP3   OH243532   3.911   2.829   0.666  0.0970 -0.1120  0.3389
 6446TIP3    H143533   3.995   2.861   0.633 -0.2731 -0.1743 -0.7167
 6446TIP3    H243534   3.848   2.897   0.642 -0.3131 -0.5351  0.2060
 6447TIP3   OH243535   6.004   4.800   1.631  0.7968  0.8150 -0.2528
 6447TIP3    H143536   5.940   4.851   1.580  0.0895 -0.0148 -0.2046
 6447TIP3    H243537   5.970   4.711   1.631  2.5763  0.0810 -1.2735
 6448TIP3   OH243538   7.458   3.897   2.319  0.1524 -0.0768 -0.5724
 6448TIP3    H143539   7.443   3.866   2.230 -0.3835  0.0645 -0.5358
 6448TIP3    H243540   7.372   3.927   2.349 -0.0143 -1.5238  0.5293
 6449TIP3   OH243541   5.890   0.677   0.874 -0.4694  0.0977  0.5218
 6449TIP3    H143542   5.837   0.598   0.860 -0.8583  0.0615  1.9586
 6449TIP3    H243543   5.920   0.702   0.787 -0.1765 -1.7389  0.0486
 6450TIP3   OH243544   1.276   2.132   1.731  0.4947  0.1151 -0.2081
 6450TIP3    H143545   1.191   2.090   1.746  0.5207  0.3474  0.6675
 6450TIP3    H243546   1.336   2.060   1.714  0.6671 -0.3154  1.8794
 6451TIP3   OH243547   7.148   1.628   2.545 -0.2043 -0.3104  0.2009
 6451TIP3    H143548   7.178   1.560   2.485 -0.8620  0.8736 -1.5456
 6451TIP3    H243549   7.136   1.583   2.629  3.2548 -1.4883  0.2145
 6452TIP3   OH243550   2.082   5.027   2.226  0.4606 -0.5106 -0.1299
 6452TIP3    H143551   2.099   5.121   2.238  0.8832 -0.6648  0.5683
 6452TIP3    H243552   2.169   4.989   2.209  0.4657 -0.9241  0.7397
 6453TIP3   OH243553   4.340   0.332   2.468 -0.4518  0.2174  0.1012
 6453TIP3    H143554   4.302   0.253   2.430 -1.8324  0.9376 -0.0814
 6453TIP3    H243555   4.352   0.391   2.394 -0.8215  0.7116  0.4258
 6454TIP3   OH243556   3.482   6.261   3.045  0.1945 -0.5691  0.5638
 6454TIP3    H143557   3.492   6.267   3.140  2.0079  2.0248  0.3414
 6454TIP3    H243558   3.522   6.342   3.012 -1.8581 -0.5567 -2.3313
 6455TIP3   OH243559   4.196   0.656   0.857 -0.1901 -0.2942  0.5400
 6455TIP3    H143560   4.229   0.601   0.927  0.1418 -2.1293 -0.9868
 6455TIP3    H243561   4.104   0.631   0.847 -0.9157  1.6230  1.8015
 6456TIP3   OH243562   7.381   6.888   3.040 -0.0810  0.2239 -0.5645
 6456TIP3    H143563   7.472   6.911   3.059  0.7108 -1.6452 -1.7619
 6456TIP3    H243564   7.381   6.862   2.948 -1.4393 -1.4944 -0.1427
 6457TIP3   OH243565   6.501   7.296   2.662  0.2022  0.2302 -0.3448
 6457TIP3    H143566   6.436   7.228   2.680 -0.0293  0.0346 -1.7856
 6457TIP3    H243567   6.578   7.269   2.713 -0.0857 -0.7833 -0.4129
 6458TIP3   OH243568   2.201   5.990   1.376  0.2970 -0.1500  0.3520
 6458TIP3    H143569   2.214   6.084   1.382  1.4155 -0.3412  1.8341
 6458TIP3    H243570   2.148   5.968   1.453  1.2013 -0.8739  0.7892
 6459TIP3   OH243571   2.543   5.006   2.563 -0.8007  0.3031  0.2376
 6459TIP3    H143572   2.577   4.975   2.479  1.0541 -1.1894  1.4611
 6459TIP3    H243573   2.562   5.099   2.564  2.1651 -0.2208  0.2733
 6460TIP3   OH243574   1.017   2.724   1.292  0.0785 -1.2077  0.5016
 6460TIP3    H143575   1.025   2.628   1.290 -2.6494 -1.4949  0.4122
 6460TIP3    H243576   0.930   2.740   1.328 -0.5479  1.1699 -1.8023
 6461TIP3   OH243577   6.078   1.080   1.644 -0.2251 -0.1176 -0.3006
 6461TIP3    H143578   6.025   1.030   1.706 -0.4917  0.4997 -0.0248
 6461TIP3    H243579   6.015   1.134   1.596 -0.0426 -0.7021 -1.2252
 6462TIP3   OH243580   0.279   4.031   0.695  0.1875 -0.3943 -0.0782
 6462TIP3    H143581   0.219   4.095   0.733 -1.4047 -1.5765 -0.5042
 6462TIP3    H243582   0.359   4.080   0.679 -0.2167  0.9486  1.6572
 6463TIP3   OH243583   4.558   7.040   1.313 -0.1718  0.2655 -0.1949
 6463TIP3    H143584   4.473   7.083   1.322 -0.9592 -1.3326  0.2704
 6463TIP3    H243585   4.582   7.054   1.222 -1.5734 -0.3716 -0.6919
 6464TIP3   OH243586   3.816   7.336   1.936  0.2219 -0.1199 -0.1512
 6464TIP3    H143587   3.811   7.242   1.922  0.9597 -0.3394  0.9076
 6464TIP3    H243588   3.863   7.370   1.859  1.2336 -0.8218  0.1323
 6465TIP3   OH243589   5.347   4.892   1.727  0.0598 -0.5886 -0.3810
 6465TIP3    H143590   5.339   4.806   1.767  1.9870 -0.4139  0.5047
 6465TIP3    H243591   5.441   4.908   1.723 -0.2300  2.1343  0.9717
 6466TIP3   OH243592   7.633   4.528   3.603 -0.0252  0.3800 -0.1353
 6466TIP3    H143593   7.690   4.598   3.570 -1.9369  0.8405 -2.7413
 6466TIP3    H243594   7.559   4.574   3.643  0.5333 -0.2227  1.7259
 6467TIP3   OH243595   4.864   3.483   1.090 -0.4557 -0.0569  0.1467
 6467TIP3    H143596   4.858   3.388   1.074 -0.5289  0.0422 -0.4231
 6467TIP3    H243597   4.813   3.522   1.019  0.9499  0.4890 -0.5960
 6468TIP3   OH243598   0.497   0.577   3.275  0.3766 -0.1203  0.4418
 6468TIP3    H143599   0.556   0.627   3.218  0.7470  1.0860  1.8179
 6468TIP3    H243600   0.491   0.491   3.235  0.6931  0.6593 -1.3565
 6469TIP3   OH243601   4.843   3.831   1.745 -0.1601  0.0695 -0.0457
 6469TIP3    H143602   4.759   3.863   1.711 -0.6653 -2.0418 -1.0082
 6469TIP3    H243603   4.831   3.829   1.840 -0.6409  1.2334 -0.0695
 6470TIP3   OH243604   4.549   6.430   3.064 -0.0679 -0.1242 -0.2159
 6470TIP3    H143605   4.511   6.447   2.978  0.9149 -1.8194 -1.0341
 6470TIP3    H243606   4.604   6.506   3.081 -0.9645  0.6463 -0.6708
 6471TIP3   OH243607   7.187   2.985   2.442 -0.1208  0.4050  0.2911
 6471TIP3    H143608   7.208   2.924   2.372 -0.8511  0.1024  0.3371
 6471TIP3    H243609   7.257   3.051   2.438 -0.3814  0.6253 -0.9908
 6472TIP3   OH243610   7.663   4.313   3.374  0.5429  0.4372 -0.2902
 6472TIP3    H143611   7.632   4.224   3.388 -0.5015  0.8925  0.4933
 6472TIP3    H243612   7.671   4.350   3.462  0.0785  1.3836 -0.6237
 6473TIP3   OH243613   6.217   7.474   1.045  0.0366 -0.0863  0.0722
 6473TIP3    H143614   6.127   7.448   1.063  0.0897 -0.1027  0.3162
 6473TIP3    H243615   6.266   7.391   1.046  0.1720 -0.0056  0.6514
 6474TIP3   OH243616   5.031   5.163   3.049  0.8081 -0.1114 -0.2397
 6474TIP3    H143617   4.936   5.161   3.037  0.8132  0.0434 -0.3125
 6474TIP3    H243618   5.045   5.126   3.136  0.6230  0.6013  0.0996
 6475TIP3   OH243619   0.374   6.251   3.509  0.3465  0.6588 -0.4561
 6475TIP3    H143620   0.345   6.296   3.429  1.0155 -0.1214 -1.1578
 6475TIP3    H243621   0.396   6.322   3.569 -0.6126  1.2601 -0.7895
 6476TIP3   OH243622   6.084   6.557   3.115 -0.0991  0.7407  0.2369
 6476TIP3    H143623   6.172   6.533   3.085  0.1626 -0.8508  2.1013
 6476TIP3    H243624   6.027   6.488   3.081 -0.5411  1.3829 -0.3579
 6477TIP3   OH243625   2.175   2.838   0.330 -0.0867  0.0240 -0.2169
 6477TIP3    H143626   2.242   2.782   0.368 -0.3467  1.1726  2.1050
 6477TIP3    H243627   2.179   2.820   0.236  1.3528 -2.1676  0.2007
 6478TIP3   OH243628   5.809   5.657   1.154 -0.3930  0.2816 -0.2268
 6478TIP3    H143629   5.864   5.698   1.087 -0.3579 -0.7698 -0.8712
 6478TIP3    H243630   5.795   5.725   1.219  1.2588  0.7282 -0.3046
 6479TIP3   OH243631   3.702   1.605   1.129 -0.0580  0.4148 -0.2190
 6479TIP3    H143632   3.640   1.588   1.200  0.7251  0.4065  0.4743
 6479TIP3    H243633   3.671   1.550   1.057  1.1602 -2.3888  1.2516
 6480TIP3   OH243634   5.913   6.349   3.040  0.0074 -0.3616  0.3485
 6480TIP3    H143635   5.944   6.263   3.011 -0.3606 -0.1724 -0.6328
 6480TIP3    H243636   5.828   6.332   3.081 -0.0716 -0.4557  0.1419
 6481TIP3   OH243637   0.059   0.476   2.006  0.1800  0.1835 -0.3459
 6481TIP3    H143638   0.038   0.382   2.002  0.6020  0.1057 -0.8611
 6481TIP3    H243639   0.126   0.483   2.073 -0.0664  0.1633 -0.0930
 6482TIP3   OH243640   2.139   5.789   2.570 -0.5906  0.0394 -0.3988
 6482TIP3    H143641   2.115   5.696   2.578  0.6784 -0.2426  0.4580
 6482TIP3    H243642   2.055   5.836   2.574 -1.1246 -0.9519  1.3481
 6483TIP3   OH243643   6.381   6.265   1.788 -0.4915  0.8053  0.0091
 6483TIP3    H143644   6.425   6.335   1.837 -1.7562  0.9316  1.0361
 6483TIP3    H243645   6.295   6.301   1.768 -0.8152 -0.1152 -0.2921
 6484TIP3   OH243646   7.492   2.935   0.561 -0.1096 -0.5586  0.2631
 6484TIP3    H143647   7.402   2.944   0.530  0.0674 -1.1138 -0.4393
 6484TIP3    H243648   7.503   3.006   0.624 -1.3165 -1.0234  1.0234
 6485TIP3   OH243649   1.517   0.512   1.884  0.3066  0.5010  0.2462
 6485TIP3    H143650   1.457   0.560   1.827  0.4826 -0.3040 -0.6483
 6485TIP3    H243651   1.602   0.553   1.869  0.2755  0.5580  0.2256
 6486TIP3   OH243652   3.349   0.676   0.547 -0.2993 -0.3663 -0.1185
 6486TIP3    H143653   3.339   0.626   0.628 -0.5135 -0.3302 -0.1207
 6486TIP3    H243654   3.259   0.701   0.524 -0.1369  0.6365  0.2747
 6487TIP3   OH243655   5.377   7.122   1.423  0.5899  0.0193 -0.2096
 6487TIP3    H143656   5.473   7.128   1.417  0.6903 -1.9468 -2.2051
 6487TIP3    H243657   5.348   7.108   1.332 -1.4711 -0.5521  0.4751
 6488TIP3   OH243658   3.773   0.220   1.409  0.2654 -0.1466  0.0063
 6488TIP3    H143659   3.809   0.162   1.342 -0.3108 -0.1629 -0.2944
 6488TIP3    H243660   3.844   0.282   1.428  0.8515 -0.8686  0.2523
 6489TIP3   OH243661   6.686   1.890   2.153 -0.2498  0.5953 -0.2622
 6489TIP3    H143662   6.756   1.955   2.150 -0.5847  1.1459  1.8618
 6489TIP3    H243663   6.606   1.941   2.167 -0.5617 -0.2199  1.1200
 6490TIP3   OH243664   5.950   4.443   2.499 -0.0205 -0.3190  0.3519
 6490TIP3    H143665   5.906   4.386   2.436  0.8337  0.4021 -0.9261
 6490TIP3    H243666   6.004   4.384   2.551  1.2269 -0.6809 -1.2669
 6491TIP3   OH243667   0.694   0.015   0.613  0.1046  0.8066 -0.4145
 6491TIP3    H143668   0.773   0.039   0.662  0.3491 -1.2438  0.2658
 6491TIP3    H243669   0.727  -0.021   0.531 -0.2543  2.4491 -1.3284
 6492TIP3   OH243670   3.010   2.050   2.486 -0.2788 -0.4787  0.1045
 6492TIP3    H143671   3.101   2.063   2.512 -0.2850 -1.0567  0.4208
 6492TIP3    H243672   2.962   2.115   2.537 -0.1657 -0.9051  0.7647
 6493TIP3   OH243673   5.008   4.305   0.837 -0.1859 -0.1124  0.0645
 6493TIP3    H143674   4.929   4.359   0.834 -0.2439 -0.1899  0.1724
 6493TIP3    H243675   5.078   4.366   0.860  0.0203  0.2079 -1.3790
 6494TIP3   OH243676   0.817   2.410   2.631 -0.6122  0.3211  0.2769
 6494TIP3    H143677   0.750   2.461   2.676  0.5460  1.3319  0.8849
 6494TIP3    H243678   0.768   2.358   2.567 -1.9567  1.1413  0.6058
 6495TIP3   OH243679   1.719   4.098   2.858 -0.1333  0.1655  0.0707
 6495TIP3    H143680   1.807   4.134   2.868  0.3277 -0.9212  0.1030
 6495TIP3    H243681   1.718   4.061   2.769 -1.0737  1.4984 -0.5007
 6496TIP3   OH243682   3.383   5.494   1.913  0.1554  0.4317 -0.0735
 6496TIP3    H143683   3.288   5.504   1.924 -0.0570 -0.9414 -0.5094
 6496TIP3    H243684   3.398   5.511   1.820  0.0927 -0.9355 -0.3530
 6497TIP3   OH243685   2.123   6.247   1.098  0.3072 -0.1173  0.3006
 6497TIP3    H143686   2.078   6.331   1.087  0.7765  0.3278  1.5938
 6497TIP3    H243687   2.215   6.271   1.106  0.3566 -0.6510  1.6120
 6498TIP3   OH243688   7.088   2.574   1.119  0.1800  0.5162  0.1529
 6498TIP3    H143689   7.031   2.505   1.152  0.5734 -0.7893 -1.7195
 6498TIP3    H243690   7.031   2.650   1.109 -0.0059  0.9503  3.4195
 6499TIP3   OH243691   1.847   0.444   2.674  0.2428 -0.2868 -0.3557
 6499TIP3    H143692   1.936   0.462   2.645  0.4483 -1.3482 -0.4341
 6499TIP3    H243693   1.858   0.390   2.753 -0.3159 -0.6634 -0.5258
 6500TIP3   OH243694   5.401   4.980   2.088  0.3529  0.2011  0.6169
 6500TIP3    H143695   5.364   5.028   2.014 -0.3184  0.4804  1.1250
 6500TIP3    H243696   5.490   5.015   2.096 -0.4483  2.1914  1.6349
 6501TIP3   OH243697   0.936   3.485   0.793 -0.5828  0.5608  0.0059
 6501TIP3    H143698   0.923   3.392   0.778 -2.6986  0.8357 -0.2153
 6501TIP3    H243699   0.853   3.515   0.830  0.5084  2.1196  1.3442
 6502TIP3   OH243700   2.304   6.253   1.411  0.5476 -0.0682  0.0623
 6502TIP3    H143701   2.245   6.328   1.400  1.0173  0.3416  0.3117
 6502TIP3    H243702   2.313   6.243   1.506  1.0861  0.0385  0.0270
 6503TIP3   OH243703   1.495   5.423   2.474  0.5343  0.0890  0.1192
 6503TIP3    H143704   1.410   5.381   2.466  1.0419 -0.8705 -0.4680
 6503TIP3    H243705   1.479   5.515   2.455 -0.3106 -0.1460 -0.3378
 6504TIP3   OH243706   5.881   5.261   2.186  0.1156 -0.3645 -0.2914
 6504TIP3    H143707   5.906   5.285   2.096  1.9929  0.7692  0.4770
 6504TIP3    H243708   5.885   5.344   2.234 -1.3983 -0.8606  0.7679
 6505TIP3   OH243709   0.974   3.654   0.606 -0.2173  0.4820 -0.1803
 6505TIP3    H143710   0.972   3.592   0.679  0.8592  2.0584  1.2693
 6505TIP3    H243711   0.940   3.605   0.531  1.9770 -2.3042  0.5217
 6506TIP3   OH243712   6.538   0.483   0.774 -0.3049 -0.0715  0.3350
 6506TIP3    H143713   6.464   0.432   0.806 -0.4586  0.8839  1.5775
 6506TIP3    H243714   6.585   0.423   0.716 -0.0325 -1.9540  2.3276
 6507TIP3   OH243715   1.934   3.887   3.245 -0.2427 -0.6361  0.2027
 6507TIP3    H143716   1.978   3.952   3.190 -1.1253 -0.5434 -0.4073
 6507TIP3    H243717   1.852   3.929   3.273  0.2457 -0.6172  1.7384
 6508TIP3   OH243718   6.068   4.625   1.312 -0.1966 -0.5235 -0.5557
 6508TIP3    H143719   6.161   4.639   1.334 -0.1747 -0.7457 -0.4936
 6508TIP3    H243720   6.033   4.581   1.390 -0.3869 -0.3149 -0.5250
 6509TIP3   OH243721   3.049   0.187   2.264 -0.7985 -0.0362 -0.1849
 6509TIP3    H143722   3.135   0.145   2.266 -0.5114  0.5069 -0.7359
 6509TIP3    H243723   3.003   0.153   2.341 -0.1820 -0.5242 -0.0307
 6510TIP3   OH243724   3.509   1.666   2.142 -0.0982 -0.0160 -0.5720
 6510TIP3    H143725   3.575   1.599   2.161 -0.8838 -1.5136 -2.7191
 6510TIP3    H243726   3.463   1.677   2.225  2.2687  0.5118  0.7796
 6511TIP3   OH243727   5.314   0.393   1.912  0.0989  0.0082 -0.3150
 6511TIP3    H143728   5.222   0.408   1.931  0.0976  0.1357 -0.4192
 6511TIP3    H243729   5.349   0.480   1.890  0.3330  0.0241  0.1003
 6512TIP3   OH243730   2.811   3.051   3.014  0.3562 -0.3213  0.3795
 6512TIP3    H143731   2.741   3.085   3.070  0.0525  0.1091 -0.2479
 6512TIP3    H243732   2.772   2.975   2.971 -0.1831  0.6526 -0.9367
 6513TIP3   OH243733   7.559   6.382   0.559  0.5108  0.0331  0.2226
 6513TIP3    H143734   7.499   6.415   0.492  0.8787 -1.1090 -0.6971
 6513TIP3    H243735   7.616   6.457   0.579  0.4495  0.3647 -0.7966
 6514TIP3   OH243736   6.070   7.275   1.332 -0.1761  0.3483  0.1989
 6514TIP3    H143737   6.012   7.351   1.319  1.8048  1.7579 -1.0150
 6514TIP3    H243738   6.137   7.307   1.391 -0.4459 -1.1834  1.3877
 6515TIP3   OH243739   3.528   3.119   2.296  0.2871  0.2407  0.5526
 6515TIP3    H143740   3.603   3.105   2.354  1.3058  1.9132 -0.2890
 6515TIP3    H243741   3.511   3.213   2.300 -0.7293  0.1379 -0.5325
 6516TIP3   OH243742   1.524   2.057   2.190  0.4144  0.3611 -0.7418
 6516TIP3    H143743   1.481   1.971   2.194 -2.7994  1.8250 -1.0265
 6516TIP3    H243744   1.493   2.096   2.108  0.6977  2.3089  0.0241
 6517TIP3   OH243745   6.408   7.078   1.987  0.4878  0.3963  0.4247
 6517TIP3    H143746   6.350   7.086   1.911  1.4154 -0.1529 -0.3594
 6517TIP3    H243747   6.349   7.077   2.062 -0.5126 -0.0423 -0.3423
 6518TIP3   OH243748   3.121   0.987   1.001  0.3042 -0.1182  0.1085
 6518TIP3    H143749   3.134   1.050   1.073 -1.0353  0.3154  0.0089
 6518TIP3    H243750   3.027   0.966   1.005  0.4954 -1.1689 -0.6393
 6519TIP3   OH243751   1.037   5.854   1.594  0.0494 -0.1972 -0.1662
 6519TIP3    H143752   0.956   5.851   1.644  0.5358  0.8653  0.7249
 6519TIP3    H243753   1.026   5.788   1.526 -0.5795 -1.7955  1.4142
 6520TIP3   OH243754   6.187   6.999   1.800 -0.0979  0.0333  0.0301
 6520TIP3    H143755   6.151   6.911   1.810  0.8525 -0.4020 -0.2488
 6520TIP3    H243756   6.113   7.058   1.817 -0.8767 -0.8247 -0.3222
 6521TIP3   OH243757   3.806   6.461   1.124  0.3115 -0.4281  0.5185
 6521TIP3    H143758   3.895   6.484   1.100  0.1063  0.1883  0.3400
 6521TIP3    H243759   3.816   6.398   1.195  0.8807  0.7938  1.5637
 6522TIP3   OH243760   2.192   7.357   1.535 -0.0156 -0.6479 -0.3098
 6522TIP3    H143761   2.187   7.384   1.626  0.4811 -1.1670 -0.1220
 6522TIP3    H243762   2.143   7.424   1.487  2.1168  1.2906 -0.0025
 6523TIP3   OH243763   2.821   1.148   1.940 -0.8442  0.2237 -0.0495
 6523TIP3    H143764   2.845   1.064   1.900 -1.3107  0.6566 -1.2848
 6523TIP3    H243765   2.733   1.165   1.908 -1.3950  0.4173  1.4991
 6524TIP3   OH243766   0.568   3.725   1.555  0.4133  0.4884 -0.2164
 6524TIP3    H143767   0.643   3.769   1.595  0.5760 -1.7440  2.1562
 6524TIP3    H243768   0.512   3.701   1.628 -1.8441  0.6105 -1.8111
 6525TIP3   OH243769   6.410   4.473   2.788  0.0096  0.0190  0.1169
 6525TIP3    H143770   6.479   4.468   2.722 -0.6567 -0.9582 -0.5134
 6525TIP3    H243771   6.402   4.567   2.807  0.9560  0.2085 -0.3769
 6526TIP3   OH243772   6.176   4.424   2.075  0.0377 -0.3863 -0.8452
 6526TIP3    H143773   6.183   4.473   1.994  1.2177 -0.3246 -0.7201
 6526TIP3    H243774   6.082   4.417   2.091 -0.1683  1.3811 -1.1386
 6527TIP3   OH243775   4.795   1.303   1.131 -0.6504  0.3348 -0.2868
 6527TIP3    H143776   4.809   1.350   1.213 -1.1578 -1.1219  0.6861
 6527TIP3    H243777   4.818   1.212   1.152  1.5557  0.3048 -2.4309
 6528TIP3   OH243778   4.308   0.595   3.311 -0.1367  0.2063 -0.4490
 6528TIP3    H143779   4.253   0.671   3.296 -0.9895 -0.7602 -2.5243
 6528TIP3    H243780   4.311   0.550   3.227  0.5943 -1.8861  0.6246
 6529TIP3   OH243781   4.803   5.619   0.543  0.3276 -0.2781 -0.1949
 6529TIP3    H143782   4.868   5.551   0.526 -0.4548 -0.8476 -1.0155
 6529TIP3    H243783   4.831   5.693   0.489  0.2967 -0.5237 -0.5513
 6530TIP3   OH243784   3.207   7.411   2.623  0.1769  0.1704 -0.3242
 6530TIP3    H143785   3.113   7.411   2.644  0.0306 -1.8881 -0.6984
 6530TIP3    H243786   3.250   7.429   2.707 -0.5238 -2.2410  0.6502
 6531TIP3   OH243787   0.910   6.202   2.906 -0.1425  0.1635  0.5842
 6531TIP3    H143788   0.880   6.253   2.982  1.4612  1.8045  0.1919
 6531TIP3    H243789   1.001   6.181   2.926 -0.0335 -0.3587 -0.3997
 6532TIP3   OH243790   0.167   3.247   1.632 -0.3589  0.0620  0.2542
 6532TIP3    H143791   0.233   3.216   1.694  0.3832  1.6076  0.2842
 6532TIP3    H243792   0.109   3.302   1.684 -1.4055 -0.9009  0.1286
 6533TIP3   OH243793   2.844   4.193   3.797  0.1137 -0.5354 -0.5436
 6533TIP3    H143794   2.940   4.190   3.804  0.1053 -1.1029 -0.6014
 6533TIP3    H243795   2.827   4.263   3.735  0.4752 -0.1438 -0.2066
 6534TIP3   OH243796   1.820   4.587   2.021 -0.1154 -0.1418 -0.3394
 6534TIP3    H143797   1.754   4.634   2.072  0.8534  1.7415 -0.7376
 6534TIP3    H243798   1.790   4.594   1.930 -0.0025 -0.3665 -0.3954
 6535TIP3   OH243799   0.657   5.301   0.704 -0.0984 -0.5953  0.2185
 6535TIP3    H143800   0.577   5.304   0.757 -0.6650  1.9756 -0.6636
 6535TIP3    H243801   0.632   5.341   0.621  1.0157 -3.6564 -1.7468
 6536TIP3   OH243802   1.842   3.435   3.413 -0.4261  0.3608  0.1331
 6536TIP3    H143803   1.925   3.466   3.377 -0.5725  1.5371  0.7696
 6536TIP3    H243804   1.854   3.340   3.423  0.3188  0.3009 -1.1194
 6537TIP3   OH243805   5.705   2.832   2.959 -0.2227 -0.3392 -0.1666
 6537TIP3    H143806   5.763   2.779   2.905 -0.0779  0.9028 -1.2755
 6537TIP3    H243807   5.658   2.769   3.014 -1.2468 -1.7802 -2.5443
 6538TIP3   OH243808   6.681   7.011   0.725  0.2048  0.3381  0.7493
 6538TIP3    H143809   6.725   6.940   0.771 -0.6409  0.7464  2.2653
 6538TIP3    H243810   6.678   7.083   0.789  0.9415  1.7177 -0.6948
 6539TIP3   OH243811   6.658   5.244   3.090  0.2056 -0.0385 -0.8757
 6539TIP3    H143812   6.744   5.285   3.094 -0.0536  0.4741 -0.4294
 6539TIP3    H243813   6.630   5.256   2.999 -0.7807  2.7428 -0.3133
 6540TIP3   OH243814   6.044   1.425   0.887 -0.2050  0.0566  0.0058
 6540TIP3    H143815   5.988   1.367   0.939 -0.0097 -0.6101 -0.5200
 6540TIP3    H243816   6.126   1.430   0.936 -0.3601  0.2124  0.2529
 6541TIP3   OH243817   5.918   0.084   1.388  0.0493  0.1518  0.1203
 6541TIP3    H143818   5.849   0.142   1.417 -0.0735 -0.3979  0.9497
 6541TIP3    H243819   5.995   0.109   1.440 -0.1912 -0.8809  1.0019
 6542TIP3   OH243820   3.079   4.714   2.024 -0.3389  0.4411 -0.1390
 6542TIP3    H143821   3.145   4.645   2.022  1.2863  1.9156 -0.3543
 6542TIP3    H243822   3.085   4.750   2.113 -1.8952 -0.3275  0.3044
 6543TIP3   OH243823   6.224   1.575   2.616 -0.1337  0.5894 -0.1700
 6543TIP3    H143824   6.314   1.546   2.633 -0.0444 -0.1227 -1.7367
 6543TIP3    H243825   6.231   1.670   2.603  0.4240  0.5100 -0.4683
 6544TIP3   OH243826   7.565   5.790   1.024  0.6061 -0.1421 -0.6545
 6544TIP3    H143827   7.657   5.783   1.047  0.4833 -1.1781 -0.4393
 6544TIP3    H243828   7.534   5.868   1.070  1.5007  0.5319 -1.1774
 6545TIP3   OH243829   2.860   1.723   0.411 -0.2837 -0.4610  0.2218
 6545TIP3    H143830   2.923   1.743   0.481  0.5479 -1.7604 -0.1302
 6545TIP3    H243831   2.808   1.803   0.403  0.7746  0.3557  1.0945
 6546TIP3   OH243832   0.312   7.221   1.505 -0.7868 -0.2898 -0.1415
 6546TIP3    H143833   0.344   7.226   1.416 -2.0510 -0.9362 -0.6571
 6546TIP3    H243834   0.220   7.247   1.499 -0.7360  0.2277  1.0615
 6547TIP3   OH243835   6.594   5.200   3.388  0.5281  0.1431  0.3275
 6547TIP3    H143836   6.630   5.245   3.311  0.5731  0.2006  0.3825
 6547TIP3    H243837   6.567   5.270   3.447 -1.4175  0.1699 -0.4913
 6548TIP3   OH243838   1.189   6.855   2.497  0.5555 -0.4755  0.6040
 6548TIP3    H143839   1.166   6.934   2.546  2.4390 -0.8526  2.2738
 6548TIP3    H243840   1.149   6.783   2.546 -2.2432 -0.5980 -1.6154
 6549TIP3   OH243841   6.107   2.847   0.806 -0.3710 -0.6737  0.1548
 6549TIP3    H143842   6.015   2.844   0.830 -1.1575  0.3226 -2.4220
 6549TIP3    H243843   6.118   2.931   0.761  2.4371  0.4403  2.5400
 6550TIP3   OH243844   0.723   5.490   3.027 -0.5338 -0.1058  0.0884
 6550TIP3    H143845   0.767   5.447   3.101  0.5410 -0.1446 -0.5494
 6550TIP3    H243846   0.769   5.457   2.950  0.1521  1.9669 -0.4554
 6551TIP3   OH243847   0.883   3.969   2.143  0.9871  0.0690  0.1968
 6551TIP3    H143848   0.854   4.025   2.215  0.2965  0.5619 -0.4506
 6551TIP3    H243849   0.809   3.966   2.083  1.5048 -0.4336 -0.4414
 6552TIP3   OH243850   6.215   1.995   2.870  0.1012  0.3002  0.2466
 6552TIP3    H143851   6.155   1.989   2.944  0.5826  1.3825  0.7400
 6552TIP3    H243852   6.266   2.074   2.887 -0.1421  0.8808 -1.5113
 6553TIP3   OH243853   4.694   1.537   0.597 -0.2480  0.1534 -0.3502
 6553TIP3    H143854   4.677   1.626   0.628 -0.3686  0.3563 -0.9948
 6553TIP3    H243855   4.768   1.546   0.538 -0.2166 -0.1848 -0.3603
 6554TIP3   OH243856   4.102   2.699   1.828 -0.0489  0.5444  0.5346
 6554TIP3    H143857   4.109   2.630   1.762 -0.0199  0.1698  0.9250
 6554TIP3    H243858   4.188   2.702   1.869  0.2414  1.4669 -0.1160
 6555TIP3   OH243859   1.876   2.096   0.834  0.0559  0.3114  0.4393
 6555TIP3    H143860   1.950   2.148   0.866  1.8151 -0.1774 -2.5233
 6555TIP3    H243861   1.870   2.117   0.741 -0.6396 -2.9976 -0.3933
 6556TIP3   OH243862   6.945   7.597   1.032  0.0282  0.1671 -0.3929
 6556TIP3    H143863   6.889   7.671   1.009 -2.2272 -0.6962  1.8413
 6556TIP3    H243864   6.989   7.624   1.112  2.5938  0.6152 -1.8246
 6557TIP3   OH243865   6.597   0.217   0.634  0.1291 -0.2918  0.1196
 6557TIP3    H143866   6.592   0.152   0.704  0.5793 -2.0308 -1.3965
 6557TIP3    H243867   6.544   0.181   0.563 -0.6357  1.6118 -0.3583
 6558TIP3   OH243868   2.561   3.956   1.981  0.3889  0.0949  0.1042
 6558TIP3    H143869   2.586   3.942   2.073 -0.2933 -0.3389  0.2344
 6558TIP3    H243870   2.574   4.049   1.967  0.3191  0.2002  0.6963
 6559TIP3   OH243871   2.863   5.984   1.953 -0.4822  0.0881 -0.2180
 6559TIP3    H143872   2.796   6.048   1.976 -2.1973 -1.2509 -1.2453
 6559TIP3    H243873   2.878   5.998   1.859  1.2988  0.8727  0.1299
 6560TIP3   OH243874   7.255   2.556   2.506  0.2184  0.0293  0.1158
 6560TIP3    H143875   7.225   2.625   2.448  0.2488  0.0279  0.0983
 6560TIP3    H243876   7.282   2.485   2.448 -0.8942 -0.4449  0.1619
 6561TIP3   OH243877   6.160   0.223   0.554  0.1101 -0.8061  0.1815
 6561TIP3    H143878   6.133   0.269   0.633 -0.1725  3.0630 -1.9404
 6561TIP3    H243879   6.247   0.189   0.574 -1.3348 -3.1858  3.2219
 6562TIP3   OH243880   4.784   0.238   2.477  0.2230  0.1038  0.1782
 6562TIP3    H143881   4.697   0.213   2.447  0.8915 -0.5175 -1.3535
 6562TIP3    H243882   4.789   0.333   2.462 -0.8125  0.4939  2.0208
 6563TIP3   OH243883   7.228   4.696   1.942 -0.4694  0.2869  0.0757
 6563TIP3    H143884   7.185   4.733   1.866  2.0487 -1.2014 -2.2637
 6563TIP3    H243885   7.314   4.738   1.944  0.1909 -1.0078  0.9740
 6564TIP3   OH243886   1.992   6.693   2.287  0.1895 -0.1952 -0.1222
 6564TIP3    H143887   1.950   6.729   2.365  1.7909 -1.0962  1.2140
 6564TIP3    H243888   2.028   6.609   2.316  0.0719 -0.9678 -2.0785
 6565TIP3   OH243889   1.924   3.580   2.124 -0.0469 -0.0154  0.0861
 6565TIP3    H143890   1.874   3.512   2.170 -0.3685 -0.6129 -1.0954
 6565TIP3    H243891   1.990   3.608   2.186  0.1727 -1.5143  0.5601
 6566TIP3   OH243892   2.412   4.696   3.172 -0.6336  0.5806  0.1748
 6566TIP3    H143893   2.343   4.641   3.210 -1.5569  1.7348  0.2277
 6566TIP3    H243894   2.383   4.786   3.189 -0.5391  1.1384 -2.2807
 6567TIP3   OH243895   7.512   5.794   2.524 -0.6602 -0.5847  0.0975
 6567TIP3    H143896   7.538   5.704   2.544  1.5074  0.0671  0.5471
 6567TIP3    H243897   7.459   5.821   2.599 -2.1736 -1.7688 -0.5025
 6568TIP3   OH243898   6.718   1.413   0.887 -0.1520  0.0014 -0.1552
 6568TIP3    H143899   6.686   1.443   0.972 -2.3161  1.3168 -1.3328
 6568TIP3    H243900   6.773   1.485   0.855  0.8130 -0.5713  0.1933
 6569TIP3   OH243901   7.560   5.357   1.122  0.3392 -0.1411 -0.5427
 6569TIP3    H143902   7.639   5.410   1.122  0.7225 -0.6567 -2.1258
 6569TIP3    H243903   7.591   5.267   1.136  0.0729 -0.3647 -1.3279
 6570TIP3   OH243904   5.696   4.702   1.793  0.2641 -0.4766 -0.5102
 6570TIP3    H143905   5.791   4.706   1.799  0.2125  0.2351 -0.0989
 6570TIP3    H243906   5.665   4.752   1.869 -0.4355  0.9613 -1.6933
 6571TIP3   OH243907   0.158   3.474   0.954  0.2353  0.3009 -0.3812
 6571TIP3    H143908   0.110   3.478   0.871 -1.3923 -0.6810  0.4653
 6571TIP3    H243909   0.089   3.475   1.021  1.4990  0.5938  0.9442
 6572TIP3   OH243910   6.454   1.801   1.628 -0.3074 -0.1883 -0.1171
 6572TIP3    H143911   6.422   1.888   1.652 -0.1307 -0.7374  2.4221
 6572TIP3    H243912   6.380   1.743   1.642  0.6274 -0.9509  2.2483
 6573TIP3   OH243913   4.251   6.879   1.708 -0.3442 -0.4937 -0.3236
 6573TIP3    H143914   4.198   6.871   1.787 -1.9708  0.1149 -1.2939
 6573TIP3    H243915   4.192   6.855   1.637  1.6225 -2.9437 -1.2632
 6574TIP3   OH243916   4.668   4.864   1.307  0.1264 -0.7296  0.6866
 6574TIP3    H143917   4.638   4.897   1.392  0.6614  0.3236  0.4807
 6574TIP3    H243918   4.606   4.902   1.244 -0.4292 -1.7233  0.6240
 6575TIP3   OH243919   1.897   0.394   1.416  0.4300 -0.1176  0.4341
 6575TIP3    H143920   1.886   0.485   1.443  0.4805 -0.4848  1.7613
 6575TIP3    H243921   1.808   0.361   1.404  0.4252  0.3776 -1.0796
 6576TIP3   OH243922   4.357   5.478   0.586 -0.1106  0.2487 -0.0670
 6576TIP3    H143923   4.277   5.431   0.564 -0.0312  1.1330 -2.5925
 6576TIP3    H243924   4.328   5.559   0.629 -0.4934  0.0025  0.1361
 6577TIP3   OH243925   2.112   1.410   1.818 -0.4150 -0.2107  0.0004
 6577TIP3    H143926   2.083   1.446   1.734 -0.7744 -0.4428  0.0217
 6577TIP3    H243927   2.178   1.472   1.849 -0.6616  0.1606 -0.2032
 6578TIP3   OH243928   6.852   0.051   2.381 -0.4997  0.7427 -0.0296
 6578TIP3    H143929   6.823   0.056   2.290 -0.3244 -0.6796 -0.1856
 6578TIP3    H243930   6.780   0.006   2.426  1.2491 -2.8120 -0.4102
 6579TIP3   OH243931   0.891   3.131   1.504  0.2893 -0.3089  0.2424
 6579TIP3    H143932   0.863   3.134   1.413  0.7521 -0.3084  0.0968
 6579TIP3    H243933   0.861   3.214   1.542 -0.1226 -0.4185  0.1587
 6580TIP3   OH243934   3.116   2.673   0.488 -0.5127  0.6572 -0.5591
 6580TIP3    H143935   3.153   2.746   0.439 -1.0784  1.8910  0.7819
 6580TIP3    H243936   3.163   2.596   0.455 -1.4116  1.2598 -3.5850
 6581TIP3   OH243937   2.396   0.038   3.031  0.3510 -0.2920 -0.3558
 6581TIP3    H143938   2.374   0.097   2.959 -0.5836  1.0979  1.0050
 6581TIP3    H243939   2.312  -0.002   3.056  0.7975 -1.3785 -0.5545
 6582TIP3   OH243940   6.364   5.734   0.416 -0.5348 -0.1127 -0.4470
 6582TIP3    H143941   6.416   5.794   0.468  0.4577 -0.4969 -0.9602
 6582TIP3    H243942   6.292   5.787   0.381 -2.5694 -0.2784  3.0201
 6583TIP3   OH243943   5.756   0.834   2.463  0.1108 -0.7262  0.0375
 6583TIP3    H143944   5.804   0.811   2.383  0.5381 -0.0185  0.0849
 6583TIP3    H243945   5.821   0.828   2.533 -0.1734 -0.9851  0.2845
 6584TIP3   OH243946   3.310   5.721   3.014  0.5540 -0.5586  0.0031
 6584TIP3    H143947   3.393   5.693   3.052  0.6290 -0.3894 -0.0355
 6584TIP3    H243948   3.293   5.657   2.945  0.4624 -0.8117  0.2581
 6585TIP3   OH243949   0.787   6.588   1.315  0.6648 -0.2082 -0.0212
 6585TIP3    H143950   0.828   6.600   1.401 -0.8077 -0.7647  0.7888
 6585TIP3    H243951   0.796   6.673   1.273  0.1161  0.5263  1.2696
 6586TIP3   OH243952   4.203   2.556   3.013 -0.0764  0.2604  0.4171
 6586TIP3    H143953   4.298   2.565   3.007  0.0671  0.4230  2.3639
 6586TIP3    H243954   4.174   2.637   3.055 -0.9292 -0.3395  1.0001
 6587TIP3   OH243955   1.987   0.176   1.182 -0.1890  0.3221  0.0831
 6587TIP3    H143956   1.960   0.093   1.221  0.2631  0.9662  1.8515
 6587TIP3    H243957   1.979   0.240   1.253  0.0864  1.6827 -1.0597
 6588TIP3   OH243958   4.627   3.758   2.737 -0.1905  0.6609  0.0228
 6588TIP3    H143959   4.704   3.704   2.719  0.0532  0.8397  0.5090
 6588TIP3    H243960   4.663   3.843   2.762 -0.5443  0.6827  0.4612
 6589TIP3   OH243961   0.066   1.600   1.856 -0.0696  0.2032 -0.2970
 6589TIP3    H143962  -0.017   1.646   1.869 -0.1674  0.3919 -1.4857
 6589TIP3    H243963   0.044   1.508   1.865 -0.1569  0.3126  0.6523
 6590TIP3   OH243964   4.227   1.869   2.089  0.1750  0.5833  0.8987
 6590TIP3    H143965   4.308   1.887   2.041  0.0824  2.7173  1.4572
 6590TIP3    H243966   4.167   1.835   2.022  1.2228 -0.1533  0.2982
 6591TIP3   OH243967   3.346   6.921   0.760  0.6552  0.6485  0.1131
 6591TIP3    H143968   3.416   6.891   0.702  1.8446  3.6902 -0.1991
 6591TIP3    H243969   3.269   6.929   0.703  0.9094  0.3578 -0.2726
 6592TIP3   OH243970   6.936   6.445   2.126  0.9558 -0.2078  0.0275
 6592TIP3    H143971   7.019   6.461   2.080  0.4150 -1.1867 -1.3797
 6592TIP3    H243972   6.872   6.499   2.079  0.0668 -2.5123 -1.5845
 6593TIP3   OH243973   4.809   6.634   1.756  0.8482 -0.2097 -0.5789
 6593TIP3    H143974   4.898   6.644   1.790  0.3554 -0.1620  0.7709
 6593TIP3    H243975   4.788   6.542   1.770 -0.1295  0.2384  1.3487
 6594TIP3   OH243976   6.447   5.369   3.538 -0.0474  0.2170 -0.5654
 6594TIP3    H143977   6.352   5.360   3.529 -0.3145  0.7109  1.3402
 6594TIP3    H243978   6.465   5.350   3.630  1.2838  2.9505 -0.1353
 6595TIP3   OH243979   3.614   1.288   1.664 -0.6390 -0.3173 -0.2537
 6595TIP3    H143980   3.608   1.348   1.738 -1.3029  0.9328 -1.2805
 6595TIP3    H243981   3.688   1.232   1.685 -1.0530 -0.2656  1.5346
 6596TIP3   OH243982   4.238   1.113   1.157 -0.1043 -0.1363 -0.4014
 6596TIP3    H143983   4.239   1.018   1.157 -2.7849 -0.2282 -0.2082
 6596TIP3    H243984   4.241   1.138   1.249 -0.6832 -0.0719 -0.4010
 6597TIP3   OH243985   1.779   0.588   1.784  0.7738 -0.4273  0.4920
 6597TIP3    H143986   1.860   0.535   1.782  0.4847 -1.0084  2.4552
 6597TIP3    H243987   1.804   0.668   1.830  0.2723 -0.5347  0.9520
 6598TIP3   OH243988   4.155   3.242   1.121 -0.6233  0.2548 -0.1207
 6598TIP3    H143989   4.138   3.336   1.116  1.0849  0.5945 -0.2646
 6598TIP3    H243990   4.068   3.203   1.131 -1.4579  1.7631 -1.0118
 6599TIP3   OH243991   3.202   4.238   2.010 -0.3982  0.0912 -0.4567
 6599TIP3    H143992   3.113   4.266   1.991  0.1222  1.1572 -1.4835
 6599TIP3    H243993   3.202   4.144   1.995 -1.6609 -0.1604  0.8691
 6600TIP3   OH243994   5.460   1.282   1.518 -0.5308 -0.0966  0.1506
 6600TIP3    H143995   5.464   1.193   1.555 -1.5125 -0.5954 -0.8995
 6600TIP3    H243996   5.377   1.317   1.550 -0.6165  0.0680 -0.2544
 6601TIP3   OH243997   6.280   1.100   0.449  0.1923  0.1887 -0.3738
 6601TIP3    H143998   6.237   1.146   0.521  0.6826 -1.1863  0.8386
 6601TIP3    H243999   6.258   1.152   0.371 -2.7732  0.1206  0.3087
 6602TIP3   OH244000   2.208   7.457   1.786  0.2904 -0.0502 -0.2935
 6602TIP3    H144001   2.297   7.464   1.819 -0.1260  2.2718  0.5151
 6602TIP3    H244002   2.176   7.548   1.782 -1.6566 -0.7174 -1.6276
 6603TIP3   OH244003   5.292   3.251   2.250  0.7792 -0.2937  0.8658
 6603TIP3    H144004   5.269   3.307   2.325  2.6359  1.5821  0.1394
 6603TIP3    H244005   5.372   3.207   2.278  0.7470 -0.6135  0.4585
 6604TIP3   OH244006   5.766   4.094   2.178 -0.0076 -0.4423  0.0310
 6604TIP3    H144007   5.771   4.088   2.273  1.1095  1.2767  0.1284
 6604TIP3    H244008   5.752   4.187   2.160  1.3384 -0.4838 -1.5055
 6605TIP3   OH244009   7.373   6.464   2.815  0.0799 -0.1004 -0.3299
 6605TIP3    H144010   7.348   6.421   2.733  0.2390 -1.8789  0.5252
 6605TIP3    H244011   7.296   6.457   2.870 -0.4378  2.1142 -0.6554
 6606TIP3   OH244012   4.495   4.666   1.578  0.6371 -0.5022 -0.0140
 6606TIP3    H144013   4.537   4.580   1.579  1.8937  0.0882  0.5282
 6606TIP3    H244014   4.558   4.724   1.622 -0.5738  0.5178  0.4518
 6607TIP3   OH244015   0.012   1.105   3.193 -0.3896  0.3223 -0.2695
 6607TIP3    H144016   0.071   1.180   3.196  0.1710 -0.1378  0.8141
 6607TIP3    H244017  -0.068   1.138   3.152 -0.6113  1.8326  1.2909
 6608TIP3   OH244018   6.917   5.241   2.838 -0.3514 -0.1877 -0.0878
 6608TIP3    H144019   6.892   5.188   2.763  0.3472 -1.6810  0.6878
 6608TIP3    H244020   6.836   5.286   2.864 -0.9362 -0.7794 -0.8534
 6609TIP3   OH244021   3.733   7.202   1.438 -0.5609  0.0992 -0.2352
 6609TIP3    H144022   3.750   7.150   1.359  1.8042 -1.2913  1.0367
 6609TIP3    H244023   3.685   7.142   1.496 -0.4677  0.3669  0.1224
 6610TIP3   OH244024   7.047   1.488   7.274  0.1364  0.0154 -0.3763
 6610TIP3    H144025   6.970   1.534   7.308 -0.7806 -2.5061  1.3406
 6610TIP3    H244026   7.107   1.486   7.348  1.0438  0.2867 -1.0980
 6611TIP3   OH244027   0.426   2.520   1.766 -0.2711 -0.6116  0.1453
 6611TIP3    H144028   0.365   2.454   1.734 -0.9908 -0.4456  1.1065
 6611TIP3    H244029   0.379   2.603   1.759  1.1405  0.0721 -2.4089
 6612TIP3   OH244030   0.576   3.787   2.895  0.1751  0.4216  0.0586
 6612TIP3    H144031   0.563   3.719   2.829 -1.3498  1.1581 -0.4454
 6612TIP3    H244032   0.488   3.822   2.911  0.7929  1.6014  1.0356
 6613TIP3   OH244033   4.410   7.146   2.412 -0.1013 -0.4330 -0.0003
 6613TIP3    H144034   4.444   7.201   2.341  1.6115 -1.4738 -0.0283
 6613TIP3    H244035   4.355   7.205   2.463 -0.0767  0.7480 -1.2651
 6614TIP3   OH244036   6.511   7.118   1.561  0.3194 -0.3311 -0.4920
 6614TIP3    H144037   6.547   7.140   1.476 -0.0394 -1.0211 -0.8292
 6614TIP3    H244038   6.418   7.102   1.545  0.2830 -0.6453 -0.0106
 6615TIP3   OH244039   1.332   5.888   2.435  0.0684  0.1213  0.3120
 6615TIP3    H144040   1.270   5.961   2.434 -1.7060 -1.2904 -1.7331
 6615TIP3    H244041   1.393   5.909   2.505 -1.8794  2.3122  1.4792
 6616TIP3   OH244042   6.558   4.057   0.670 -0.5169  0.0963  0.7054
 6616TIP3    H144043   6.536   3.971   0.707 -0.6888 -0.1682  0.0046
 6616TIP3    H244044   6.541   4.048   0.577  2.0732  0.0155  0.1532
 6617TIP3   OH244045   2.291   2.551   0.965  0.1770  0.3367  0.0454
 6617TIP3    H144046   2.283   2.632   1.015 -0.7801 -0.3159  0.9895
 6617TIP3    H244047   2.289   2.481   1.030 -1.1540 -0.5438 -0.8687
 6618TIP3   OH244048   6.477   1.428   1.210  0.4076  0.2639  0.4914
 6618TIP3    H144049   6.557   1.481   1.207  0.9570 -0.5578  0.1014
 6618TIP3    H244050   6.477   1.391   1.298  1.4567 -1.1798 -0.0691
 6619TIP3   OH244051   4.414   3.650   1.706  0.4653  0.0158  0.5377
 6619TIP3    H144052   4.325   3.681   1.724 -1.1153 -3.2999 -0.7431
 6619TIP3    H244053   4.442   3.610   1.787 -0.1199 -0.8003  0.3513
 6620TIP3   OH244054   5.676   0.721   2.913 -0.1654 -0.2428 -0.3686
 6620TIP3    H144055   5.722   0.669   2.979 -0.5637  0.2293  0.2990
 6620TIP3    H244056   5.644   0.797   2.962 -1.2845 -0.3531 -0.9113
 6621TIP3   OH244057   5.905   2.602   1.444  0.2374  0.0864 -0.3932
 6621TIP3    H144058   5.917   2.528   1.385  3.4721 -0.3599  0.6431
 6621TIP3    H244059   5.958   2.672   1.407  0.6567  0.4665  0.8656
 6622TIP3   OH244060   5.093   5.156   2.388  0.7143 -0.2925  0.1967
 6622TIP3    H144061   5.180   5.125   2.362 -0.1442 -3.3411  0.5753
 6622TIP3    H244062   5.090   5.139   2.483 -0.0496  0.4096  0.3041
 6623TIP3   OH244063   6.140   3.428   2.572 -0.0002  0.3939  0.0812
 6623TIP3    H144064   6.175   3.341   2.589 -0.1012  0.1695 -0.8330
 6623TIP3    H244065   6.051   3.426   2.609  0.4673  0.5621  1.2761
 6624TIP3   OH244066   5.111   2.436   2.882  0.1210  0.2685 -0.2247
 6624TIP3    H144067   5.016   2.428   2.869  0.2556 -0.9909 -0.6181
 6624TIP3    H244068   5.145   2.349   2.861  1.2528  0.3780  1.0288
 6625TIP3   OH244069   6.435   0.637   1.688  0.9030 -0.3131 -0.4150
 6625TIP3    H144070   6.497   0.701   1.724  1.3707 -1.1501  0.2840
 6625TIP3    H244071   6.350   0.680   1.695  1.4712  1.4338 -2.6278
 6626TIP3   OH244072   5.120   3.931   1.800 -0.0097  0.1146  0.0743
 6626TIP3    H144073   5.140   3.869   1.870 -1.0639  0.7326  0.9370
 6626TIP3    H244074   5.057   3.885   1.745  0.7508 -0.3356 -0.4574
 6627TIP3   OH244075   1.302   4.571   1.194  0.8012  0.0096 -0.1111
 6627TIP3    H144076   1.221   4.568   1.142  0.2909 -2.3376  0.7052
 6627TIP3    H244077   1.352   4.642   1.154 -1.7708  1.8115 -0.4455
 6628TIP3   OH244078   0.243   7.502   1.907  0.2316  0.2210  0.2945
 6628TIP3    H144079   0.158   7.544   1.888 -0.8399 -2.2131 -0.6997
 6628TIP3    H244080   0.252   7.508   2.002 -1.3131  0.0827  0.4777
 6629TIP3   OH244081   6.489   6.683   1.753 -0.1340  0.5016  0.0599
 6629TIP3    H144082   6.531   6.738   1.688 -1.2908  0.4081 -0.7900
 6629TIP3    H244083   6.517   6.594   1.730 -1.6451  0.3089 -1.2314
 6630TIP3   OH244084   6.097   4.921   1.357 -0.8416 -0.1388  0.3288
 6630TIP3    H144085   6.112   4.830   1.332  0.0584  0.1698 -0.3130
 6630TIP3    H244086   6.005   4.924   1.383 -0.8137 -1.2809  0.6047
 6631TIP3   OH244087   6.111   1.689   3.408 -0.4294 -0.4856  0.1148
 6631TIP3    H144088   6.111   1.600   3.374  1.4288 -0.4012 -0.2063
 6631TIP3    H244089   6.197   1.700   3.449 -0.6665  1.1086  0.2743
 6632TIP3   OH244090   2.701   5.214   1.596 -0.2306 -0.2387 -0.1981
 6632TIP3    H144091   2.755   5.140   1.622 -0.4878 -0.5499 -0.5326
 6632TIP3    H244092   2.636   5.176   1.537  0.2009  0.3946 -1.1169
 6633TIP3   OH244093   3.291   7.145   1.972 -0.0794  0.1055 -0.6415
 6633TIP3    H144094   3.284   7.205   1.898 -0.3072  0.7887 -0.0844
 6633TIP3    H244095   3.366   7.178   2.022 -1.8003  1.6257  1.1153
 6634TIP3   OH244096   6.590   0.591   1.974 -0.2821 -0.0177  0.3666
 6634TIP3    H144097   6.586   0.641   1.892  0.4207 -0.9243 -0.2396
 6634TIP3    H244098   6.598   0.500   1.947 -1.1589 -0.4413  1.4601
 6635TIP3   OH244099   0.464   7.212   1.255 -0.0889  0.1690  0.1133
 6635TIP3    H144100   0.452   7.303   1.229 -3.1593 -0.2291 -0.1269
 6635TIP3    H244101   0.507   7.171   1.180 -1.8320  0.7074 -1.2395
 6636TIP3   OH244102   5.400   6.227   2.462  0.0741  0.4176 -0.8708
 6636TIP3    H144103   5.384   6.306   2.514  0.1697  0.2803 -0.6310
 6636TIP3    H244104   5.317   6.211   2.417 -1.4809 -1.8149  2.4247
 6637TIP3   OH244105   3.558   4.309   1.359  0.5969 -0.2973  0.2105
 6637TIP3    H144106   3.584   4.306   1.451 -1.1423  0.7508  0.7927
 6637TIP3    H244107   3.541   4.402   1.343 -1.1074 -0.6894 -0.5398
 6638TIP3   OH244108   4.792   4.361   1.884  0.1658  0.1884 -0.0246
 6638TIP3    H144109   4.776   4.279   1.837  0.9282 -0.6047  1.0562
 6638TIP3    H244110   4.744   4.351   1.966  3.6588 -1.0685  2.0563
 6639TIP3   OH244111   7.563   3.629   1.039  0.1274  0.0111  0.1920
 6639TIP3    H144112   7.555   3.589   0.952 -1.6153  0.3272  0.1673
 6639TIP3    H244113   7.491   3.590   1.089 -0.3313  1.5643  0.7809
 6640TIP3   OH244114   1.315   4.651   3.298  0.9061 -0.3272  0.3234
 6640TIP3    H144115   1.392   4.679   3.347  0.7994  0.1961  0.1901
 6640TIP3    H244116   1.297   4.563   3.331  0.7383  0.0719  1.3324
 6641TIP3   OH244117   1.232   2.344   3.008  0.5973  0.1947 -0.1876
 6641TIP3    H144118   1.184   2.355   3.090 -1.9141 -0.6262 -1.4522
 6641TIP3    H244119   1.277   2.260   3.018  0.3238  0.1077  0.3288
 6642TIP3   OH244120   3.046   7.146   2.076  0.2283  0.5215 -0.2152
 6642TIP3    H144121   3.067   7.215   2.139  0.0053  0.6530 -0.2835
 6642TIP3    H244122   3.128   7.128   2.031  0.7772 -0.6688  1.1874
 6643TIP3   OH244123   4.135   0.268   1.925 -0.4002  0.1685 -0.2150
 6643TIP3    H144124   4.228   0.252   1.908  0.4843  0.4061  3.5740
 6643TIP3    H244125   4.108   0.329   1.856  2.2843  0.2212 -1.3245
 6644TIP3   OH244126   6.796   3.848   3.343 -0.0457 -0.0958  0.5444
 6644TIP3    H144127   6.780   3.795   3.265 -2.1613  1.7956 -0.4294
 6644TIP3    H244128   6.709   3.863   3.380  0.3002  3.0985  0.3948
 6645TIP3   OH244129   5.209   0.774   2.340  0.3295  0.5677  0.2940
 6645TIP3    H144130   5.171   0.733   2.418 -0.7396 -0.6270 -0.7907
 6645TIP3    H244131   5.300   0.791   2.364  0.4437 -1.1426  1.3221
 6646TIP3   OH244132   7.365   7.029   1.830 -0.0467 -0.4993  0.0837
 6646TIP3    H144133   7.318   7.101   1.872 -0.7053 -1.1428  0.4752
 6646TIP3    H244134   7.296   6.972   1.796  0.4589 -1.0983  0.0452
 6647TIP3   OH244135   1.465   1.838   1.093  0.5519 -0.2030 -0.0728
 6647TIP3    H144136   1.522   1.797   1.028  0.3279  0.3894 -0.6614
 6647TIP3    H244137   1.393   1.775   1.104 -0.7087  0.7030 -2.2796
 6648TIP3   OH244138   1.811   0.344   1.924  0.2319  0.5853 -0.5562
 6648TIP3    H144139   1.838   0.270   1.869  1.3844  1.2298 -0.8786
 6648TIP3    H244140   1.718   0.355   1.904  0.0508 -0.7367 -0.5417
 6649TIP3   OH244141   0.480   3.669   2.050  0.4273 -0.3349 -0.1446
 6649TIP3    H144142   0.503   3.595   2.106 -1.2933  1.2613  2.8940
 6649TIP3    H244143   0.450   3.737   2.110 -2.5668  1.1924 -3.0175
 6650TIP3   OH244144   0.762   3.434   1.216 -0.0227  0.1525  0.6207
 6650TIP3    H144145   0.684   3.468   1.258 -1.9580 -1.6084 -1.2829
 6650TIP3    H244146   0.779   3.351   1.259 -0.9396 -0.7978 -0.7684
 6651TIP3   OH244147   1.897   5.166   2.628 -0.2285  0.1445 -0.0135
 6651TIP3    H144148   1.813   5.136   2.594 -0.9012 -0.1775  1.8419
 6651TIP3    H244149   1.917   5.245   2.577 -1.5543  0.1103 -0.6168
 6652TIP3   OH244150   0.658   1.054   1.773 -0.4956 -0.0701  0.1546
 6652TIP3    H144151   0.691   0.985   1.831  0.5498 -0.9247 -1.3723
 6652TIP3    H244152   0.572   1.023   1.745  0.0883 -0.9465 -0.7493
 6653TIP3   OH244153   3.308   4.850   2.396 -0.2011 -0.2051  0.2274
 6653TIP3    H144154   3.216   4.873   2.384  0.4524  1.8307 -1.4181
 6653TIP3    H244155   3.312   4.757   2.375 -1.5735  0.1077 -1.6895
 6654TIP3   OH244156   0.427   1.121   2.797 -0.5325 -0.5017 -0.0400
 6654TIP3    H144157   0.334   1.145   2.799 -0.5333 -0.3620 -1.1245
 6654TIP3    H244158   0.449   1.104   2.888 -0.5819  3.4638  0.9211
 6655TIP3   OH244159   4.911   7.624   1.911  0.1313 -0.8256  0.1845
 6655TIP3    H144160   4.888   7.549   1.855  0.5443  0.7178 -2.1953
 6655TIP3    H244161   4.843   7.688   1.894 -0.6418 -0.8537  2.7835
 6656TIP3   OH244162   3.657   5.871   1.619 -0.0648 -0.2814 -0.0256
 6656TIP3    H144163   3.749   5.896   1.617  0.2182 -1.2986 -0.1321
 6656TIP3    H244164   3.639   5.854   1.712  0.1256 -1.0359 -0.1225
 6657TIP3   OH244165   4.419   4.426   1.948  0.2472 -0.1287  0.1977
 6657TIP3    H144166   4.345   4.487   1.947  0.9730  0.7685 -0.5264
 6657TIP3    H244167   4.494   4.478   1.919  0.7305 -1.5517 -1.2489
 6658TIP3   OH244168   7.122   5.622   0.532  0.4146  0.1651 -0.3155
 6658TIP3    H144169   7.088   5.609   0.621  0.1813 -2.6713 -0.7185
 6658TIP3    H244170   7.086   5.706   0.504 -1.2994  0.1096  1.4927
 6659TIP3   OH244171   7.142   5.665   0.902 -0.2802  0.4430  0.5635
 6659TIP3    H144172   7.166   5.669   0.994 -0.2760 -0.5150  0.6211
 6659TIP3    H244173   7.187   5.739   0.862 -0.4409  0.9820  1.3614
 6660TIP3   OH244174   4.742   7.500   2.370 -0.2207 -0.1482 -0.4604
 6660TIP3    H144175   4.801   7.545   2.310  1.0538 -2.2709 -0.9322
 6660TIP3    H244176   4.744   7.553   2.450  0.9457  0.7792 -1.0738
 6661TIP3   OH244177   5.950   3.119   2.520 -0.3417  0.4346  0.3059
 6661TIP3    H144178   5.918   3.185   2.581 -0.4601  0.8411 -0.1887
 6661TIP3    H244179   6.023   3.161   2.475  1.4277 -0.7100  1.9210
 6662TIP3   OH244180   1.718   6.718   1.312  0.0847  0.1320 -0.3683
 6662TIP3    H144181   1.811   6.716   1.335  0.0040  1.8676  0.2364
 6662TIP3    H244182   1.685   6.634   1.341  0.7920  0.7609  2.5244
 6663TIP3   OH244183   6.078   5.028   3.283 -0.4334  0.3539 -0.6941
 6663TIP3    H144184   6.100   4.944   3.243  0.8295  0.5343 -0.4153
 6663TIP3    H244185   5.986   5.018   3.310 -0.2036 -1.0652 -0.3309
 6664TIP3   OH244186   5.567   7.213   0.664  0.6522 -0.0191 -0.5178
 6664TIP3    H144187   5.653   7.190   0.631  0.1199 -2.6657 -0.2470
 6664TIP3    H244188   5.585   7.270   0.739  2.2008 -0.9467 -0.1430
 6665TIP3   OH244189   0.629   1.177   1.512 -0.0269 -0.0806  0.3839
 6665TIP3    H144190   0.595   1.181   1.602 -5.6710  0.1452 -1.3788
 6665TIP3    H244191   0.621   1.266   1.480  0.2426 -0.4868 -0.8498
 6666TIP3   OH244192   5.765   6.239   1.606 -0.5162  0.2177 -0.5641
 6666TIP3    H144193   5.717   6.255   1.687  2.6808 -1.6564  1.8773
 6666TIP3    H244194   5.737   6.152   1.578 -0.6036  0.3034 -0.7509
 6667TIP3   OH244195   2.181   6.808   1.110  0.1436 -0.5339  0.2259
 6667TIP3    H144196   2.182   6.870   1.038 -0.0616 -0.8770 -0.0761
 6667TIP3    H244197   2.210   6.859   1.186 -1.0232  0.2080  0.1970
 6668TIP3   OH244198   0.522   4.139   0.645  0.2278  0.0189 -0.2355
 6668TIP3    H144199   0.538   4.045   0.634  0.5819 -0.0204  0.5649
 6668TIP3    H244200   0.580   4.165   0.717 -1.0316  0.5208  0.6225
 6669TIP3   OH244201   3.025   7.334   1.531 -0.3077  0.4866  0.0039
 6669TIP3    H144202   2.944   7.284   1.534 -0.4017  0.5960 -0.6182
 6669TIP3    H244203   3.091   7.270   1.503 -0.2284  0.4655  0.2336
 6670TIP3   OH244204   4.765   4.507   0.840 -0.2414 -0.0458  0.1753
 6670TIP3    H144205   4.717   4.569   0.785  0.1570 -0.1425 -0.2957
 6670TIP3    H244206   4.845   4.554   0.865  0.2071 -0.4615 -0.4366
 6671TIP3   OH244207   4.361   0.136   1.759 -0.6561  0.2066 -0.6185
 6671TIP3    H144208   4.421   0.182   1.818  0.7823 -0.3783 -1.5555
 6671TIP3    H244209   4.394   0.046   1.756 -2.2899 -0.4449 -0.2778
 6672TIP3   OH244210   6.359   2.872   0.455  0.0736  0.5948  0.3597
 6672TIP3    H144211   6.416   2.813   0.405 -2.1732  0.1067 -1.8543
 6672TIP3    H244212   6.272   2.831   0.449 -0.8595  2.1683  2.1094
 6673TIP3   OH244213   3.220   6.165   3.147  0.1897  0.2393 -0.3243
 6673TIP3    H144214   3.263   6.102   3.205 -0.0205 -1.6199 -2.0539
 6673TIP3    H244215   3.292   6.209   3.101  0.3566 -0.9736 -1.2927
 6674TIP3   OH244216   4.966   3.735   2.498 -0.4872  0.0923  0.3531
 6674TIP3    H144217   4.967   3.789   2.577  2.2018  0.7953 -0.0693
 6674TIP3    H244218   4.976   3.646   2.530 -1.6970  0.1339  0.8889
 6675TIP3   OH244219   1.232   3.801   1.807  0.4756  0.0797 -0.0614
 6675TIP3    H144220   1.240   3.725   1.865  1.8600  0.4955  0.3396
 6675TIP3    H244221   1.145   3.835   1.824  0.6576 -0.1151  1.4248
 6676TIP3   OH244222   2.883   5.138   2.413 -0.4260  0.0178  0.5029
 6676TIP3    H144223   2.868   5.170   2.502 -1.7814  0.9587 -0.0440
 6676TIP3    H244224   2.901   5.217   2.361  1.6246 -0.6189  0.1461
 6677TIP3   OH244225   4.959   5.771   1.278  0.0109  0.9557 -0.4821
 6677TIP3    H144226   4.894   5.838   1.297 -2.2081 -0.6355 -1.9559
 6677TIP3    H244227   5.015   5.810   1.210 -0.2552  1.8333 -0.2131
 6678TIP3   OH244228   1.290   1.282   1.094  0.4677 -0.3749  0.6939
 6678TIP3    H144229   1.339   1.279   1.176  0.9153  0.3698  0.4564
 6678TIP3    H244230   1.218   1.220   1.107  1.2906 -1.2686  1.1551
 6679TIP3   OH244231   3.526   2.396   1.970  0.1341  0.1788 -0.5303
 6679TIP3    H144232   3.449   2.450   1.953  0.2595 -0.1669 -2.3244
 6679TIP3    H244233   3.546   2.355   1.886  2.0476 -0.0554  0.0063
 6680TIP3   OH244234   0.634   6.673   1.648 -0.0456 -0.3391 -0.1164
 6680TIP3    H144235   0.710   6.619   1.626 -0.2909 -1.4424  1.5708
 6680TIP3    H244236   0.578   6.669   1.570  0.7444 -1.0900 -0.6601
 6681TIP3   OH244237   4.456   1.334   1.454  0.2353 -0.6632  0.4353
 6681TIP3    H144238   4.445   1.269   1.385 -0.6575 -1.5003  1.3491
 6681TIP3    H244239   4.371   1.377   1.461 -0.3006 -1.9367  2.3371
 6682TIP3   OH244240   5.263   0.545   1.331 -0.2337 -0.0200  0.0025
 6682TIP3    H144241   5.284   0.572   1.421 -2.5619 -0.2097  0.6685
 6682TIP3    H244242   5.224   0.623   1.292 -1.6516 -0.6991  0.0343
 6683TIP3   OH244243   5.624   1.475   1.668 -0.2374 -0.1605  0.0900
 6683TIP3    H144244   5.585   1.413   1.606  0.1724  0.6384 -1.0027
 6683TIP3    H244245   5.573   1.465   1.748 -1.0758 -0.9009 -0.5229
 6684TIP3   OH244246   6.600   7.506   1.000  0.3716 -0.0235 -0.4087
 6684TIP3    H144247   6.535   7.500   1.070  2.7313 -0.3755  1.9184
 6684TIP3    H244248   6.574   7.582   0.949  0.0675  2.0082  2.5554
 6685TIP3   OH244249   3.705   6.612   2.113  0.3155 -0.1420  0.0882
 6685TIP3    H144250   3.749   6.528   2.101 -2.3279 -1.5992 -0.1313
 6685TIP3    H244251   3.665   6.606   2.200 -0.9644  0.3394 -0.4380
 6686TIP3   OH244252   1.294   1.088   1.562  0.4803 -0.1568 -0.3843
 6686TIP3    H144253   1.215   1.139   1.581  0.1455 -1.0456  0.6823
 6686TIP3    H244254   1.269   1.033   1.487  0.6886  0.8622 -1.2241
 6687TIP3   OH244255   6.645   2.954   1.943  0.2900  0.6365 -0.3637
 6687TIP3    H144256   6.608   3.015   1.879  1.9375  1.8419 -0.2508
 6687TIP3    H244257   6.661   3.008   2.021  0.7588 -0.1907  0.1351
 6688TIP3   OH244258   4.410   2.863   2.353 -0.5183 -0.3153  0.0156
 6688TIP3    H144259   4.441   2.795   2.412 -1.6230 -0.7577  0.1092
 6688TIP3    H244260   4.316   2.869   2.370 -0.4257  1.3813  0.1675
 6689TIP3   OH244261   4.665   0.417   1.994  0.2552  0.0245  0.3174
 6689TIP3    H144262   4.657   0.323   1.975 -0.0219  0.0017  0.5411
 6689TIP3    H244263   4.755   0.426   2.027  0.7896  0.0873 -1.0758
 6690TIP3   OH244264   2.835   6.004   1.014 -0.1608 -0.8352  0.2127
 6690TIP3    H144265   2.798   5.940   1.075 -0.7226 -0.1193  0.6488
 6690TIP3    H244266   2.928   5.985   1.013  0.0212 -0.2941  2.0479
 6691TIP3   OH244267   7.014   6.889   2.566  0.7621  0.4030  0.4663
 6691TIP3    H144268   6.942   6.856   2.619 -1.0230 -3.6385 -3.7861
 6691TIP3    H244269   6.980   6.968   2.524 -0.8672 -0.7789 -0.5351
 6692TIP3   OH244270   2.870   5.690   1.945 -0.8976 -0.2279 -0.1671
 6692TIP3    H144271   2.795   5.678   2.004 -0.4609 -0.0562  0.4349
 6692TIP3    H244272   2.881   5.784   1.939 -0.7369 -0.2526 -0.2630
 6693TIP3   OH244273   4.170   5.658   0.683  0.3196 -0.6362  0.2838
 6693TIP3    H144274   4.108   5.604   0.732  1.2380 -0.7809  1.3288
 6693TIP3    H244275   4.121   5.738   0.662  0.2784  0.0803  2.7477
 6694TIP3   OH244276   1.141   3.917   1.288 -0.3791 -0.1005  0.2440
 6694TIP3    H144277   1.176   3.899   1.376  1.2124  0.9867 -0.1297
 6694TIP3    H244278   1.214   3.901   1.229 -0.4908  2.1476 -0.5877
 6695TIP3   OH244279   0.078   7.597   1.337  0.0847  0.2134  0.1494
 6695TIP3    H144280   0.023   7.614   1.261 -0.7228 -0.8717  0.4619
 6695TIP3    H244281   0.165   7.582   1.301  0.3871  2.6111 -0.3029
 6696TIP3   OH244282   6.003   5.174   1.373 -0.6250  0.1779  0.0274
 6696TIP3    H144283   6.065   5.102   1.388 -1.8912 -1.5111 -2.2300
 6696TIP3    H244284   6.058   5.250   1.353  0.7189 -0.3696  1.4276
 6697TIP3   OH244285   0.557   0.103   2.984  0.2474 -0.5289 -0.0821
 6697TIP3    H144286   0.556   0.015   3.022  0.5382 -0.1150  0.9461
 6697TIP3    H244287   0.649   0.118   2.962  0.1580 -0.5760 -0.4917
 6698TIP3   OH244288   5.346   4.148   2.501  0.3719 -0.6763 -0.1298
 6698TIP3    H144289   5.412   4.182   2.442 -0.2986  0.0172 -0.5037
 6698TIP3    H244290   5.394   4.094   2.564  1.3448  0.2068 -0.0990
 6699TIP3   OH244291   0.683   4.454   1.297  0.5442 -0.1313  0.1778
 6699TIP3    H144292   0.625   4.444   1.222 -0.1414  0.4320  0.6181
 6699TIP3    H244293   0.771   4.453   1.260  0.1874  2.1332 -0.9253
 6700TIP3   OH244294   6.424   2.121   2.205 -0.2391 -0.2682  0.2131
 6700TIP3    H144295   6.447   2.169   2.125  1.6051 -1.7512 -0.2252
 6700TIP3    H244296   6.399   2.034   2.175 -0.2981 -0.6005  1.2023
 6701TIP3   OH244297   4.483   1.899   1.995  0.5136 -0.1399 -0.3773
 6701TIP3    H144298   4.499   1.924   1.904 -2.0187 -1.3483 -1.2460
 6701TIP3    H244299   4.570   1.896   2.035  1.9474 -1.6771 -3.3056
 6702TIP3   OH244300   1.290   3.334   2.847 -0.0542 -0.7544  0.0322
 6702TIP3    H144301   1.290   3.423   2.812  1.1995 -0.2032  1.3445
 6702TIP3    H244302   1.250   3.343   2.933  2.4347 -0.9501  1.2758
 6703TIP3   OH244303   0.357   6.328   1.821 -0.3767 -0.1716 -0.3925
 6703TIP3    H144304   0.389   6.414   1.846  2.8342 -1.4561  0.4573
 6703TIP3    H244305   0.313   6.295   1.899  0.5582 -0.2061  0.1369
 6704TIP3   OH244306   3.585   4.842   2.436 -0.0494  0.0804  0.1479
 6704TIP3    H144307   3.498   4.839   2.476 -0.1320 -0.4804 -0.0636
 6704TIP3    H244308   3.611   4.751   2.428 -0.5845  0.0660 -2.2331
 6705TIP3   OH244309   5.923   6.571   0.550  0.1448  0.3106  0.0405
 6705TIP3    H144310   5.834   6.591   0.579 -0.1236 -1.4570  0.5569
 6705TIP3    H244311   5.946   6.642   0.491 -3.1220 -1.0791 -3.3025
 6706TIP3   OH244312   3.186   4.020   1.021 -0.5363  0.3476 -0.4390
 6706TIP3    H144313   3.136   3.942   1.043 -0.9978  0.9950  0.9084
 6706TIP3    H244314   3.177   4.029   0.926 -0.2795 -1.3459 -0.6435
 6707TIP3   OH244315   3.327   7.534   2.083  0.1972  0.5717 -0.1542
 6707TIP3    H144316   3.417   7.564   2.072  0.6898 -1.1340 -1.2054
 6707TIP3    H244317   3.296   7.517   1.994 -1.4952  1.9239  0.1142
 6708TIP3   OH244318   4.109   1.298   2.872  0.6644  0.4197  0.4760
 6708TIP3    H144319   4.085   1.309   2.965  0.7230  2.3329  0.3099
 6708TIP3    H244320   4.104   1.387   2.836 -0.2206 -0.4083 -1.5759
 6709TIP3   OH244321   1.733   4.121   2.149  0.1122 -0.1620 -0.1211
 6709TIP3    H144322   1.812   4.134   2.201  0.2862 -1.3918 -0.0550
 6709TIP3    H244323   1.754   4.047   2.092 -1.2384 -1.0101  0.4280
 6710TIP3   OH244324   5.015   0.836   1.563  0.5090 -0.5404  0.1735
 6710TIP3    H144325   5.029   0.841   1.468  0.1891 -1.8786  0.0380
 6710TIP3    H244326   4.922   0.853   1.575  0.2028 -2.0692  0.0724
 6711TIP3   OH244327   3.443   1.119   3.007  0.4649  0.6261 -0.6298
 6711TIP3    H144328   3.538   1.109   2.998  0.4102 -0.7396  0.0666
 6711TIP3    H244329   3.432   1.198   3.060  1.1888  1.0617 -1.1156
 6712TIP3   OH244330   7.203   5.028   2.257  0.4398  0.3454  0.0263
 6712TIP3    H144331   7.182   4.962   2.324 -1.3718 -1.2377 -1.9412
 6712TIP3    H244332   7.272   4.988   2.205 -0.4339  0.0885 -0.9752
 6713TIP3   OH244333   1.373   6.141   0.979 -0.3708  0.1263  0.3652
 6713TIP3    H144334   1.291   6.113   1.020 -1.4808  0.7656 -1.3039
 6713TIP3    H244335   1.389   6.229   1.014 -1.7377  0.9957 -1.0780
 6714TIP3   OH244336   6.151   0.578   1.046 -0.2917  0.5165  0.1862
 6714TIP3    H144337   6.243   0.559   1.060 -0.2886 -1.8365 -2.1438
 6714TIP3    H244338   6.150   0.660   0.998  0.5501  0.8090  0.6528
 6715TIP3   OH244339   4.310   2.755   1.464  0.1521 -0.2176 -0.6893
 6715TIP3    H144340   4.373   2.708   1.409 -1.5462 -0.3140 -2.6871
 6715TIP3    H244341   4.354   2.835   1.489  1.9318 -1.3710  0.0411
 6716TIP3   OH244342   0.431   1.026   0.451  0.0632 -0.1628  0.3863
 6716TIP3    H144343   0.467   0.946   0.413  0.3430 -0.7365  1.8190
 6716TIP3    H244344   0.473   1.034   0.537  0.0884  1.5574  0.2662
 6717TIP3   OH244345   3.870   2.284   2.802 -0.4651 -0.1654  0.4015
 6717TIP3    H144346   3.835   2.309   2.887 -0.0147 -0.2347  0.6087
 6717TIP3    H244347   3.911   2.199   2.817  0.5328  0.2972  0.3532
 6718TIP3   OH244348   0.237   6.894   2.671 -0.0951 -0.3988  0.0440
 6718TIP3    H144349   0.238   6.987   2.651  1.7160 -0.6418 -1.2251
 6718TIP3    H244350   0.157   6.881   2.722  0.6192  2.2146  2.0671
 6719TIP3   OH244351   1.275   7.338   1.733 -0.0845  0.1629 -0.0869
 6719TIP3    H144352   1.226   7.346   1.815 -2.7074 -0.9575 -1.4483
 6719TIP3    H244353   1.314   7.251   1.737  1.7518  0.9639  0.8881
 6720TIP3   OH244354   0.660   0.735   1.710  0.0112  0.1920 -0.7953
 6720TIP3    H144355   0.588   0.776   1.662 -1.6087 -1.2929  0.2442
 6720TIP3    H244356   0.729   0.724   1.645 -0.2197  2.6409 -1.5809
 6721TIP3   OH244357   0.485   3.819   3.632  0.3353 -0.0965  0.3656
 6721TIP3    H144358   0.532   3.737   3.645  1.6631  0.1031 -2.4065
 6721TIP3    H244359   0.533   3.864   3.563 -1.7183  1.9494  0.1180
 6722TIP3   OH244360   0.985   7.449   1.712 -0.5850 -0.4061 -0.5376
 6722TIP3    H144361   1.068   7.418   1.675 -0.6642 -0.5410 -0.5995
 6722TIP3    H244362   0.924   7.377   1.700 -0.8910 -0.0568 -1.1076
 6723TIP3   OH244363   7.207   2.848   1.471 -0.1523 -0.4234  0.3742
 6723TIP3    H144364   7.120   2.850   1.432 -0.3972  1.7376  0.8710
 6723TIP3    H244365   7.246   2.767   1.439 -1.6125 -0.4732 -1.4638
 6724TIP3   OH244366   6.398   3.261   1.601 -0.3908  0.2866 -0.1808
 6724TIP3    H144367   6.431   3.346   1.631 -1.7389  1.0501 -0.7435
 6724TIP3    H244368   6.359   3.280   1.516 -0.6493 -0.9303 -0.3480
 6725TIP3   OH244369   6.957   3.790   1.875  0.5527 -0.0691  0.0273
 6725TIP3    H144370   6.870   3.766   1.843  0.2920 -0.6042  1.0686
 6725TIP3    H244371   7.008   3.709   1.872  0.8986  0.1557 -0.2151
 6726TIP3   OH244372   6.382   6.497   3.040 -0.1768  0.1421 -0.0370
 6726TIP3    H144373   6.445   6.534   3.102 -0.4286  1.2616 -0.4294
 6726TIP3    H244374   6.436   6.460   2.970  0.0709 -0.1414  0.2972
 6727TIP3   OH244375   3.004   7.660   1.768  0.4141  0.0730 -0.3766
 6727TIP3    H144376   2.998   7.755   1.767  1.8971  0.1962 -1.0115
 6727TIP3    H244377   3.040   7.638   1.682 -0.3515 -1.1083 -0.4173
 6728TIP3   OH244378   0.688   4.334   4.046  0.2604 -0.2637 -0.5057
 6728TIP3    H144379   0.685   4.430   4.044  0.2196 -0.2440  0.3859
 6728TIP3    H244380   0.770   4.312   4.001  1.7128  0.3182  1.6972
 6729TIP3   OH244381   2.128   2.778   3.608 -0.7680  0.4286 -0.1701
 6729TIP3    H144382   2.118   2.791   3.702  0.2964 -0.6257  0.1231
 6729TIP3    H244383   2.190   2.846   3.581  0.4294 -0.4458  0.2834
 6730TIP3   OH244384   3.124   2.964   0.419  0.2397  0.2226  0.2540
 6730TIP3    H144385   3.098   3.028   0.352  0.4072 -0.2507 -0.2694
 6730TIP3    H244386   3.051   2.964   0.481  0.5912  1.5065  0.6995
 6731TIP3   OH244387   1.269   6.348   1.463  0.3641  0.2627 -0.0730
 6731TIP3    H144388   1.190   6.320   1.510  1.3286 -0.7216  1.0440
 6731TIP3    H244389   1.324   6.269   1.461  1.2772  0.9048 -0.9106
 6732TIP3   OH244390   4.115   6.110   1.777 -0.3919  0.5629 -0.6649
 6732TIP3    H144391   4.128   6.192   1.729  0.9536  0.0831 -1.1731
 6732TIP3    H244392   4.124   6.135   1.869 -0.1501  1.0263 -0.8093
 6733TIP3   OH244393   2.022   5.286   0.659 -0.0643  0.1517  0.3448
 6733TIP3    H144394   2.019   5.367   0.709 -0.6877 -0.9225  2.1708
 6733TIP3    H244395   1.931   5.255   0.657  0.0839 -0.2568 -0.7581
 6734TIP3   OH244396   1.594   0.053   1.046 -0.2536  0.1985 -0.0021
 6734TIP3    H144397   1.581   0.111   1.121 -2.3379  0.6416 -0.6284
 6734TIP3    H244398   1.621   0.111   0.975 -1.0567  0.2274 -0.2945
 6735TIP3   OH244399   1.622   1.091   0.699 -0.3665  0.3000  0.6196
 6735TIP3    H144400   1.708   1.126   0.723  0.1977 -0.3717 -0.3429
 6735TIP3    H244401   1.568   1.168   0.683  1.5581  0.9842 -4.0352
 6736TIP3   OH244402   0.472   5.094   1.224  0.2520  0.2088 -0.1354
 6736TIP3    H144403   0.477   5.175   1.276  1.3383  0.4658 -0.6026
 6736TIP3    H244404   0.550   5.097   1.169  0.2316 -1.0977 -0.2637
 6737TIP3   OH244405   4.394   7.569   2.160 -0.1416  0.0805  0.2802
 6737TIP3    H144406   4.315   7.515   2.164  0.1248 -0.3092  0.3357
 6737TIP3    H244407   4.465   7.507   2.145  0.3261  0.2828  1.5553
 6738TIP3   OH244408   7.679   4.825   2.243 -0.0075 -0.0891 -0.2081
 6738TIP3    H144409   7.646   4.893   2.301  1.1721  0.5175 -0.2207
 6738TIP3    H244410   7.706   4.872   2.164  0.3414 -0.6342 -0.4186
 6739TIP3   OH244411   3.023   7.450   2.177 -0.4009  0.2181 -0.0695
 6739TIP3    H144412   3.079   7.400   2.236 -1.3926 -1.1775 -0.2508
 6739TIP3    H244413   3.083   7.487   2.112  0.2997 -1.3931 -0.3771
 6740TIP3   OH244414   2.048   4.004   0.541 -0.1493  0.2927  0.1481
 6740TIP3    H144415   1.983   3.935   0.552  0.8743 -0.8763 -0.7327
 6740TIP3    H244416   2.132   3.957   0.538  0.4296  1.3141 -2.7168
 6741TIP3   OH244417   0.927   7.012   0.818 -0.3197 -1.0699  0.0543
 6741TIP3    H144418   0.869   7.081   0.850  1.4054  0.2871  0.4073
 6741TIP3    H244419   0.896   6.994   0.729  1.3205  2.8455 -1.5496
 6742TIP3   OH244420   1.098   1.723   2.607 -0.4551  0.6606  0.3805
 6742TIP3    H144421   1.185   1.684   2.605 -0.4708  0.6485 -0.9712
 6742TIP3    H244422   1.044   1.665   2.552 -0.3168  2.8410 -2.2921
 6743TIP3   OH244423   1.422   5.986   0.496 -0.5641 -0.6730  0.2792
 6743TIP3    H144424   1.453   6.042   0.567 -0.0309  1.1575 -1.3196
 6743TIP3    H244425   1.496   5.980   0.436 -2.0369  0.6512 -1.7651
 6744TIP3   OH244426   3.639   5.403   1.987  0.2087  0.4336 -0.5290
 6744TIP3    H144427   3.551   5.425   1.956  0.4120  1.1050 -0.6508
 6744TIP3    H244428   3.696   5.422   1.913  0.7324  2.3152  0.2805
 6745TIP3   OH244429   2.749   1.928   1.567  0.3081 -0.2240  0.0252
 6745TIP3    H144430   2.771   1.967   1.651 -0.6391  0.8513 -0.2130
 6745TIP3    H244431   2.834   1.913   1.525  0.7361  0.3979  0.6462
 6746TIP3   OH244432   0.478   1.512   1.816  0.2420  0.2590 -0.3727
 6746TIP3    H144433   0.530   1.437   1.845  0.4243 -0.1670 -1.7241
 6746TIP3    H244434   0.491   1.515   1.722 -2.7987 -0.3904 -0.9337
 6747TIP3   OH244435   6.418   5.216   0.860  0.3730  0.3606  0.2559
 6747TIP3    H144436   6.509   5.188   0.860  0.3465  0.2583  0.8406
 6747TIP3    H244437   6.382   5.184   0.777  1.0574  1.0338 -0.3113
 6748TIP3   OH244438   0.035   1.720   0.917  0.1269 -0.2317 -0.1435
 6748TIP3    H144439   0.115   1.704   0.966 -0.3060  0.4678  0.8134
 6748TIP3    H244440   0.042   1.663   0.840  0.7304 -1.4854  0.8165
 6749TIP3   OH244441   6.868   7.432   1.865 -0.2941 -0.1586 -0.2731
 6749TIP3    H144442   6.822   7.510   1.832  0.7174  0.4138 -0.3568
 6749TIP3    H244443   6.873   7.445   1.959 -0.1418 -0.1426 -0.2842
 6750TIP3   OH244444   2.227   2.452   1.240  0.1443 -0.0426  0.1888
 6750TIP3    H144445   2.234   2.545   1.219  1.2794 -0.0272  0.5992
 6750TIP3    H244446   2.133   2.436   1.247 -0.0400  1.2805  1.0181
 6751TIP3   OH244447   0.178   4.350   3.636 -0.5048  0.5037 -0.2978
 6751TIP3    H144448   0.091   4.384   3.658 -0.2232  1.4430 -0.6037
 6751TIP3    H244449   0.236   4.425   3.644 -0.0508  0.3955 -2.1329
 6752TIP3   OH244450   3.056   7.594   1.503  0.7478 -0.7984  0.0249
 6752TIP3    H144451   2.975   7.620   1.460 -0.3126  0.1682  2.4194
 6752TIP3    H244452   3.047   7.499   1.516 -0.0885 -0.6743  0.4144
 6753TIP3   OH244453   2.319   1.320   0.583  0.5905 -0.2038  0.5402
 6753TIP3    H144454   2.412   1.302   0.599  0.3003 -1.8471  0.5650
 6753TIP3    H244455   2.281   1.328   0.670  0.5338 -0.6238  0.5593
 6754TIP3   OH244456   1.041   6.616   2.930 -0.1094 -0.3463  0.4442
 6754TIP3    H144457   1.104   6.544   2.918  0.6711  0.6193 -1.8824
 6754TIP3    H244458   1.092   6.686   2.971  0.2398  0.2281 -0.9066
 6755TIP3   OH244459   6.496   1.569   2.145 -0.8986  0.1297  0.0564
 6755TIP3    H144460   6.402   1.584   2.136 -0.6146  1.0808 -1.6975
 6755TIP3    H244461   6.516   1.504   2.078 -0.3037 -0.1906  0.5262
 6756TIP3   OH244462   7.321   6.998   1.100  0.2130 -0.2605 -0.1424
 6756TIP3    H144463   7.393   7.055   1.127 -1.7797  2.7680 -0.6439
 6756TIP3    H244464   7.329   6.993   1.005 -0.0480 -0.1567 -0.1707
 6757TIP3   OH244465   6.935   2.565   2.775  0.1082 -0.4585 -0.1753
 6757TIP3    H144466   6.974   2.489   2.819 -0.1549 -0.9980 -0.8516
 6757TIP3    H244467   6.862   2.591   2.832  1.3993  0.5541  1.0981
 6758TIP3   OH244468   6.964   2.534   1.756  0.0774 -0.3480 -0.4139
 6758TIP3    H144469   6.997   2.498   1.673 -1.1478 -0.9943 -0.6579
 6758TIP3    H244470   6.879   2.572   1.733 -1.4857 -2.7338  0.9249
 6759TIP3   OH244471   0.281   5.599   2.471 -0.1999  0.0143  0.6030
 6759TIP3    H144472   0.280   5.681   2.421 -1.3237 -1.1847 -1.4642
 6759TIP3    H244473   0.374   5.586   2.493  0.3426  0.6969 -1.0608
 6760TIP3   OH244474   0.973   4.462   1.280 -0.6910 -0.2851  0.1062
 6760TIP3    H144475   1.005   4.528   1.218 -0.1300  1.0789  1.7605
 6760TIP3    H244476   1.043   4.398   1.286 -0.0201  0.4699  0.5579
 6761TIP3   OH244477   4.658   7.565   1.569 -0.2094 -0.0506  0.5724
 6761TIP3    H144478   4.598   7.496   1.542  0.5830 -0.1988 -0.9249
 6761TIP3    H244479   4.642   7.636   1.507 -0.4828  0.8500  1.6332
 6762TIP3   OH244480   0.945   7.400   2.778  0.2623 -0.6845 -0.6027
 6762TIP3    H144481   0.901   7.421   2.860  0.8449 -0.6096 -0.3086
 6762TIP3    H244482   1.033   7.372   2.803  1.5156  2.2172 -1.3487
 6763TIP3   OH244483   0.044   3.510   3.188 -0.4702  0.2379 -0.2118
 6763TIP3    H144484   0.095   3.438   3.225  0.8098  0.5680 -1.2791
 6763TIP3    H244485  -0.039   3.470   3.164 -0.3627 -0.5354  0.6223
 6764TIP3   OH244486   2.042   2.919   2.712 -0.0825  0.1650  0.4239
 6764TIP3    H144487   2.074   2.831   2.732  2.2405  0.5977 -0.9322
 6764TIP3    H244488   1.963   2.929   2.764  0.1482 -2.3435  1.3834
 6765TIP3   OH244489   7.431   3.909   3.167 -0.1420  0.2432  0.1527
 6765TIP3    H144490   7.444   3.930   3.074 -0.0857  0.6943  0.2630
 6765TIP3    H244491   7.396   3.820   3.166  2.0379 -0.6672 -0.1850
 6766TIP3   OH244492   7.655   2.879   1.050  0.5428  0.0312  0.3937
 6766TIP3    H144493   7.730   2.908   0.998 -0.3731  0.0944 -0.9624
 6766TIP3    H244494   7.691   2.856   1.135  1.8346  1.8564  0.4000
 6767TIP3   OH244495   5.420   4.782   2.279  0.0526 -0.4660 -0.3717
 6767TIP3    H144496   5.402   4.703   2.228  1.6462 -0.1197 -1.5831
 6767TIP3    H244497   5.411   4.853   2.216  0.5547  0.1179  0.2052
 6768TIP3   OH244498   0.231   0.273   3.175  1.1542  0.2165 -0.0273
 6768TIP3    H144499   0.276   0.215   3.236 -0.9585 -0.5482  0.8788
 6768TIP3    H244500   0.175   0.328   3.231  1.6654  1.8262 -1.0241
 6769TIP3   OH244501   4.384   5.182   2.350  0.2263 -0.3856  0.0974
 6769TIP3    H144502   4.426   5.105   2.388  0.0813 -0.8834 -0.7474
 6769TIP3    H244503   4.353   5.232   2.426  1.8727 -0.2565  0.7461
 6770TIP3   OH244504   6.246   1.440   0.489 -0.1793  0.0138 -0.2140
 6770TIP3    H144505   6.262   1.518   0.435  1.3375 -0.3698 -0.3823
 6770TIP3    H244506   6.320   1.437   0.549 -0.1193 -1.3607 -0.3053
 6771TIP3   OH244507   4.544   2.214   2.385 -0.0829 -0.2521  0.1863
 6771TIP3    H144508   4.549   2.307   2.409 -2.3160 -0.4393  1.6834
 6771TIP3    H244509   4.629   2.178   2.410  0.2353  1.0656  1.0914
 6772TIP3   OH244510   1.630   1.363   2.362  0.4942  0.3874 -0.1350
 6772TIP3    H144511   1.634   1.293   2.297  2.5717  1.1329 -0.8897
 6772TIP3    H244512   1.564   1.334   2.425 -1.9110 -0.2214 -2.7068
 6773TIP3   OH244513   2.366   4.382   1.200  0.0822 -0.2419 -0.2041
 6773TIP3    H144514   2.275   4.411   1.210  0.1355  0.0461 -0.5351
 6773TIP3    H244515   2.391   4.412   1.113  0.4816 -0.3572 -0.1300
 6774TIP3   OH244516   6.239   6.570   1.387  0.4721 -0.0317 -0.0082
 6774TIP3    H144517   6.211   6.650   1.342  2.0094 -0.1448 -1.2944
 6774TIP3    H244518   6.241   6.504   1.318  0.7013 -0.7984  0.7180
 6775TIP3   OH244519   5.928   0.092   3.137  0.7141  0.1917 -0.6856
 6775TIP3    H144520   5.916   0.014   3.191  0.4886  0.3349 -0.5283
 6775TIP3    H244521   6.022   0.112   3.144  0.5229  0.7623  0.4194
 6776TIP3   OH244522   3.038   2.875   1.243 -0.4048  0.2883 -0.1642
 6776TIP3    H144523   3.085   2.957   1.228 -0.5450  0.3306 -0.3690
 6776TIP3    H244524   3.105   2.807   1.234 -0.7666  0.1720 -2.6363
 6777TIP3   OH244525   5.734   2.085   2.284  0.1664 -0.3498  0.0374
 6777TIP3    H144526   5.821   2.052   2.303  0.0649 -0.8910 -0.4037
 6777TIP3    H244527   5.737   2.110   2.191 -0.5429 -1.7342 -0.3952
 6778TIP3   OH244528   5.523   1.640   1.075  0.2165  0.5172 -0.1239
 6778TIP3    H144529   5.476   1.630   1.158  0.9966 -0.7398  0.2026
 6778TIP3    H244530   5.460   1.617   1.008 -0.0333  0.1973  0.2159
 6779TIP3   OH244531   1.160   6.564   2.158 -0.0535  0.4540  0.1515
 6779TIP3    H144532   1.132   6.622   2.088 -0.3950  0.4603  0.2911
 6779TIP3    H244533   1.165   6.478   2.118 -2.0573  0.1125  0.5414
 6780TIP3   OH244534   7.021   0.858   2.059  0.2553 -0.3420  0.0020
 6780TIP3    H144535   6.940   0.833   2.103  0.2899  0.8729  0.7768
 6780TIP3    H244536   7.090   0.820   2.114  0.2518 -0.4567 -0.0708
 6781TIP3   OH244537   3.024   5.911   2.158  0.6251  0.1716 -0.4029
 6781TIP3    H144538   2.973   5.939   2.082  0.1904  0.7234  0.0771
 6781TIP3    H244539   3.073   5.835   2.128  0.3992  0.3381 -1.2105
 6782TIP3   OH244540   3.740   5.716   1.253  0.0102  0.2132 -0.3587
 6782TIP3    H144541   3.774   5.649   1.194 -1.2795 -0.9141  0.1346
 6782TIP3    H244542   3.786   5.796   1.227  0.9569 -0.6702 -1.5232
 6783TIP3   OH244543   2.345   3.889   3.038  0.0539  0.2314  0.8729
 6783TIP3    H144544   2.355   3.900   3.132  0.7315  0.8927  0.7335
 6783TIP3    H244545   2.308   3.801   3.027 -0.2475  0.2435  1.7601
 6784TIP3   OH244546   3.104   5.582   1.207 -0.2074 -0.1216 -0.3533
 6784TIP3    H144547   3.194   5.559   1.230 -1.1150 -1.9410  1.6890
 6784TIP3    H244548   3.068   5.621   1.286 -1.1431  0.9378 -1.2710
 6785TIP3   OH244549   6.972   1.374   2.192 -0.0890  0.5203 -0.5001
 6785TIP3    H144550   7.005   1.401   2.278  2.7347 -1.4401 -0.8460
 6785TIP3    H244551   6.940   1.455   2.152  0.3637  1.8177  1.6207
 6786TIP3   OH244552   3.687   4.300   2.276 -0.0852  0.2293 -0.5070
 6786TIP3    H144553   3.607   4.302   2.223  0.1846  0.8427 -0.9037
 6786TIP3    H244554   3.659   4.327   2.364 -0.2206  0.9917 -0.7794
 6787TIP3   OH244555   6.719   6.285   3.106  0.2946  0.0985 -0.1169
 6787TIP3    H144556   6.732   6.357   3.167 -0.8624  0.7777 -0.6346
 6787TIP3    H244557   6.670   6.220   3.157  1.6424 -0.4963  0.4544
 6788TIP3   OH244558   1.502   3.318   2.273  0.4980 -0.0337 -0.5045
 6788TIP3    H144559   1.452   3.244   2.236  2.6947 -0.7731 -2.2300
 6788TIP3    H244560   1.508   3.381   2.201  2.3400 -0.1614 -0.5149
 6789TIP3   OH244561   5.394   5.557   1.827  0.2085  0.1682  0.4179
 6789TIP3    H144562   5.336   5.625   1.859 -0.9665 -0.5030 -0.2172
 6789TIP3    H244563   5.387   5.486   1.891 -0.3065 -0.2366 -0.0841
 6790TIP3   OH244564   2.571   5.431   1.204 -0.0018 -0.4192  0.5148
 6790TIP3    H144565   2.516   5.353   1.193 -0.9550 -0.0133  2.0119
 6790TIP3    H244566   2.658   5.404   1.176 -0.4550 -1.8249  0.3987
 6791TIP3   OH244567   0.408   5.128   0.636 -0.1785 -0.5402 -0.3273
 6791TIP3    H144568   0.413   5.193   0.566  1.1425  0.7310  0.9015
 6791TIP3    H244569   0.314   5.111   0.646 -0.5910  1.4687 -0.4364
 6792TIP3   OH244570   2.860   6.557   3.129  0.2686  0.0694  0.2767
 6792TIP3    H144571   2.908   6.477   3.108 -0.3960 -0.1539 -0.3950
 6792TIP3    H244572   2.768   6.534   3.118  0.0329  0.7274  0.7830
 6793TIP3   OH244573   6.513   0.689   2.899 -0.2635 -0.4371  0.3001
 6793TIP3    H144574   6.577   0.621   2.916 -1.0069 -0.7719  2.0576
 6793TIP3    H244575   6.551   0.742   2.829  1.5568 -1.0662  0.7645
 6794TIP3   OH244576   6.949   6.211   2.606  0.1611  0.1830 -0.0750
 6794TIP3    H144577   6.892   6.201   2.683  0.2985  0.2867  0.0407
 6794TIP3    H244578   6.892   6.192   2.532 -0.3150  1.3565 -0.0312
 6795TIP3   OH244579   4.223   6.312   0.723  0.5343  0.6481  0.2090
 6795TIP3    H144580   4.299   6.304   0.781  1.6162  0.4124 -1.1963
 6795TIP3    H244581   4.179   6.391   0.753 -0.2416 -0.6717  2.8039
 6796TIP3   OH244582   4.737   3.826   1.996  0.6714  0.1424  0.5093
 6796TIP3    H144583   4.663   3.817   2.056 -0.2945 -1.8451 -0.8823
 6796TIP3    H244584   4.772   3.737   1.987  1.0416  0.4489 -1.5347
 6797TIP3   OH244585   6.035   4.960   1.869  0.1357  0.3594  0.0592
 6797TIP3    H144586   5.962   4.959   1.932 -1.1644  0.3898 -1.3816
 6797TIP3    H244587   5.992   4.968   1.784  1.8180 -0.2164 -0.8775
 6798TIP3   OH244588   0.137   5.491   1.160 -0.4893 -0.2641  0.6028
 6798TIP3    H144589   0.146   5.532   1.074 -0.1584 -1.7135 -0.0864
 6798TIP3    H244590   0.172   5.555   1.221  3.0447 -0.6677 -0.7285
 6799TIP3   OH244591   6.583   3.402   2.284  0.2243 -0.1490  0.0949
 6799TIP3    H144592   6.647   3.471   2.269  1.2774 -1.3724 -1.3427
 6799TIP3    H244593   6.539   3.428   2.365  1.1948  1.7148  0.0956
 6800TIP3   OH244594   0.056   3.967   1.524 -0.0198 -0.3422  0.3056
 6800TIP3    H144595   0.024   4.021   1.451  0.1898  0.7907  1.0380
 6800TIP3    H244596   0.004   3.995   1.599  0.0989 -1.1741  0.7154
 6801TIP3   OH244597   1.307   7.631   2.234  0.3206 -0.1239 -0.2140
 6801TIP3    H144598   1.392   7.588   2.243  1.0010  1.1129 -0.6069
 6801TIP3    H244599   1.323   7.722   2.257 -0.7198  0.3029 -1.1004
 6802TIP3   OH244600   6.347   5.997   0.803 -0.5256 -0.7270 -0.0707
 6802TIP3    H144601   6.434   6.018   0.768 -1.3685 -0.6078 -2.2661
 6802TIP3    H244602   6.330   5.908   0.773 -0.7196 -1.1726  1.3172
 6803TIP3   OH244603   3.876   0.013   1.265  0.2078  0.1456 -0.4618
 6803TIP3    H144604   3.962   0.006   1.224  0.9646 -0.6714  1.1657
 6803TIP3    H244605   3.850  -0.078   1.281  0.2938  0.4189  1.4733
 6804TIP3   OH244606   1.851   5.664   2.368  0.2125 -0.7580  0.2749
 6804TIP3    H144607   1.793   5.692   2.297  2.8191  0.3706 -1.6037
 6804TIP3    H244608   1.894   5.744   2.397 -0.8146 -1.1827  3.2971
 6805TIP3   OH244609   3.648   5.811   1.899  0.2711 -0.2429 -0.1224
 6805TIP3    H144610   3.730   5.762   1.910  1.4391  1.8352  1.1243
 6805TIP3    H244611   3.593   5.783   1.972  1.1822  0.7016  0.9627
 6806TIP3   OH244612   7.327   0.144   1.887  0.0304 -0.3349 -0.1123
 6806TIP3    H144613   7.254   0.202   1.911 -1.2334 -1.3131 -1.4919
 6806TIP3    H244614   7.381   0.198   1.829  0.4852  0.4169  0.9663
 6807TIP3   OH244615   1.699   0.033   2.490 -0.1832  0.0618 -0.1388
 6807TIP3    H144616   1.720   0.125   2.478  2.6312 -0.6289 -1.3183
 6807TIP3    H244617   1.747   0.006   2.568 -1.3765 -0.3181  0.4871
 6808TIP3   OH244618   3.864   2.444   1.373 -0.3127  0.0364 -0.2201
 6808TIP3    H144619   3.794   2.381   1.353  0.0319 -0.1456 -0.8801
 6808TIP3    H244620   3.824   2.507   1.432 -1.4389  0.7125 -1.6554
 6809TIP3   OH244621   0.786   4.063   0.500 -0.0345 -0.0904 -0.1998
 6809TIP3    H144622   0.768   4.157   0.496  1.3711  0.3040  1.3715
 6809TIP3    H244623   0.700   4.022   0.497 -0.9780  1.4260  2.5491
 6810TIP3   OH244624   4.954   0.478   3.343 -0.6006 -0.1873 -0.2054
 6810TIP3    H144625   4.980   0.388   3.324 -2.2530 -0.6837 -0.2772
 6810TIP3    H244626   4.936   0.516   3.257 -0.1945  0.1425 -0.1522
 6811TIP3   OH244627   1.649   6.018   1.914  0.2974 -0.2517  0.2012
 6811TIP3    H144628   1.633   6.110   1.932  0.1758  0.1107 -1.5463
 6811TIP3    H244629   1.575   5.972   1.953 -0.4775  0.5692 -0.2768
 6812TIP3   OH244630   3.331   3.399   3.296 -0.7437 -0.1033  1.1321
 6812TIP3    H144631   3.386   3.322   3.310 -0.5070  0.2019  1.9644
 6812TIP3    H244632   3.241   3.365   3.296 -0.6314 -0.4020  1.3013
 6813TIP3   OH244633   1.969   2.423   1.503  0.0241 -0.0061  0.3100
 6813TIP3    H144634   2.051   2.471   1.510 -0.9070  1.6458  0.2038
 6813TIP3    H244635   1.906   2.476   1.551 -1.7322  0.5104 -2.3873
 6814TIP3   OH244636   6.448   3.462   1.036  0.6443 -0.1327 -0.0495
 6814TIP3    H144637   6.522   3.403   1.020  1.2222  0.5796 -0.0487
 6814TIP3    H244638   6.468   3.540   0.983  0.2433  0.3478  0.5023
 6815TIP3   OH244639   6.334   5.232   3.158  0.3384 -0.0596 -0.0472
 6815TIP3    H144640   6.357   5.242   3.065  0.4493  0.5701  0.0456
 6815TIP3    H244641   6.416   5.205   3.199  0.0434 -1.3930 -0.2943
 6816TIP3   OH244642   3.776   5.433   1.759 -0.2700 -0.3397  0.1121
 6816TIP3    H144643   3.777   5.525   1.733 -2.2182 -0.1529  0.5751
 6816TIP3    H244644   3.806   5.386   1.681 -0.3181  0.6120 -0.5013
 6817TIP3   OH244645   6.341   3.112   2.403  0.4842  0.0940  0.3850
 6817TIP3    H144646   6.273   3.172   2.372  0.9332 -0.6191 -2.1889
 6817TIP3    H244647   6.357   3.054   2.329  2.0681 -1.4193  1.8360
 6818TIP3   OH244648   2.200   3.094   1.165 -0.2654  0.5827 -0.0011
 6818TIP3    H144649   2.119   3.142   1.180 -0.1014  0.8347  0.0874
 6818TIP3    H244650   2.211   3.040   1.243  0.2696  1.4382  0.5328
 6819TIP3   OH244651   5.192   2.483   1.438  0.0251  0.6309 -0.2269
 6819TIP3    H144652   5.231   2.424   1.373  1.0485 -0.0714  0.9712
 6819TIP3    H244653   5.098   2.475   1.425  0.1862 -0.3786 -0.8654
 6820TIP3   OH244654   4.156   4.660   2.195 -0.4282 -0.0287 -0.3272
 6820TIP3    H144655   4.170   4.585   2.252 -1.2898 -0.1086 -0.2011
 6820TIP3    H244656   4.238   4.708   2.197  0.0313 -0.8161 -0.1858
 6821TIP3   OH244657   3.383   2.690   2.464  0.1979  0.3542 -0.1172
 6821TIP3    H144658   3.353   2.760   2.406  0.2879 -0.3314 -1.0089
 6821TIP3    H244659   3.326   2.616   2.444  1.2461 -0.3697 -0.4532
 6822TIP3   OH244660   1.584   6.975   1.295  0.7039 -0.0372 -0.0011
 6822TIP3    H144661   1.596   6.881   1.308 -0.8790 -0.4087 -1.0345
 6822TIP3    H244662   1.516   6.982   1.229  1.4727  1.8459 -0.6615
 6823TIP3   OH244663   3.599   4.387   1.876  0.0960  0.4038 -0.0662
 6823TIP3    H144664   3.531   4.401   1.811 -1.6047 -1.7540  1.1331
 6823TIP3    H244665   3.555   4.393   1.960  1.8900  1.3053  0.8855
 6824TIP3   OH244666   1.194   2.196   7.686 -0.4416 -0.4297 -0.1178
 6824TIP3    H144667   1.113   2.234   7.720  0.9117  1.1762  1.5065
 6824TIP3    H244668   1.186   2.206   7.591 -2.2259 -0.5549 -0.0230
 6825TIP3   OH244669   5.044   3.208   1.523 -0.0667 -0.1491  0.2776
 6825TIP3    H144670   4.970   3.253   1.564  1.9944  2.2964  1.6141
 6825TIP3    H244671   5.038   3.232   1.431  0.0703  1.5893  0.6929
 6826TIP3   OH244672   2.195   3.631   2.985  0.1332  0.4493 -0.3867
 6826TIP3    H144673   2.271   3.579   2.960 -0.6109 -1.6130  1.3913
 6826TIP3    H244674   2.168   3.596   3.070 -1.1773  2.9527  0.3380
 6827TIP3   OH244675   3.903   0.543   1.358  0.6193  0.0646 -0.0130
 6827TIP3    H144676   3.894   0.537   1.263  0.7229  1.7518 -0.1626
 6827TIP3    H244677   3.966   0.476   1.380  0.1899 -0.7185 -1.0621
 6828TIP3   OH244678   2.486   2.278   2.067  0.0722 -0.5105  0.3021
 6828TIP3    H144679   2.448   2.223   2.136  1.6620  0.8757  2.4042
 6828TIP3    H244680   2.452   2.365   2.083  1.6408  0.1359  0.3128
 6829TIP3   OH244681   4.548   1.294   0.998  0.5060 -0.0848 -0.2774
 6829TIP3    H144682   4.548   1.332   0.910  0.4757 -0.3178 -0.3808
 6829TIP3    H244683   4.641   1.293   1.024  0.7508 -1.6924 -1.0594
 6830TIP3   OH244684   0.169   0.241   1.481 -0.0293  0.2581 -0.0900
 6830TIP3    H144685   0.081   0.233   1.444 -0.9985  0.9497  1.9520
 6830TIP3    H244686   0.158   0.294   1.559  2.0096 -0.6678  0.9072
 6831TIP3   OH244687   6.931   0.743   1.836 -0.4639 -0.0481 -0.0080
 6831TIP3    H144688   7.006   0.727   1.778 -0.2354  1.4553 -0.1656
 6831TIP3    H244689   6.970   0.773   1.918 -0.8487 -0.7020  0.4239
 6832TIP3   OH244690   1.117   5.893   1.905 -0.4409  0.5753 -0.0565
 6832TIP3    H144691   1.053   5.822   1.912 -1.0481  1.2005  0.9127
 6832TIP3    H244692   1.184   5.859   1.845 -0.3072 -1.1272  1.0075
 6833TIP3   OH244693   4.088   0.545   2.654  0.0335  0.5965  0.2062
 6833TIP3    H144694   4.157   0.576   2.714  1.3875 -0.7662 -0.5668
 6833TIP3    H244695   4.037   0.483   2.707 -0.5757  1.5258  0.7483
 6834TIP3   OH244696   3.391   6.430   2.108  0.0469 -0.1388 -0.3697
 6834TIP3    H144697   3.389   6.484   2.029 -2.5716  0.7999  0.2436
 6834TIP3    H244698   3.329   6.360   2.091 -0.3170 -0.1016  0.7235
 6835TIP3   OH244699   4.529   3.206   0.989  0.3043  0.4247 -0.0222
 6835TIP3    H144700   4.511   3.232   1.079  1.7608  1.4684  0.0034
 6835TIP3    H244701   4.506   3.113   0.986 -1.0965  0.7014  1.0251
 6836TIP3   OH244702   4.617   6.959   1.567 -0.0516  0.4653  0.4378
 6836TIP3    H144703   4.589   6.868   1.573  3.2029 -0.6969  0.3991
 6836TIP3    H244704   4.582   6.990   1.484 -0.0332 -1.2790 -0.2720
 6837TIP3   OH244705   5.805   3.168   1.339 -0.3757 -0.3811  0.2525
 6837TIP3    H144706   5.809   3.179   1.434  0.4103 -2.5510  0.5065
 6837TIP3    H244707   5.725   3.119   1.323  0.1222 -1.1150 -0.0647
 6838TIP3   OH244708   7.676   0.847   3.336 -0.1112 -0.7207  0.2177
 6838TIP3    H144709   7.763   0.813   3.318  0.0527 -0.3602  0.3285
 6838TIP3    H244710   7.662   0.915   3.271 -0.5034 -1.1040 -0.1034
 6839TIP3   OH244711   2.717   4.743   1.937 -0.4542 -0.2584  0.0770
 6839TIP3    H144712   2.629   4.768   1.908 -0.3010  0.4388  0.1826
 6839TIP3    H244713   2.702   4.674   2.002 -1.0780  1.1777  1.5571
 6840TIP3   OH244714   3.974   1.458   1.492 -0.0307  0.1706 -0.6696
 6840TIP3    H144715   3.953   1.427   1.404 -0.9931 -2.9957  0.5332
 6840TIP3    H244716   3.895   1.505   1.520  0.0018  0.5672 -1.2347
 6841TIP3   OH244717   0.313   4.837   2.144  0.2750 -0.2684 -0.3355
 6841TIP3    H144718   0.256   4.851   2.068 -0.2442 -1.2073 -0.1385
 6841TIP3    H244719   0.280   4.897   2.210 -0.9221 -1.2418 -0.0115
 6842TIP3   OH244720   4.796   3.629   2.308 -0.4575 -0.1654 -0.0849
 6842TIP3    H144721   4.845   3.595   2.233  1.1730  1.6161  0.1149
 6842TIP3    H244722   4.862   3.664   2.367 -1.7933 -0.4328  1.6672
 6843TIP3   OH244723   0.148   5.405   0.431 -0.5255 -0.0479  0.2687
 6843TIP3    H144724   0.083   5.344   0.396  2.0055 -2.1272 -1.2516
 6843TIP3    H244725   0.196   5.354   0.496  0.5477  0.8884  0.2520
 6844TIP3   OH244726   3.843   7.596   1.592 -0.2761  0.0214 -0.0624
 6844TIP3    H144727   3.771   7.651   1.624 -0.8457 -0.7001 -0.0757
 6844TIP3    H244728   3.867   7.635   1.508 -0.4127  0.4737  0.1023
 6845TIP3   OH244729   7.410   3.488   2.125 -0.2289 -0.2225 -0.4123
 6845TIP3    H144730   7.344   3.419   2.121  1.9478 -2.4123 -1.5240
 6845TIP3    H244731   7.413   3.513   2.217 -0.2506 -2.5882  0.3000
 6846TIP3   OH244732   5.010   1.154   1.537  0.0958 -0.1571 -0.1905
 6846TIP3    H144733   4.941   1.220   1.528  1.3382  1.7394  2.5903
 6846TIP3    H244734   4.965   1.077   1.572 -0.8647  0.5246  0.1266
 6847TIP3   OH244735   3.934   3.795   2.888  0.1942 -0.0562 -0.2103
 6847TIP3    H144736   4.014   3.749   2.861  0.6132 -0.7913  2.0555
 6847TIP3    H244737   3.949   3.817   2.980 -1.6841  1.0018 -0.1093
 6848TIP3   OH244738   7.028   5.432   2.111 -0.3770  0.5632 -0.0978
 6848TIP3    H144739   7.006   5.475   2.029  2.7492  2.6208 -0.0341
 6848TIP3    H244740   7.036   5.504   2.174  3.1019 -0.1552  0.4933
 6849TIP3   OH244741   3.135   1.129   1.249 -0.5732  0.4640  0.0214
 6849TIP3    H144742   3.194   1.065   1.287 -2.9283 -1.2898  0.9305
 6849TIP3    H244743   3.132   1.201   1.312  1.4114  1.1388 -0.5930
 6850TIP3   OH244744   2.583   6.220   2.528 -0.0481 -0.1939 -0.1220
 6850TIP3    H144745   2.563   6.243   2.619 -0.1053 -0.7610  0.0115
 6850TIP3    H244746   2.652   6.155   2.534 -0.5786 -0.8014 -0.4511
 6851TIP3   OH244747   1.736   1.626   2.363 -0.0621  0.0416 -0.4173
 6851TIP3    H144748   1.674   1.555   2.380 -1.9423  1.9617  1.3004
 6851TIP3    H244749   1.732   1.638   2.268 -0.3759 -1.5112 -0.6326
 6852TIP3   OH244750   1.998   5.150   2.948 -0.1905 -0.6688 -0.1934
 6852TIP3    H144751   1.914   5.130   2.906 -0.0465  0.4826 -1.0900
 6852TIP3    H244752   1.973   5.192   3.031 -0.4866 -4.0639  1.6082
 6853TIP3   OH244753   5.008   1.456   0.587 -0.2681 -0.0206 -0.6313
 6853TIP3    H144754   4.979   1.487   0.501  0.1054  1.0950 -0.3680
 6853TIP3    H244755   5.041   1.535   0.631  0.5260 -0.7647  0.1373
 6854TIP3   OH244756   2.309   4.701   0.730 -0.4025  0.0243 -0.3951
 6854TIP3    H144757   2.256   4.779   0.745  0.3250  0.3503  0.5454
 6854TIP3    H244758   2.245   4.633   0.706 -1.2115  0.4886  0.4046
 6855TIP3   OH244759   2.052   4.606   2.198  0.0655 -0.1360  0.3685
 6855TIP3    H144760   2.027   4.670   2.264  1.5051  0.9459 -0.0917
 6855TIP3    H244761   1.974   4.595   2.144 -0.2651  1.0699  0.5863
 6856TIP3   OH244762   5.367   2.302   0.865  0.0705 -0.1225 -0.0917
 6856TIP3    H144763   5.316   2.333   0.790  3.1073  0.8605 -1.9122
 6856TIP3    H244764   5.407   2.221   0.834 -1.1855 -1.5133  1.7175
 6857TIP3   OH244765   6.122   5.066   2.145  0.3552  0.0144 -0.1153
 6857TIP3    H144766   6.063   5.117   2.201  1.7140  1.0426  0.4370
 6857TIP3    H244767   6.114   5.106   2.059  0.7798  0.6306  0.1255
 6858TIP3   OH244768   4.617   6.786   2.393  0.2504 -0.1918  0.3121
 6858TIP3    H144769   4.687   6.721   2.387  1.0721  0.6898  0.0495
 6858TIP3    H244770   4.650   6.862   2.345 -0.8564  0.2801  0.2584
 6859TIP3   OH244771   1.561   6.577   1.981 -0.2755 -0.1556 -0.1473
 6859TIP3    H144772   1.507   6.502   1.954  0.1921 -0.8489  0.7738
 6859TIP3    H244773   1.639   6.537   2.020  0.4184  0.8276 -0.4939
 6860TIP3   OH244774   5.276   2.387   2.137 -0.6908 -0.1748  0.2332
 6860TIP3    H144775   5.229   2.443   2.199  0.2872  1.0619 -0.1115
 6860TIP3    H244776   5.266   2.431   2.052 -0.5661 -0.9400 -0.1907
 6861TIP3   OH244777   4.975   5.392   2.363  0.2683  0.2389  0.3633
 6861TIP3    H144778   5.021   5.309   2.360  1.8848  1.0697  1.0163
 6861TIP3    H244779   4.943   5.398   2.453 -1.0104 -0.2493 -0.0372
 6862TIP3   OH244780   3.537   1.255   2.328 -0.4442  0.3892 -1.1052
 6862TIP3    H144781   3.544   1.175   2.381 -0.7521  0.7003 -0.5944
 6862TIP3    H244782   3.449   1.288   2.345  0.5670  2.3456  0.8645
 6863TIP3   OH244783   4.958   6.320   1.440 -0.5516 -0.0903  0.0123
 6863TIP3    H144784   4.926   6.409   1.459 -1.4393 -0.4052  0.0401
 6863TIP3    H244785   4.975   6.321   1.346  2.3623  1.0023  0.4547
 6864TIP3   OH244786   7.187   5.966   1.260  0.1838 -0.0336 -0.6533
 6864TIP3    H144787   7.137   6.004   1.187  1.3127 -0.1656 -1.5100
 6864TIP3    H244788   7.174   6.028   1.332 -2.5009 -0.8329 -0.3238
 6865TIP3   OH244789   3.841   6.273   1.341  0.2889  0.2697 -0.3975
 6865TIP3    H144790   3.935   6.284   1.351  0.2169  0.1416  0.5012
 6865TIP3    H244791   3.813   6.230   1.422 -0.3124 -1.1244 -1.3007
 6866TIP3   OH244792   6.768   6.842   2.235  0.3583  0.1188  0.1646
 6866TIP3    H144793   6.825   6.912   2.202  0.8947 -0.7321 -0.7605
 6866TIP3    H244794   6.737   6.875   2.319  0.8143  1.3551 -0.1244
 6867TIP3   OH244795   2.295   4.414   3.043  0.4813  0.2582  0.4643
 6867TIP3    H144796   2.240   4.475   3.091  0.7782  0.8647  0.0481
 6867TIP3    H244797   2.348   4.469   2.985  0.2799 -0.4283 -0.4085
 6868TIP3   OH244798   7.055   5.393   1.127 -0.2081  0.0031  0.0583
 6868TIP3    H144799   7.119   5.354   1.185 -0.8786  0.0779  0.8626
 6868TIP3    H244800   7.091   5.380   1.039  0.6390 -0.4263  0.4624
 6869TIP3   OH244801   0.562   2.549   1.356 -0.9322  0.2560 -0.6306
 6869TIP3    H144802   0.529   2.461   1.339 -1.3346  0.7600 -2.8954
 6869TIP3    H244803   0.483   2.602   1.369 -0.7025  0.3504  0.4992
 6870TIP3   OH244804   3.930   4.099   0.829 -0.3746  0.4057 -0.3454
 6870TIP3    H144805   4.025   4.096   0.830 -0.3411  0.9838 -0.8693
 6870TIP3    H244806   3.903   4.064   0.914  0.2587 -0.7953 -0.6140
 6871TIP3   OH244807   2.254   3.687   1.211  0.1520 -0.1309 -0.2785
 6871TIP3    H144808   2.258   3.650   1.299  1.5667 -0.0589 -0.2919
 6871TIP3    H244809   2.164   3.671   1.182 -1.1088  1.9165  2.0583
 6872TIP3   OH244810   7.497   6.047   3.182  0.1213  0.9008 -0.6976
 6872TIP3    H144811   7.453   6.131   3.185  0.1708  0.8912  0.4699
 6872TIP3    H244812   7.559   6.049   3.254 -0.7712 -0.6196  0.1570
 6873TIP3   OH244813   4.004   2.878   0.926  0.4515 -0.5876  0.2999
 6873TIP3    H144814   4.009   2.799   0.980 -1.6797 -1.4580 -0.6550
 6873TIP3    H244815   3.953   2.851   0.850 -0.0118  1.6199 -0.2244
 6874TIP3   OH244816   3.726   1.961   2.406  0.1037  0.4711 -0.2642
 6874TIP3    H144817   3.731   2.022   2.333 -0.3825  1.3805  0.4320
 6874TIP3    H244818   3.638   1.924   2.401 -0.1049  0.9019  0.1317
 6875TIP3   OH244819   2.501   4.582   2.913  0.0784 -0.2050  0.2162
 6875TIP3    H144820   2.523   4.616   3.000  0.4646  0.0083  0.0396
 6875TIP3    H244821   2.413   4.616   2.895  0.0997 -0.0426  0.4190
 6876TIP3   OH244822   5.566   4.952   1.553  0.5019  0.1131 -0.0767
 6876TIP3    H144823   5.479   4.934   1.517  0.6044  1.7330 -1.2871
 6876TIP3    H244824   5.588   5.040   1.519  2.6616 -0.3059  0.0736
 6877TIP3   OH244825   3.635   3.803   0.942  0.1688  1.1634  0.4556
 6877TIP3    H144826   3.674   3.838   0.862 -0.2069 -1.3090 -0.9025
 6877TIP3    H244827   3.568   3.742   0.912  2.3189 -2.5610  2.4518
 6878TIP3   OH244828   4.605   2.270   2.085 -0.1562  0.0119 -0.0523
 6878TIP3    H144829   4.524   2.233   2.048 -0.1386 -1.0539  0.9061
 6878TIP3    H244830   4.588   2.273   2.179  0.7462  0.2391  0.1057
 6879TIP3   OH244831   5.030   5.491   2.709 -0.2727  0.1044  0.5352
 6879TIP3    H144832   5.029   5.586   2.702 -0.1469  0.2101  1.7100
 6879TIP3    H244833   4.941   5.464   2.684  0.1952  0.3456 -1.5943
 6880TIP3   OH244834   3.892   5.144   2.152 -0.1111  0.2977  0.1347
 6880TIP3    H144835   3.982   5.110   2.158 -0.8881 -1.6889  1.9377
 6880TIP3    H244836   3.876   5.151   2.058  2.0158  1.0223 -0.2391
 6881TIP3   OH244837   2.169   0.280   1.964 -0.1185 -0.2280 -0.6737
 6881TIP3    H144838   2.243   0.301   1.907  2.1258 -1.7442  1.4347
 6881TIP3    H244839   2.124   0.363   1.978  1.7876  0.9531 -1.2680
 6882TIP3   OH244840   1.943   6.203   1.676 -0.5308 -0.1307 -0.1979
 6882TIP3    H144841   1.903   6.196   1.590  1.9994 -0.7565 -1.4154
 6882TIP3    H244842   2.030   6.240   1.659 -1.4603  4.1598  2.5711
 6883TIP3   OH244843   0.135   5.105   0.495 -0.1402  0.1699  0.0730
 6883TIP3    H144844   0.044   5.077   0.494 -0.0014 -0.3024 -1.6285
 6883TIP3    H244845   0.182   5.032   0.535 -0.2809 -0.4171 -0.8032
 6884TIP3   OH244846   6.062   2.829   2.456 -0.4823 -0.4387 -0.5748
 6884TIP3    H144847   6.058   2.816   2.551  2.5049  1.0075 -0.1555
 6884TIP3    H244848   6.058   2.924   2.444  4.3941 -0.0721 -1.3045
 6885TIP3   OH244849   6.739   2.392   2.024 -0.3653 -0.2771 -0.4570
 6885TIP3    H144850   6.755   2.470   1.972  2.2916  1.4992  2.6654
 6885TIP3    H244851   6.788   2.323   1.978  1.4463  1.0821 -0.7131
 6886TIP3   OH244852   5.600   5.479   3.211  0.3071 -0.1230 -0.4173
 6886TIP3    H144853   5.602   5.569   3.181 -2.7948 -0.1008 -0.8857
 6886TIP3    H244854   5.631   5.427   3.136  0.7325  0.4356 -0.6327
 6887TIP3   OH244855   2.872   2.514   1.701 -0.2628 -0.3345 -0.3502
 6887TIP3    H144856   2.946   2.522   1.642 -0.1328  1.4623 -0.0024
 6887TIP3    H244857   2.906   2.541   1.787 -1.1521 -0.0749 -0.0652
 6888TIP3   OH244858   0.415   1.239   1.053 -0.5901  0.1729 -0.4291
 6888TIP3    H144859   0.389   1.177   1.121  0.4693  1.5957  1.3712
 6888TIP3    H244860   0.380   1.202   0.972  0.8353 -3.2597  0.3631
 6889TIP3   OH244861   5.970   0.885   1.435 -0.1997 -0.0222  0.5727
 6889TIP3    H144862   5.910   0.956   1.413  0.1427  0.8017  2.1515
 6889TIP3    H244863   6.049   0.904   1.386 -1.1553 -1.0956 -1.4995
 6890TIP3   OH244864   4.016   0.496   1.722 -0.5571  0.2326  0.6258
 6890TIP3    H144865   4.091   0.499   1.662 -0.5566 -1.2866  0.5157
 6890TIP3    H244866   4.032   0.566   1.784  2.4010 -1.6753  2.2354
 6891TIP3   OH244867   5.761   4.320   1.523 -0.7392 -0.2119  0.2478
 6891TIP3    H144868   5.690   4.256   1.525  0.0325 -1.2399 -2.0211
 6891TIP3    H244869   5.732   4.386   1.460  0.9995 -1.6460 -2.2251
 6892TIP3   OH244870   7.500   5.505   0.634  0.7181 -0.0981  0.5464
 6892TIP3    H144871   7.419   5.457   0.616  0.5839  0.3811 -0.1545
 6892TIP3    H244872   7.559   5.439   0.672  0.3649 -0.6953  0.0785
 6893TIP3   OH244873   4.355   2.437   1.497  0.6955  0.7264  0.4962
 6893TIP3    H144874   4.275   2.390   1.473  1.4916  0.1636 -1.2805
 6893TIP3    H244875   4.326   2.526   1.517 -0.4383  0.3659  0.5074
 6894TIP3   OH244876   3.906   4.169   2.048 -0.1528  0.2983 -0.2779
 6894TIP3    H144877   3.977   4.106   2.050 -2.2977 -2.4056 -1.9090
 6894TIP3    H244878   3.925   4.229   2.120  2.2984 -1.8958  1.0654
 6895TIP3   OH244879   1.454   1.614   0.555 -0.5249 -0.1178  0.2492
 6895TIP3    H144880   1.440   1.682   0.490 -2.2861 -0.9058 -0.2599
 6895TIP3    H244881   1.367   1.598   0.592  0.1627 -0.8261  1.6433
 6896TIP3   OH244882   6.772   6.025   0.770  0.2704  0.4844  0.1850
 6896TIP3    H144883   6.739   5.937   0.751 -1.7137  1.1075  0.5400
 6896TIP3    H244884   6.853   6.009   0.819 -0.1046 -1.1494  0.3480
 6897TIP3   OH244885   0.627   1.470   1.563  0.1053 -0.1027 -0.1752
 6897TIP3    H144886   0.691   1.539   1.545 -0.0945  0.3400  0.7417
 6897TIP3    H244887   0.566   1.474   1.490  1.2073 -0.6450 -1.1563
 6898TIP3   OH244888   5.673   1.391   2.133  0.0849  0.2222  0.0188
 6898TIP3    H144889   5.585   1.426   2.145  0.1099 -0.1462  1.5137
 6898TIP3    H244890   5.725   1.466   2.104 -0.8134  0.3113 -1.4647
 6899TIP3   OH244891   3.569   7.407   2.276  0.1241  0.2869  0.0870
 6899TIP3    H144892   3.522   7.355   2.341  1.1092  0.8488  1.2832
 6899TIP3    H244893   3.526   7.385   2.193 -1.6497  0.1208  0.9961
 6900TIP3   OH244894   6.524   2.625   0.806 -0.2089 -0.4060 -0.1220
 6900TIP3    H144895   6.520   2.720   0.803 -2.3222 -0.3363  2.0110
 6900TIP3    H244896   6.617   2.604   0.803  0.2615  1.5204 -3.1061
 6901TIP3   OH244897   4.557   0.330   1.222  1.0809  0.2342  0.2001
 6901TIP3    H144898   4.574   0.327   1.128  0.7051 -0.9125  0.1612
 6901TIP3    H244899   4.562   0.423   1.244 -0.5427  0.7305 -1.2725
 6902TIP3   OH244900   2.533   1.379   2.533  0.4060 -0.6891 -0.9965
 6902TIP3    H144901   2.498   1.304   2.582  0.1259  0.6190  0.8832
 6902TIP3    H244902   2.461   1.404   2.475  0.5517 -1.9232 -1.7546
 6903TIP3   OH244903   4.689   4.951   2.816 -0.1449 -0.7069  0.3412
 6903TIP3    H144904   4.702   4.876   2.758 -0.0657  1.2027 -2.3017
 6903TIP3    H244905   4.596   4.949   2.837 -0.1517 -1.5209  0.2517
 6904TIP3   OH244906   5.850   3.494   2.035  0.0676 -0.3922  0.2293
 6904TIP3    H144907   5.846   3.588   2.021 -2.4245 -0.3769  0.4850
 6904TIP3    H244908   5.773   3.475   2.089  0.7951 -2.5063  0.6094
 6905TIP3   OH244909   6.501   3.803   2.431 -0.5292  1.1432  0.0364
 6905TIP3    H144910   6.511   3.853   2.351 -0.6456 -1.1661 -1.5298
 6905TIP3    H244911   6.410   3.773   2.431  0.3582 -1.9341 -1.0166
 6906TIP3   OH244912   2.811   7.009   2.259 -0.3426 -0.1942  0.3481
 6906TIP3    H144913   2.852   6.929   2.290  0.0070 -0.0369  0.2937
 6906TIP3    H244914   2.838   7.076   2.322 -2.3795 -0.5158  1.6440
 6907TIP3   OH244915   6.681   3.516   2.705  0.3757 -0.1229  0.5124
 6907TIP3    H144916   6.599   3.545   2.746  0.6717 -1.1097  1.8657
 6907TIP3    H244917   6.749   3.538   2.769  1.4566  2.2670 -1.2942
 6908TIP3   OH244918   2.665   3.394   1.953  0.4283  0.3940 -0.0275
 6908TIP3    H144919   2.676   3.484   1.924 -0.4290  0.1036 -1.3449
 6908TIP3    H244920   2.572   3.375   1.938 -0.2311  0.3252  3.3922
 6909TIP3   OH244921   2.403   4.121   0.992  0.2043 -0.7232 -0.0611
 6909TIP3    H144922   2.416   4.031   1.021  2.1231 -0.7203 -0.7960
 6909TIP3    H244923   2.481   4.168   1.023 -1.5234  1.1433  1.8334
 6910TIP3   OH244924   1.614   1.256   1.932 -0.1169 -0.2322 -0.3113
 6910TIP3    H144925   1.647   1.342   1.903 -2.1163  0.1718 -1.5663
 6910TIP3    H244926   1.576   1.217   1.854 -0.9466 -1.4399  0.6576
 6911TIP3   OH244927   5.945   5.259   0.846  0.1443 -0.6036 -0.3112
 6911TIP3    H144928   5.924   5.196   0.916 -0.4342 -0.2338 -0.1468
 6911TIP3    H244929   6.030   5.295   0.871 -0.7830  0.7512  1.1131
 6912TIP3   OH244930   2.585   2.059   2.612 -0.1565 -0.2302 -0.5831
 6912TIP3    H144931   2.606   2.065   2.519  0.2904  1.9330 -0.3829
 6912TIP3    H244932   2.557   1.968   2.624  2.7665 -1.4818 -2.1905
 6913TIP3   OH244933   6.319   3.014   1.668 -0.0749 -0.3901  0.3035
 6913TIP3    H144934   6.238   3.020   1.617 -0.5297  0.4322  1.1032
 6913TIP3    H244935   6.366   3.094   1.647  0.3287 -0.6584  0.1866
 6914TIP3   OH244936   2.016   6.186   2.794  0.2861  0.0163  0.8576
 6914TIP3    H144937   2.102   6.217   2.768  0.8137 -1.7524  0.3794
 6914TIP3    H244938   2.030   6.144   2.879 -0.3995  0.9037  1.4433
 6915TIP3   OH244939   7.077   7.306   1.223 -0.1774 -0.2140 -0.0820
 6915TIP3    H144940   7.121   7.390   1.239 -0.2465  0.2066 -1.8979
 6915TIP3    H244941   7.122   7.270   1.147  0.0425 -1.9975  0.8456
 6916TIP3   OH244942   4.718   0.474   0.811 -0.2717 -0.2521  0.6692
 6916TIP3    H144943   4.629   0.473   0.776  0.5549 -1.6850 -1.5958
 6916TIP3    H244944   4.732   0.384   0.842  0.5518 -0.1659  0.5552
 6917TIP3   OH244945   5.899   0.768   2.724 -0.0133 -0.3916  0.2362
 6917TIP3    H144946   5.832   0.790   2.789  0.8928 -0.3655  1.1795
 6917TIP3    H244947   5.977   0.750   2.775  1.0035  0.6151 -0.8912
 6918TIP3   OH244948   6.715   1.686   3.321 -0.3427  0.7627  0.0853
 6918TIP3    H144949   6.801   1.721   3.345 -0.1977 -0.0488  0.8170
 6918TIP3    H244950   6.708   1.604   3.371 -1.0394  0.2139 -0.8791
 6919TIP3   OH244951   4.401   0.897   1.377  0.0426 -0.0209 -0.2082
 6919TIP3    H144952   4.457   0.964   1.339 -1.0451  0.5309 -0.8824
 6919TIP3    H244953   4.342   0.872   1.306 -2.1608  1.1528  1.1102
 6920TIP3   OH244954   2.203   4.693   1.206 -0.0564 -0.1118  0.5984
 6920TIP3    H144955   2.176   4.606   1.177 -0.5791  0.7747 -1.8612
 6920TIP3    H244956   2.297   4.684   1.223  0.0135 -1.0541 -0.1589
 6921TIP3   OH244957   5.617   7.397   2.776 -0.0134  0.3590  0.6673
 6921TIP3    H144958   5.549   7.380   2.711  0.0143 -1.7778  1.1215
 6921TIP3    H244959   5.695   7.354   2.742  0.3154  0.2328  1.5324
 6922TIP3   OH244960   4.996   3.274   1.263 -0.5447 -0.1079  0.1032
 6922TIP3    H144961   4.902   3.285   1.250 -0.4489  0.9206  0.2300
 6922TIP3    H244962   5.023   3.215   1.193 -1.3202 -0.6006  0.2078
 6923TIP3   OH244963   3.369   0.222   0.821  0.0020  0.0041  0.0412
 6923TIP3    H144964   3.457   0.225   0.858  0.2330 -1.0717 -0.3845
 6923TIP3    H244965   3.366   0.296   0.760  1.2707 -0.9859 -1.3152
 6924TIP3   OH244966   2.856   1.467   0.690  0.0996  0.0231 -0.1758
 6924TIP3    H144967   2.809   1.459   0.607  0.0467  0.8728 -0.2318
 6924TIP3    H244968   2.811   1.538   0.736  0.0808 -0.4902  0.6137
 6925TIP3   OH244969   4.209   4.073   0.901 -0.0657  0.5646 -0.1283
 6925TIP3    H144970   4.254   4.157   0.888  1.1971 -0.2369 -1.1914
 6925TIP3    H244971   4.271   4.008   0.868 -1.9067 -0.6255 -1.4328
 6926TIP3   OH244972   6.676   7.177   2.854  0.5468 -0.0752  0.0261
 6926TIP3    H144973   6.723   7.100   2.822 -0.2481  0.0858 -1.6440
 6926TIP3    H244974   6.634   7.148   2.935  1.5221 -0.9209  0.2550
 6927TIP3   OH244975   0.415   5.929   1.570  0.1945  0.0555 -0.3887
 6927TIP3    H144976   0.374   5.872   1.505 -1.1376  1.6145 -1.0023
 6927TIP3    H244977   0.365   6.011   1.564  2.2695  1.4309  0.1428
 6928TIP3   OH244978   7.471   3.815   1.749 -0.5138 -0.1319 -0.1465
 6928TIP3    H144979   7.395   3.762   1.771 -0.1742 -1.5230 -2.0607
 6928TIP3    H244980   7.482   3.804   1.654  1.9290  0.1773  0.0229
 6929TIP3   OH244981   0.669   6.250   3.142 -0.0293  0.1396  0.6787
 6929TIP3    H144982   0.751   6.271   3.188 -0.2047  2.3498  0.0877
 6929TIP3    H244983   0.606   6.313   3.176 -1.8739 -2.1808  1.9169
 6930TIP3   OH244984   0.341   3.920   1.510 -0.6147 -0.8103  0.0632
 6930TIP3    H144985   0.346   3.827   1.491 -2.2951 -0.7504 -0.9090
 6930TIP3    H244986   0.251   3.944   1.488  0.0760  1.2589 -0.7187
 6931TIP3   OH244987   4.378   6.447   1.623 -0.2059 -0.5922  0.4554
 6931TIP3    H144988   4.417   6.441   1.536 -1.0673 -0.0519  0.0173
 6931TIP3    H244989   4.441   6.403   1.681  1.1249  0.3596 -0.1971
 6932TIP3   OH244990   3.580   0.052   1.645  0.0320  0.2840 -0.0229
 6932TIP3    H144991   3.576   0.148   1.646 -0.6296  0.3085 -1.8305
 6932TIP3    H244992   3.501   0.025   1.598  0.3248 -1.1486  0.2487
 6933TIP3   OH244993   3.043   3.771   1.055 -0.3867  0.1148 -0.2685
 6933TIP3    H144994   3.130   3.734   1.042  0.4793  1.5787  0.9583
 6933TIP3    H244995   2.985   3.717   1.001  0.6439 -3.3600  1.7874
 6934TIP3   OH244996   2.489   6.342   1.958  0.1265  0.6180 -0.1259
 6934TIP3    H144997   2.538   6.291   1.894  2.4937  1.6484  0.7256
 6934TIP3    H244998   2.474   6.426   1.915 -0.1403  0.5975 -0.0745
 6935TIP3   OH244999   3.472   3.340   2.999 -0.1655  0.2528  0.8460
 6935TIP3    H145000   3.534   3.359   3.070  1.5921  1.9454 -0.9823
 6935TIP3    H245001   3.520   3.281   2.940 -0.2713  1.4786 -0.5349
 6936TIP3   OH245002   3.666   0.816   1.243  0.7322  0.1349  0.0551
 6936TIP3    H145003   3.605   0.887   1.220 -1.6667 -1.5884  0.6516
 6936TIP3    H245004   3.670   0.819   1.339  0.2752 -0.7639  0.1103
 6937TIP3   OH245005   6.207   2.603   0.832  0.5655 -0.3105 -0.0336
 6937TIP3    H145006   6.276   2.624   0.896 -0.8011  0.9440  1.0961
 6937TIP3    H245007   6.196   2.684   0.782 -1.6199  0.3293  1.3373
 6938TIP3   OH245008   1.435   4.178   1.645 -0.2706  0.1869 -0.6382
 6938TIP3    H145009   1.449   4.163   1.738  0.7301  1.6966 -0.5087
 6938TIP3    H245010   1.437   4.274   1.636  1.1172  0.0311 -2.4074
 6939TIP3   OH245011   0.567   5.838   3.206  0.3752 -0.1002 -0.4890
 6939TIP3    H145012   0.554   5.796   3.291  0.3895  1.7867  0.4813
 6939TIP3    H245013   0.549   5.930   3.221  0.4360  0.2951 -2.5354
 6940TIP3   OH245014   3.221   3.359   2.302 -0.3542 -0.2020  0.1154
 6940TIP3    H145015   3.244   3.370   2.394  1.0655 -0.2511 -0.2132
 6940TIP3    H245016   3.260   3.434   2.257 -0.7671 -0.3392 -0.5034
 6941TIP3   OH245017   5.731   5.543   2.187 -0.8310 -0.0816 -0.0838
 6941TIP3    H145018   5.686   5.520   2.268 -0.9019  1.8073  0.4573
 6941TIP3    H245019   5.670   5.601   2.141 -1.3506 -2.1214 -2.1680
 6942TIP3   OH245020   4.297   4.329   0.850 -0.1527  0.2632  0.0357
 6942TIP3    H145021   4.226   4.353   0.790  0.6300  0.5858 -0.7836
 6942TIP3    H245022   4.347   4.409   0.862  0.8688 -0.2772 -0.4904
 6943TIP3   OH245023   3.966   3.454   1.268 -0.4980 -0.2775  0.5823
 6943TIP3    H145024   3.893   3.507   1.237  0.0396 -0.8403 -1.8558
 6943TIP3    H245025   3.939   3.423   1.354 -1.4880  2.5811  1.4080
 6944TIP3   OH245026   6.939   5.346   1.754  0.5839 -0.2907 -0.2463
 6944TIP3    H145027   7.032   5.360   1.738  0.3140 -0.5065 -2.3607
 6944TIP3    H245028   6.902   5.334   1.666 -1.1146 -2.2660  0.6703
 6945TIP3   OH245029   1.591   0.914   1.602  0.2391 -0.3812  0.0062
 6945TIP3    H145030   1.567   1.006   1.590  0.3082 -0.3387  0.1912
 6945TIP3    H245031   1.570   0.895   1.693 -1.4259 -1.0426 -0.4640
 6946TIP3   OH245032   1.830   0.868   1.772 -0.4341 -0.3612  0.1295
 6946TIP3    H145033   1.748   0.850   1.726 -0.1885 -2.7234  0.5050
 6946TIP3    H245034   1.803   0.913   1.853 -1.4159 -1.5054  0.4629
 6947TIP3   OH245035   7.111   6.899   3.432  0.0108  0.2470 -0.1729
 6947TIP3    H145036   7.183   6.961   3.421 -0.2793  1.1783  2.5062
 6947TIP3    H245037   7.153   6.818   3.461  0.0655  0.5556  0.6305
 6948TIP3   OH245038   3.113   1.494   0.563  0.1999 -0.6727  0.1306
 6948TIP3    H145039   3.038   1.490   0.623  0.5489  1.1778  0.7636
 6948TIP3    H245040   3.092   1.567   0.504  0.6313 -1.3914 -0.9414
 6949TIP3   OH245041   1.548   2.222   2.424  0.1023 -0.2438  1.5188
 6949TIP3    H145042   1.529   2.158   2.356 -1.6296 -0.6501  2.3269
 6949TIP3    H245043   1.573   2.301   2.377  0.8171 -1.0590  0.4753
 6950TIP3   OH245044   7.082   3.259   1.850  0.7741  0.1052 -0.2765
 6950TIP3    H145045   7.137   3.333   1.825  0.1999  0.4467 -0.5479
 6950TIP3    H245046   7.112   3.235   1.938  2.0159 -0.3468 -0.7941
 6951TIP3   OH245047   0.710   4.844   1.173  0.4426 -0.4239 -0.1281
 6951TIP3    H145048   0.708   4.937   1.150 -1.1472 -0.2282  0.6411
 6951TIP3    H245049   0.741   4.800   1.094 -0.6193  0.6022 -1.1464
 6952TIP3   OH245050   6.558   6.126   1.327  0.3585  0.8514 -0.2521
 6952TIP3    H145051   6.648   6.104   1.351  0.2980 -1.1410 -1.5910
 6952TIP3    H245052   6.504   6.077   1.389  0.2205  0.4255 -0.6994
 6953TIP3   OH245053   1.363   3.796   0.799 -0.1795 -0.0320  0.0031
 6953TIP3    H145054   1.373   3.711   0.841 -0.2508 -1.0235 -1.8785
 6953TIP3    H245055   1.452   3.826   0.782 -0.1647  0.0382  0.1977
 6954TIP3   OH245056   3.058   1.442   2.583  0.5540  0.4407 -0.0208
 6954TIP3    H145057   3.044   1.483   2.668  0.1252 -1.7370  1.0096
 6954TIP3    H245058   2.976   1.458   2.535  0.4328  0.8421  0.3141
 6955TIP3   OH245059   7.636   1.282   1.703  0.1643  0.6900  0.6158
 6955TIP3    H145060   7.650   1.276   1.797  0.3329 -0.2151  0.5412
 6955TIP3    H245061   7.546   1.253   1.690  0.7187 -1.0257  0.3315
 6956TIP3   OH245062   6.911   4.266   1.901 -0.1680 -0.2745 -0.7584
 6956TIP3    H145063   6.816   4.278   1.897 -0.2049 -0.1445  0.2732
 6956TIP3    H245064   6.923   4.191   1.960  0.3931  0.0951 -0.3961
 6957TIP3   OH245065   2.566   3.159   0.471 -0.1462 -0.0732 -0.1862
 6957TIP3    H145066   2.639   3.204   0.515  1.5545 -0.2036 -2.6288
 6957TIP3    H245067   2.491   3.172   0.529  1.7779  0.1539  2.4256
 6958TIP3   OH245068   1.379   6.466   2.814  0.1691  0.1338  0.5068
 6958TIP3    H145069   1.410   6.484   2.725 -0.7881 -1.5149 -0.2047
 6958TIP3    H245070   1.456   6.476   2.869  1.0406  0.0515 -0.6584
 6959TIP3   OH245071   1.699   1.003   2.750  0.2557  0.2078 -0.0049
 6959TIP3    H145072   1.685   0.920   2.796 -0.1612 -0.8887 -1.9683
 6959TIP3    H245073   1.611   1.036   2.731  0.3794  0.0791 -0.8876
 6960TIP3   OH245074   5.933   7.258   2.060  0.2931  0.0600  0.4285
 6960TIP3    H145075   5.950   7.179   2.111 -0.8516 -1.0628 -0.8343
 6960TIP3    H245076   5.963   7.237   1.972  0.0378  1.0704  0.0826
 6961TIP3   OH245077   4.140   3.444   1.620  0.0634  0.3185 -0.0883
 6961TIP3    H145078   4.199   3.402   1.558  3.1137  1.5428  1.7541
 6961TIP3    H245079   4.094   3.372   1.662 -0.2082 -0.6487 -1.9483
 6962TIP3   OH245080   4.308   5.095   1.670  0.3911 -0.1492  0.7996
 6962TIP3    H145081   4.402   5.076   1.673  0.9816  2.1658 -0.3764
 6962TIP3    H245082   4.266   5.018   1.707  2.6276 -2.1804 -0.6480
 6963TIP3   OH245083   6.811   4.942   1.977  0.7698 -0.5565  0.2289
 6963TIP3    H145084   6.906   4.944   1.990  1.0107 -0.2159 -1.3639
 6963TIP3    H245085   6.780   5.021   2.020  1.2495 -0.4916  0.4681
 6964TIP3   OH245086   6.502   5.010   1.298  0.1899 -0.2499  0.6778
 6964TIP3    H145087   6.444   4.970   1.363 -0.0877 -1.6575 -0.3732
 6964TIP3    H245088   6.473   4.972   1.215 -1.4090  3.6478 -0.7488
 6965TIP3   OH245089   4.861   4.104   2.074  0.0113  0.2629  0.1100
 6965TIP3    H145090   4.906   4.112   1.990  1.6134 -0.1199  0.8739
 6965TIP3    H245091   4.834   4.013   2.078  0.4285  0.1417  0.2319
 6966TIP3   OH245092   4.256   2.192   1.203 -0.6297 -0.4786 -0.9600
 6966TIP3    H145093   4.299   2.109   1.185 -0.6667 -0.7452  0.1289
 6966TIP3    H245094   4.198   2.206   1.129 -1.1767 -1.7922 -0.8014
 6967TIP3   OH245095   4.319   7.306   2.849  0.2428 -0.1768 -0.0431
 6967TIP3    H145096   4.259   7.360   2.901  2.3109  2.6695 -0.3732
 6967TIP3    H245097   4.357   7.246   2.913 -0.5257  0.2296  0.8388
 6968TIP3   OH245098   5.983   7.620   2.407  0.0936  0.2414 -0.1507
 6968TIP3    H145099   5.947   7.617   2.496 -0.1239 -0.8419 -0.2570
 6968TIP3    H245100   6.034   7.701   2.404 -2.0458  1.6988  0.1187
 6969TIP3   OH245101   7.177   6.016   2.086  0.4417  0.2133 -0.3041
 6969TIP3    H145102   7.203   6.078   2.153  1.7496 -2.2901  1.6943
 6969TIP3    H245103   7.257   5.966   2.067 -1.0295 -2.4617  0.0625
 6970TIP3   OH245104   5.151   5.277   2.843 -0.3315 -0.0046  0.2422
 6970TIP3    H145105   5.093   5.252   2.915 -1.3947 -0.6501 -0.7960
 6970TIP3    H245106   5.108   5.353   2.803 -0.5021 -0.5220 -0.5723
 6971TIP3   OH245107   1.469   7.169   0.503 -0.3541  0.3781  0.0406
 6971TIP3    H145108   1.392   7.207   0.545 -1.5184 -1.0532 -0.7111
 6971TIP3    H245109   1.441   7.152   0.413  1.0455  0.3667 -0.4170
 6972TIP3   OH245110   3.437   0.649   2.077 -0.5213 -0.4850  0.0059
 6972TIP3    H145111   3.346   0.672   2.058 -0.1414  0.7795 -0.4145
 6972TIP3    H245112   3.471   0.615   1.995 -0.1417  0.7299 -0.3701
 6973TIP3   OH245113   4.811   4.470   3.175  0.3027 -0.0609  0.8207
 6973TIP3    H145114   4.819   4.381   3.140 -0.4949  0.4393 -0.7376
 6973TIP3    H245115   4.718   4.480   3.193  0.4584  0.3042  1.4227
 6974TIP3   OH245116   3.767   0.527   2.063  0.3721  0.1718 -0.0134
 6974TIP3    H145117   3.776   0.434   2.041  0.3601 -0.6227  2.8868
 6974TIP3    H245118   3.673   0.542   2.065  0.3060 -0.3139  1.4005
 6975TIP3   OH245119   1.280   0.506   0.898 -0.2413  0.3854 -0.6868
 6975TIP3    H145120   1.330   0.471   0.825 -0.7574 -0.1181 -0.8033
 6975TIP3    H245121   1.192   0.468   0.889 -0.0568 -0.4702  0.7416
 6976TIP3   OH245122   6.582   5.437   1.913 -0.0109  0.0842  0.3476
 6976TIP3    H145123   6.589   5.532   1.912 -1.2466  0.2254 -1.9226
 6976TIP3    H245124   6.589   5.411   1.821 -1.5155 -1.8154  0.6947
 6977TIP3   OH245125   4.403   6.835   0.660  0.0505 -0.4163 -0.6721
 6977TIP3    H145126   4.323   6.801   0.620 -1.6271  1.6399  0.6921
 6977TIP3    H245127   4.444   6.889   0.591 -1.2895  0.7943 -0.5720
 6978TIP3   OH245128   0.655   3.174   3.003 -0.1473  0.7171 -0.6714
 6978TIP3    H145129   0.737   3.214   2.975  0.6737 -0.7368 -0.4465
 6978TIP3    H245130   0.653   3.185   3.098  0.3933 -0.2859 -0.5296
 6979TIP3   OH245131   7.433   0.195   1.023  0.6535 -0.1666  0.2406
 6979TIP3    H145132   7.361   0.176   0.963  1.6276 -0.1312 -0.9730
 6979TIP3    H245133   7.502   0.232   0.967  1.2136  0.8258  1.5407
 6980TIP3   OH245134   4.838   0.790   0.662  0.5792 -0.4639  0.6229
 6980TIP3    H145135   4.764   0.737   0.633  0.3629  0.0722  0.1625
 6980TIP3    H245136   4.898   0.728   0.703  0.9145 -1.2874 -1.0090
 6981TIP3   OH245137   4.817   3.551   2.676  0.2141 -0.2303  0.3534
 6981TIP3    H145138   4.755   3.491   2.634  0.5341 -0.6045  0.4077
 6981TIP3    H245139   4.903   3.515   2.654  0.4308  0.6092 -0.2124
 6982TIP3   OH245140   6.987   6.134   1.117  0.0126  0.3924  0.1893
 6982TIP3    H145141   6.990   6.181   1.034  1.6919 -1.0256 -0.6339
 6982TIP3    H245142   6.923   6.064   1.103 -1.7293  1.7512  1.0657
 6983TIP3   OH245143   0.195   0.363   1.717 -0.3847 -0.3399  0.2859
 6983TIP3    H145144   0.226   0.284   1.762 -1.1882 -0.1939  1.1270
 6983TIP3    H245145   0.149   0.413   1.785  0.5570  1.1183 -0.0879
 6984TIP3   OH245146   5.272   0.422   3.253 -0.1290  0.5686  1.0552
 6984TIP3    H145147   5.248   0.507   3.290  0.4985  1.0784  0.3250
 6984TIP3    H245148   5.219   0.415   3.174 -1.4309 -0.4954  1.9755
 6985TIP3   OH245149   6.912   0.722   2.748  0.3412 -0.1443 -0.1856
 6985TIP3    H145150   6.914   0.774   2.829  2.0891  0.1962 -0.4086
 6985TIP3    H245151   6.825   0.738   2.712  0.4117  1.7617  0.3379
 6986TIP3   OH245152   5.176   3.074   0.870 -0.0277  0.0262  0.1906
 6986TIP3    H145153   5.094   3.109   0.834  0.3161  1.8176  1.0064
 6986TIP3    H245154   5.244   3.129   0.833  1.1733 -2.8246 -2.2642
 6987TIP3   OH245155   2.749   3.323   2.427 -0.1377 -0.0702  0.1895
 6987TIP3    H145156   2.724   3.415   2.429  0.7863  0.3068 -2.2107
 6987TIP3    H245157   2.693   3.285   2.359 -0.2730 -1.2158  0.9164
 6988TIP3   OH245158   0.698   3.479   0.953  0.2370  0.1575  0.1084
 6988TIP3    H145159   0.725   3.468   1.044  1.0093 -0.5624 -0.1940
 6988TIP3    H245160   0.658   3.396   0.929  1.0046 -0.0399 -0.5190
 6989TIP3   OH245161   1.333   2.738   3.303 -0.4510 -0.2385  0.2519
 6989TIP3    H145162   1.372   2.816   3.342 -1.4320  0.7390 -0.6436
 6989TIP3    H245163   1.302   2.767   3.217  1.5234 -2.2802 -1.2799
 6990TIP3   OH245164   7.342   0.890   2.383 -0.0835  0.1194 -0.4121
 6990TIP3    H145165   7.290   0.857   2.310 -0.5589 -0.9934  0.4174
 6990TIP3    H245166   7.427   0.847   2.373 -0.3739 -0.5793  0.0825
 6991TIP3   OH245167   1.458   5.398   0.934 -0.1487  0.5851 -0.2619
 6991TIP3    H145168   1.393   5.360   0.874  1.6506 -0.5589 -1.5807
 6991TIP3    H245169   1.412   5.471   0.976 -3.4853 -2.2837  1.6208
 6992TIP3   OH245170   4.711   1.011   2.992 -0.0585 -0.1242 -0.0437
 6992TIP3    H145171   4.623   1.049   2.986 -0.1237 -0.0545  1.2301
 6992TIP3    H245172   4.767   1.084   3.018  0.4045 -0.1518 -0.9285
 6993TIP3   OH245173   5.278   6.757   1.221  0.1055  0.0467  0.3959
 6993TIP3    H145174   5.292   6.750   1.127 -0.8170  0.7505  0.1844
 6993TIP3    H245175   5.185   6.781   1.229  0.4032  0.9412  1.4327
 6994TIP3   OH245176   6.087   0.837   2.441  0.1164 -0.0282  0.0696
 6994TIP3    H145177   6.063   0.745   2.432 -0.3474  0.0375  0.5592
 6994TIP3    H245178   6.163   0.837   2.500  0.0257 -0.0882  0.1863
 6995TIP3   OH245179   2.903   0.263   1.250  0.1601 -0.3498  0.4601
 6995TIP3    H145180   2.865   0.186   1.207  0.3436 -0.8782  1.2179
 6995TIP3    H245181   2.998   0.250   1.241  0.2073 -0.5999  1.2282
 6996TIP3   OH245182   4.395   4.783   2.153  0.0178 -0.0684 -0.1961
 6996TIP3    H145183   4.401   4.788   2.057 -0.0611  0.4443 -0.1761
 6996TIP3    H245184   4.476   4.824   2.184 -0.2883  0.4169 -0.0323
 6997TIP3   OH245185   2.029   0.234   2.272  0.6450  0.2313  0.1945
 6997TIP3    H145186   2.069   0.319   2.258  1.7886 -0.2057  0.6538
 6997TIP3    H245187   2.041   0.217   2.366  1.3830 -0.8613 -0.0653
 6998TIP3   OH245188   1.604   4.838   2.336  0.1491 -0.1450  0.3390
 6998TIP3    H145189   1.563   4.924   2.324  0.3688  0.0234  0.7864
 6998TIP3    H245190   1.612   4.828   2.431  1.6355  0.0495  0.2541
 6999TIP3   OH245191   6.287   3.499   2.261  0.0799  0.1061 -0.3053
 6999TIP3    H145192   6.230   3.437   2.215  0.4709 -1.1191  0.7787
 6999TIP3    H245193   6.331   3.446   2.328  0.9624  1.4307  0.2178
 7000TIP3   OH245194   2.066   6.992   0.657  0.4914  0.6284  0.3047
 7000TIP3    H145195   2.082   7.040   0.576  0.7109  0.5294  0.2910
 7000TIP3    H245196   1.987   6.941   0.638  0.7162  0.3715  0.0506
 7001TIP3   OH245197   7.378   4.766   1.351  0.3213 -0.1228  0.5092
 7001TIP3    H145198   7.374   4.799   1.261 -0.4897 -0.7131  0.3201
 7001TIP3    H245199   7.430   4.831   1.398 -0.7253  1.1302  0.0074
 7002TIP3   OH245200   4.611   2.714   2.076 -0.1078 -0.0985 -0.0899
 7002TIP3    H145201   4.518   2.717   2.055  0.0309  0.2958 -0.6543
 7002TIP3    H245202   4.642   2.633   2.038 -0.1441 -0.0515 -0.2200
 7003TIP3   OH245203   7.552   0.811   1.421  0.4565 -0.5776  0.1127
 7003TIP3    H145204   7.527   0.767   1.340  1.8457 -0.7656 -0.2401
 7003TIP3    H245205   7.498   0.770   1.489 -1.7921  0.5751 -0.8733
 7004TIP3   OH245206   2.577   1.685   0.600  0.3150  0.3712 -0.1208
 7004TIP3    H145207   2.572   1.640   0.685  2.1869 -2.1740 -1.2450
 7004TIP3    H245208   2.582   1.778   0.623 -1.2300 -0.0760  2.4452
 7005TIP3   OH245209   6.697   3.537   0.938  0.4613 -1.1410 -0.2400
 7005TIP3    H145210   6.733   3.463   0.987 -0.0140 -1.9884 -1.1459
 7005TIP3    H245211   6.688   3.607   1.004  2.7581 -1.2216  0.2128
 7006TIP3   OH245212   5.409   1.335   1.019 -0.0930 -0.5757  0.2192
 7006TIP3    H145213   5.461   1.255   1.019  0.3672 -0.2912  1.3040
 7006TIP3    H245214   5.416   1.369   1.108 -1.8577 -0.3381  0.3095
 7007TIP3   OH245215   0.643   4.673   1.596 -0.1455  0.0689 -0.5127
 7007TIP3    H145216   0.725   4.687   1.643  0.0763 -0.2883 -0.7872
 7007TIP3    H245217   0.577   4.719   1.648 -0.2252 -1.7726  1.1232
 7008TIP3   OH245218   1.085   5.643   2.822 -0.3868 -0.2419  0.5766
 7008TIP3    H145219   1.150   5.602   2.880 -0.7241 -0.8746  0.5128
 7008TIP3    H245220   1.116   5.732   2.811  0.5084 -0.5538  0.5044
 7009TIP3   OH245221   1.191   3.694   3.256 -0.0190 -0.4642 -0.4813
 7009TIP3    H145222   1.252   3.724   3.189 -0.2430 -1.2346 -1.0386
 7009TIP3    H245223   1.238   3.625   3.303 -0.2267 -0.6305 -0.5124
 7010TIP3   OH245224   2.132   4.067   3.163 -0.6719 -0.4498  0.3523
 7010TIP3    H145225   2.214   4.021   3.147 -0.6121  0.0395 -0.9392
 7010TIP3    H245226   2.141   4.105   3.250 -0.0023 -1.3660  0.6863
 7011TIP3   OH245227   3.981   3.789   1.043 -0.0638 -0.0758 -0.7376
 7011TIP3    H145228   3.968   3.883   1.027  0.0464  0.1774  0.5413
 7011TIP3    H245229   4.066   3.784   1.086 -0.0498 -0.7780 -0.8362
 7012TIP3   OH245230   3.995   5.243   0.766 -0.0516  0.1570  0.5457
 7012TIP3    H145231   3.930   5.184   0.730 -0.1923  0.0537  0.9594
 7012TIP3    H245232   4.037   5.283   0.690  1.4629 -1.9969  0.1564
 7013TIP3   OH245233   2.063   1.359   0.459  0.0994 -0.8779  0.4239
 7013TIP3    H145234   2.051   1.286   0.398  0.3747 -0.1220 -0.5537
 7013TIP3    H245235   2.146   1.341   0.502  0.7478 -0.5678 -0.6600
 7014TIP3   OH245236   1.100   3.006   1.639 -0.0290  0.2119 -0.4684
 7014TIP3    H145237   1.058   2.922   1.657  0.3210 -0.0305 -0.7565
 7014TIP3    H245238   1.032   3.058   1.596 -0.3433  0.1922 -0.0040
 7015TIP3   OH245239   1.471   0.387   2.473 -0.0679  0.4816  0.7537
 7015TIP3    H145240   1.463   0.322   2.543  2.1719 -0.0341  0.6148
 7015TIP3    H245241   1.563   0.383   2.447 -0.1800  2.7075 -0.2612
 7016TIP3   OH245242   6.879   3.931   0.993  0.4207  0.0533  0.4311
 7016TIP3    H145243   6.856   4.012   1.039 -1.9348 -0.2675 -0.0655
 7016TIP3    H245244   6.814   3.867   1.021  0.2560 -0.7618 -1.6097
 7017TIP3   OH245245   4.522   7.567   2.644 -0.1825  0.1415  0.2259
 7017TIP3    H145246   4.581   7.642   2.634 -0.6857  0.2940 -2.3352
 7017TIP3    H245247   4.532   7.540   2.735  1.2521  2.2843  0.7695
 7018TIP3   OH245248   0.707   5.607   1.784 -0.2856 -0.4572  0.2684
 7018TIP3    H145249   0.728   5.670   1.715  2.4991 -1.6779 -0.1418
 7018TIP3    H245250   0.671   5.531   1.737  3.3709 -2.0699 -0.3047
 7019TIP3   OH245251   3.364   3.336   0.661  0.2373 -0.4927 -0.5906
 7019TIP3    H145252   3.330   3.247   0.652  1.1279 -1.1376  1.6599
 7019TIP3    H245253   3.320   3.371   0.739  1.4125  0.2648 -0.2420
 7020TIP3   OH245254   5.987   4.091   0.964 -0.5257 -0.1936  0.0303
 7020TIP3    H145255   6.045   4.014   0.960 -0.5672 -0.1709 -1.5382
 7020TIP3    H245256   6.045   4.165   0.944 -0.4342  0.2492  1.7829
 7021TIP3   OH245257   0.195   2.023   0.562 -0.1823 -0.3762 -0.6897
 7021TIP3    H145258   0.282   1.998   0.594 -0.8051 -0.6762  0.8905
 7021TIP3    H245259   0.178   1.963   0.489 -0.4548 -2.7620  1.1965
 7022TIP3   OH245260   5.255   1.581   2.266  0.4968 -0.1283 -0.0907
 7022TIP3    H145261   5.326   1.607   2.324 -0.6806 -0.2188  1.4692
 7022TIP3    H245262   5.293   1.515   2.208  1.8024  0.2300  0.3279
 7023TIP3   OH245263   0.088   4.129   2.487 -0.1021 -0.1078  0.3412
 7023TIP3    H145264   0.006   4.116   2.534 -0.2907 -1.1407 -0.2495
 7023TIP3    H245265   0.062   4.147   2.396  0.3387 -2.4633 -0.2995
 7024TIP3   OH245266   6.868   3.824   1.272  0.2957 -0.1541  0.0579
 7024TIP3    H145267   6.822   3.908   1.270  0.3259 -0.1197 -1.8698
 7024TIP3    H245268   6.920   3.827   1.352  0.5686  1.8437 -0.1327
 7025TIP3   OH245269   0.031   3.005   1.543  0.3283  0.1215  0.2982
 7025TIP3    H145270   0.057   3.096   1.557 -0.1982  0.0769  1.6481
 7025TIP3    H245271  -0.063   3.003   1.562 -0.3901 -0.1007 -2.6854
 7026TIP3   OH245272   5.845   1.165   2.190 -0.1146 -0.4971  0.0742
 7026TIP3    H145273   5.780   1.235   2.180  2.6285  2.0913 -1.1789
 7026TIP3    H245274   5.875   1.173   2.280 -0.0026 -0.1937  0.0133
 7027TIP3   OH245275   5.189   5.318   1.834  0.3083 -0.3387 -0.0381
 7027TIP3    H145276   5.165   5.238   1.787  0.0884  0.3762 -1.1929
 7027TIP3    H245277   5.270   5.295   1.880  0.6637 -1.0113 -0.9589
 7028TIP3   OH245278   3.019   3.361   0.994 -0.1746 -0.1003  0.1281
 7028TIP3    H145279   2.966   3.403   0.927 -0.4209 -0.8919 -0.1785
 7028TIP3    H245280   3.006   3.267   0.980 -0.0974 -0.2783  1.1758
 7029TIP3   OH245281   1.705   3.409   0.814 -0.2324  0.2830 -0.0463
 7029TIP3    H145282   1.654   3.473   0.763  1.1900  0.4541 -1.3471
 7029TIP3    H245283   1.700   3.328   0.762  0.1808  0.0903  0.2125
 7030TIP3   OH245284   7.357   1.332   1.803  0.2331 -0.6759 -0.2651
 7030TIP3    H145285   7.334   1.347   1.895  0.4121 -0.8004 -0.2011
 7030TIP3    H245286   7.373   1.420   1.768  0.8898 -0.6836  0.0098
 7031TIP3   OH245287   0.999   1.184   1.870  0.0038 -0.0298  0.4799
 7031TIP3    H145288   0.945   1.106   1.880 -0.8516  0.5438  0.4102
 7031TIP3    H245289   1.007   1.218   1.959 -2.6999  1.8076  0.1428
 7032TIP3   OH245290   1.170   1.679   0.581  0.4912  0.2917 -0.1284
 7032TIP3    H145291   1.125   1.690   0.664  0.4725 -0.8786  0.0301
 7032TIP3    H245292   1.168   1.766   0.541 -0.4447  0.6261  0.6107
 7033TIP3   OH245293   1.194   6.280   2.170  0.0786 -0.4094  0.6846
 7033TIP3    H145294   1.262   6.281   2.237  1.5108 -2.6357 -0.6032
 7033TIP3    H245295   1.131   6.215   2.201  1.0375 -1.8693 -0.3217
 7034TIP3   OH245296   4.172   5.642   1.239  0.3607  0.2295 -0.1022
 7034TIP3    H145297   4.130   5.727   1.249 -1.0214 -0.3086 -1.0042
 7034TIP3    H245298   4.104   5.586   1.201  1.0536 -1.4388  1.0075
 7035TIP3   OH245299   6.799   6.788   0.839  0.4141  0.0441  0.1773
 7035TIP3    H145300   6.870   6.797   0.775  0.0822 -1.0055 -0.3573
 7035TIP3    H245301   6.777   6.695   0.838  0.0737  0.0885  1.4824
 7036TIP3   OH245302   3.374   4.429   0.389  0.1532 -0.2268 -0.5291
 7036TIP3    H145303   3.461   4.398   0.412  0.0304  0.5443  1.0891
 7036TIP3    H245304   3.382   4.456   0.297  1.8590  0.6176 -0.1718
 7037TIP3   OH245305   6.149   6.423   0.858  0.5922  0.6680  0.0403
 7037TIP3    H145306   6.240   6.398   0.848  0.3496  0.4827 -2.2862
 7037TIP3    H245307   6.145   6.514   0.826 -0.0352  0.6841  0.1478
 7038TIP3   OH245308   4.984   1.450   9.515  0.2168  0.3310 -0.3298
 7038TIP3    H145309   4.911   1.393   9.539  0.3925 -0.8233 -2.2899
 7038TIP3    H245310   5.062   1.399   9.538  0.4670  1.4124  1.4265
 7039TIP3   OH245311   3.675   4.812   0.712 -0.3100  0.6207 -0.5136
 7039TIP3    H145312   3.606   4.823   0.777  0.7129  0.5183  0.6066
 7039TIP3    H245313   3.716   4.728   0.733  0.4684  0.8996 -0.8629
 7040TIP3   OH245314   5.958   1.289   1.389 -0.7738 -0.0771 -0.2931
 7040TIP3    H145315   5.922   1.364   1.437 -2.5896 -1.4841  0.6941
 7040TIP3    H245316   5.884   1.228   1.382  0.6030 -1.7221 -1.1590
 7041TIP3   OH245317   0.188   3.491   2.482 -0.2240 -0.6685 -0.1339
 7041TIP3    H145318   0.109   3.466   2.433 -0.4042 -1.1695  0.4043
 7041TIP3    H245319   0.246   3.529   2.416 -0.2715 -1.7759 -0.8412
 7042TIP3   OH245320   7.586   3.147   0.711 -0.5663 -0.0788 -0.3379
 7042TIP3    H145321   7.561   3.131   0.802  0.9840 -2.2050 -0.1985
 7042TIP3    H245322   7.675   3.181   0.716 -0.3150 -0.6038 -1.0508
 7043TIP3   OH245323   0.904   2.620   0.696 -0.4985  0.2019  0.1662
 7043TIP3    H145324   0.987   2.629   0.742  0.7794 -1.2250 -1.7260
 7043TIP3    H245325   0.895   2.702   0.646 -1.0206  0.9905  1.4905
 7044TIP3   OH245326   4.369   1.629   1.061  0.0514  0.1299  0.2120
 7044TIP3    H145327   4.319   1.548   1.069 -1.2233  0.9118  0.4124
 7044TIP3    H245328   4.461   1.601   1.062 -0.3617 -1.4142 -0.9120
 7045TIP3   OH245329   7.403   7.267   1.430 -0.2306  0.1408 -0.8149
 7045TIP3    H145330   7.385   7.360   1.415 -0.6871  0.2565  0.3169
 7045TIP3    H245331   7.317   7.229   1.449  0.1192 -0.2069  0.1693
 7046TIP3   OH245332   0.157   5.673   3.542  0.2124  0.2181 -0.4261
 7046TIP3    H145333   0.074   5.656   3.497 -0.9826  0.0077  1.7058
 7046TIP3    H245334   0.166   5.601   3.604  0.8901  1.3656  0.8668
 7047TIP3   OH245335   5.845   6.628   1.609 -0.2410 -0.3148  0.6889
 7047TIP3    H145336   5.889   6.583   1.681 -2.6184  0.5446  2.8294
 7047TIP3    H245337   5.916   6.674   1.563  1.4439 -1.3341  2.1319
 7048TIP3   OH245338   5.393   6.166   3.080 -0.2533 -0.5359 -0.6848
 7048TIP3    H145339   5.362   6.127   3.162  2.4463 -1.2593  0.0953
 7048TIP3    H245340   5.314   6.203   3.040 -1.8901 -1.3445  1.5632
 7049TIP3   OH245341   7.246   6.492   0.827 -0.0220 -0.1358 -0.7951
 7049TIP3    H145342   7.240   6.483   0.922 -0.5381 -0.5232 -0.8574
 7049TIP3    H245343   7.335   6.467   0.805  0.1228  0.0383 -0.4011
 7050TIP3   OH245344   1.418   4.484   3.029 -0.3732  0.0745  0.1492
 7050TIP3    H145345   1.376   4.479   3.115 -0.5115 -2.9906  0.0108
 7050TIP3    H245346   1.345   4.493   2.967 -0.4158  0.3746  0.2430
 7051TIP3   OH245347   2.935   6.453   2.760  0.6027 -0.3513  0.0541
 7051TIP3    H145348   3.017   6.408   2.740  1.2430  1.0368 -0.6161
 7051TIP3    H245349   2.879   6.386   2.799  1.8029 -1.4955 -0.1294
 7052TIP3   OH245350   3.293   5.547   2.797 -0.0003  0.0745  0.3747
 7052TIP3    H145351   3.219   5.496   2.832 -0.2999  1.0240  1.1693
 7052TIP3    H245352   3.370   5.497   2.823 -0.3559 -1.6653 -1.6573
 7053TIP3   OH245353   6.670   5.379   2.861 -0.4293  0.2212 -0.1457
 7053TIP3    H145354   6.637   5.364   2.773 -0.6861  1.3943 -0.2651
 7053TIP3    H245355   6.654   5.472   2.877 -1.4904 -0.2018  1.5896
 7054TIP3   OH245356   6.664   5.199   1.440 -0.4329  0.3010 -0.2465
 7054TIP3    H145357   6.610   5.131   1.399 -0.6650 -0.1342  0.7565
 7054TIP3    H245358   6.714   5.236   1.368  0.2321 -1.4119 -0.7195
 7055TIP3   OH245359   1.576   3.038   0.953  0.4225  0.5019  0.0260
 7055TIP3    H145360   1.641   2.985   0.908  0.1063 -0.8307  1.0731
 7055TIP3    H245361   1.505   3.048   0.889  0.2916 -0.7557 -0.0583
 7056TIP3   OH245362   2.786   4.402   3.565  0.1770 -0.2964  0.4486
 7056TIP3    H145363   2.745   4.463   3.503 -1.7823 -1.1050  0.8524
 7056TIP3    H245364   2.800   4.323   3.514  0.7602 -0.2011  0.4570
 7057TIP3   OH245365   0.835   1.655   1.090 -0.3593  0.4165 -0.3278
 7057TIP3    H145366   0.870   1.727   1.141  0.2603  0.1269 -0.3316
 7057TIP3    H245367   0.746   1.682   1.067 -0.7168  0.4801  1.0406
 7058TIP3   OH245368   5.267   6.753   2.024  0.1547  0.1222 -0.2647
 7058TIP3    H145369   5.356   6.724   2.044  0.2059 -1.7809 -2.8020
 7058TIP3    H245370   5.280   6.832   1.972  0.4103 -0.5141 -1.1843
 7059TIP3   OH245371   2.084   0.832   1.327 -0.0569  0.0725  0.3553
 7059TIP3    H145372   2.084   0.779   1.247 -0.8955  0.5841  0.0152
 7059TIP3    H245373   2.016   0.793   1.382  0.8604 -0.5998  1.0531
 7060TIP3   OH245374   6.312   7.546   2.326  0.2465 -0.1918  0.0814
 7060TIP3    H145375   6.312   7.593   2.410 -1.3887  0.5227 -0.2708
 7060TIP3    H245376   6.256   7.470   2.341  0.8091 -0.6454 -0.0801
 7061TIP3   OH245377   2.740   2.774   0.716 -1.0420  0.0267  0.2187
 7061TIP3    H145378   2.684   2.798   0.642 -0.9046 -1.9369 -0.5897
 7061TIP3    H245379   2.688   2.713   0.767  0.5451 -2.5456 -1.0272
 7062TIP3   OH245380   3.233   2.676   1.291  0.5461 -0.4701  0.4580
 7062TIP3    H145381   3.268   2.587   1.293  0.6490 -0.4277  2.0885
 7062TIP3    H245382   3.188   2.685   1.375  0.2761  0.9215  0.1804
 7063TIP3   OH245383   1.036   1.433   2.195  0.1103  0.0737  0.1491
 7063TIP3    H145384   0.992   1.419   2.110  1.0424  0.4378 -0.4067
 7063TIP3    H245385   1.096   1.359   2.203  0.9035  0.6789 -0.0903
 7064TIP3   OH245386   6.499   4.948   2.512  0.4343  0.1371 -0.0787
 7064TIP3    H145387   6.460   4.889   2.447  1.7536 -0.0559 -0.7118
 7064TIP3    H245388   6.437   5.021   2.518 -0.6534 -0.7461 -0.1297
 7065TIP3   OH245389   5.749   5.928   1.546  0.1435 -0.1314  0.1219
 7065TIP3    H145390   5.839   5.905   1.523 -0.2429 -0.0479 -1.6113
 7065TIP3    H245391   5.747   5.925   1.642  1.8495 -0.6209  0.1722
 7066TIP3   OH245392   3.802   2.011   1.725  0.5838 -0.6018  0.0110
 7066TIP3    H145393   3.896   1.998   1.714  0.7118 -0.1261  0.5439
 7066TIP3    H245394   3.763   1.963   1.651  1.1768 -1.8247  0.4586
 7067TIP3   OH245395   6.749   0.037   1.540  0.6309  0.3937  0.4553
 7067TIP3    H145396   6.768   0.036   1.633  2.0610  2.1167  0.2304
 7067TIP3    H245397   6.790   0.117   1.507  0.2735 -0.2188 -1.6768
 7068TIP3   OH245398   5.474   0.128   1.305  0.3538  0.0905 -0.6822
 7068TIP3    H145399   5.489   0.222   1.312  3.5803 -0.3316 -0.3634
 7068TIP3    H245400   5.541   0.097   1.244  0.9970 -2.2614  1.0553
 7069TIP3   OH245401   5.446   2.094   1.155 -0.5894  0.0443 -0.1117
 7069TIP3    H145402   5.413   2.033   1.089  0.3231 -0.3856 -0.1888
 7069TIP3    H245403   5.516   2.142   1.111  0.4479 -0.6779  0.7061
 7070TIP3   OH245404   2.906   4.550   2.278  0.5161 -0.1989  0.0040
 7070TIP3    H145405   2.887   4.461   2.249 -0.0494  0.5197 -1.9585
 7070TIP3    H245406   2.997   4.566   2.251  0.1831  0.2641 -0.8844
 7071TIP3   OH245407   3.138   6.046   1.064  0.0844  0.0360 -0.2874
 7071TIP3    H145408   3.186   5.965   1.050  1.1795  0.6924 -0.4453
 7071TIP3    H245409   3.176   6.084   1.144  0.4021  0.9659 -0.8634
 7072TIP3   OH245410   1.764   1.550   1.172 -0.0178 -0.3804 -0.4805
 7072TIP3    H145411   1.712   1.500   1.110 -0.2528 -0.6184 -0.0913
 7072TIP3    H245412   1.838   1.493   1.194 -0.3003 -0.5654 -0.0164
 7073TIP3   OH245413   0.390   6.486   2.746 -0.4094  0.3944  0.1233
 7073TIP3    H145414   0.389   6.390   2.739  1.6508  0.3620 -0.4212
 7073TIP3    H245415   0.429   6.503   2.832 -1.3249  0.7783  0.4803
 7074TIP3   OH245416   7.233   3.695   0.680  0.4783 -0.4308  0.2520
 7074TIP3    H145417   7.196   3.620   0.634 -1.9042  1.4119 -1.0916
 7074TIP3    H245418   7.165   3.763   0.675  3.0141  2.3331  0.0794
 7075TIP3   OH245419   1.944   1.799   1.835 -0.6282 -0.2014  0.4311
 7075TIP3    H145420   1.868   1.771   1.886 -0.3932  0.5833  1.2328
 7075TIP3    H245421   1.908   1.839   1.756 -1.0236 -0.4053  0.5077
 7076TIP3   OH245422   6.000   7.544   3.297 -0.1984 -0.6213 -0.2587
 7076TIP3    H145423   5.937   7.473   3.311  0.2779 -0.6597  1.9768
 7076TIP3    H245424   6.070   7.526   3.359 -0.4066  2.2013  0.9096
 7077TIP3   OH245425   5.224   1.580   3.076 -0.3419 -0.5020  0.2979
 7077TIP3    H145426   5.180   1.495   3.079 -0.4303 -0.4336  1.8797
 7077TIP3    H245427   5.318   1.559   3.082 -0.3523 -0.4902  0.4902
 7078TIP3   OH245428   4.502   7.593   1.845 -0.4494 -0.2860 -0.8744
 7078TIP3    H145429   4.504   7.498   1.831  0.2464 -0.4614  0.2415
 7078TIP3    H245430   4.459   7.604   1.930  0.2425  0.3295 -0.5908
 7079TIP3   OH245431   2.292   0.423   1.590  0.0478 -0.7011  0.1492
 7079TIP3    H145432   2.260   0.440   1.502 -0.9916  2.8223  1.0292
 7079TIP3    H245433   2.380   0.461   1.592 -0.5409  0.7104  0.9778
 7080TIP3   OH245434   5.890   2.557   2.396  0.4975  0.1334  0.1132
 7080TIP3    H145435   5.896   2.468   2.363 -1.1137  0.5137 -1.3457
 7080TIP3    H245436   5.918   2.551   2.488  0.2071 -1.9065  0.1021
 7081TIP3   OH245437   1.241   6.161   1.914  0.2264 -0.0845 -0.4363
 7081TIP3    H145438   1.185   6.102   1.864  0.7408 -0.9624 -0.0200
 7081TIP3    H245439   1.194   6.175   1.996  0.4372 -0.5366 -0.2311
 7082TIP3   OH245440   2.114   2.226   0.628 -0.4453 -0.4295  0.1540
 7082TIP3    H145441   2.116   2.292   0.696 -0.6468 -1.2013  0.9309
 7082TIP3    H245442   2.030   2.181   0.641 -1.2765  0.4879 -1.6672
 7083TIP3   OH245443   2.910   2.463   0.926  0.6779  0.0087 -0.3258
 7083TIP3    H145444   2.933   2.508   0.844 -2.0840  0.4346 -0.9445
 7083TIP3    H245445   2.986   2.478   0.983  1.6277  1.8402 -1.9525
 7084TIP3   OH245446   0.504   0.283   1.262 -0.6790  0.1902  0.2774
 7084TIP3    H145447   0.562   0.208   1.268 -0.2213  0.4500 -0.6190
 7084TIP3    H245448   0.545   0.349   1.318 -0.5108  0.1219  0.2362
 7085TIP3   OH245449   5.616   6.047   2.055 -0.0575  0.4643 -0.4234
 7085TIP3    H145450   5.581   6.116   2.111  0.7126  2.4914 -2.2799
 7085TIP3    H245451   5.560   6.047   1.978  0.0357 -0.9489 -0.5278
 7086TIP3   OH245452   3.314   2.938   2.319  0.0672  0.4026  0.0271
 7086TIP3    H145453   3.383   3.003   2.303 -0.9332  1.4169 -0.2542
 7086TIP3    H245454   3.300   2.897   2.234 -0.0026  0.5357 -0.0269
 7087TIP3   OH245455   1.740   6.608   2.201  0.3864 -0.2073 -0.2510
 7087TIP3    H145456   1.824   6.648   2.226  0.0646  0.7168 -0.6190
 7087TIP3    H245457   1.677   6.681   2.203 -0.2599 -0.7440 -0.7039
 7088TIP3   OH245458   4.711   1.094   2.331  0.1322 -0.3106  0.0688
 7088TIP3    H145459   4.801   1.121   2.315  0.7350 -2.0592  0.3178
 7088TIP3    H245460   4.678   1.157   2.396  0.4283  1.6469 -1.5669
 7089TIP3   OH245461   4.285   1.442   0.765 -0.4301  0.6473 -0.6085
 7089TIP3    H145462   4.257   1.432   0.856 -0.0797  3.1472 -0.1640
 7089TIP3    H245463   4.380   1.433   0.767 -0.3148  1.7375 -0.5228
 7090TIP3   OH245464   4.576   2.324   0.989 -0.1676  0.5100  0.2931
 7090TIP3    H145465   4.592   2.415   0.961 -0.7908  1.1528  1.9219
 7090TIP3    H245466   4.525   2.333   1.069  0.3385 -1.2852  0.8433
 7091TIP3   OH245467   6.122   5.966   1.746 -0.3815  0.2615  0.9611
 7091TIP3    H145468   6.072   5.885   1.756  0.2509 -0.0952  1.3220
 7091TIP3    H245469   6.213   5.940   1.763 -0.2166  1.1175  1.4294
 7092TIP3   OH245470   3.039   5.833   0.870 -0.3968  0.2446 -0.5748
 7092TIP3    H145471   3.128   5.817   0.901 -0.7727 -0.4569  0.1658
 7092TIP3    H245472   3.050   5.865   0.780  0.5590 -0.7105 -0.8101
 7093TIP3   OH245473   5.047   2.547   1.046  0.3060  0.2874 -0.0737
 7093TIP3    H145474   5.077   2.456   1.055  1.9983  0.7782 -0.4930
 7093TIP3    H245475   5.127   2.598   1.039 -0.6425  1.6929 -1.1411
 7094TIP3   OH245476   1.483   4.977   1.305  0.0615 -0.1920 -0.7732
 7094TIP3    H145477   1.478   5.032   1.227  0.1272 -1.1075 -1.4360
 7094TIP3    H245478   1.395   4.979   1.341 -0.3462 -0.9051 -1.6830
 7095TIP3   OH245479   6.898   4.712   1.590 -0.0573  0.3264 -0.5979
 7095TIP3    H145480   6.904   4.616   1.598 -0.1289  0.2466 -1.3967
 7095TIP3    H245481   6.818   4.735   1.638  0.1397  0.0284 -0.1165
 7096TIP3   OH245482   6.277   6.749   2.500  0.2605 -0.0732  0.0913
 7096TIP3    H145483   6.271   6.669   2.551 -0.7992 -2.0476 -2.8813
 7096TIP3    H245484   6.369   6.773   2.502  0.9475 -2.4590 -0.4371
 7097TIP3   OH245485   0.210   3.730   1.860 -0.3070 -0.8926  0.2130
 7097TIP3    H145486   0.296   3.697   1.835 -0.4365  0.0292 -1.6051
 7097TIP3    H245487   0.158   3.724   1.780 -1.7892 -0.9512  1.1434
 7098TIP3   OH245488   3.111   0.117   0.879 -0.4366  0.0717  0.2950
 7098TIP3    H145489   3.090   0.025   0.870 -0.7869  0.0970  0.7941
 7098TIP3    H245490   3.207   0.121   0.874 -0.4282 -0.3032  0.1842
 7099TIP3   OH245491   2.731   4.586   3.362 -0.0092 -0.4876 -0.6153
 7099TIP3    H145492   2.656   4.624   3.407 -0.0008 -0.5332 -0.5623
 7099TIP3    H245493   2.775   4.661   3.321 -0.1438 -0.4757 -0.7367
 7100TIP3   OH245494   5.000   1.434   1.801 -0.0807 -0.6683 -0.5015
 7100TIP3    H145495   4.958   1.518   1.819  0.1705 -0.9041  1.3796
 7100TIP3    H245496   4.938   1.387   1.746 -1.1329 -0.0222  0.1123
 7101TIP3   OH245497   3.992   6.154   0.630 -0.1140 -0.0361  0.2098
 7101TIP3    H145498   4.060   6.157   0.696  1.9037 -1.0025 -1.6994
 7101TIP3    H245499   3.955   6.242   0.629  2.2030  1.0051  0.2602
 7102TIP3   OH245500   7.312   3.224   1.341 -0.6322  0.0472 -0.4731
 7102TIP3    H145501   7.233   3.258   1.299 -0.4928  0.3215 -0.5190
 7102TIP3    H245502   7.283   3.198   1.429 -0.8169 -0.0500 -0.5640
 7103TIP3   OH245503   4.074   4.728   1.663  0.2798  0.2135  0.3366
 7103TIP3    H145504   4.135   4.657   1.640  0.3364  0.6990 -1.1449
 7103TIP3    H245505   4.014   4.688   1.725 -0.3126 -1.4734 -1.2291
 7104TIP3   OH245506   5.578   0.395   2.461  0.3936 -0.0618 -0.2086
 7104TIP3    H145507   5.563   0.335   2.389 -0.5436 -0.1910  0.0913
 7104TIP3    H245508   5.658   0.443   2.436  0.7645 -0.9465 -0.7539
 7105TIP3   OH245509   1.089   5.422   2.079 -0.1345 -0.8771  0.3319
 7105TIP3    H145510   1.099   5.368   2.157 -0.0920  0.3612  1.2220
 7105TIP3    H245511   1.175   5.421   2.038  0.3191 -0.2390  1.2132
 7106TIP3   OH245512   7.137   0.863   0.800  0.0212 -0.0242 -0.2637
 7106TIP3    H145513   7.105   0.910   0.723 -0.9143 -3.2236 -2.0049
 7106TIP3    H245514   7.069   0.877   0.867 -0.3931  0.7711 -0.8425
 7107TIP3   OH245515   6.285   4.166   2.100  0.6339 -0.3359 -0.0945
 7107TIP3    H145516   6.197   4.136   2.079  0.6249 -0.6068  0.3314
 7107TIP3    H245517   6.279   4.261   2.099  1.0309 -0.2516 -3.0762
 7108TIP3   OH245518   7.182   0.259   2.285 -0.3703 -0.0271 -0.1488
 7108TIP3    H145519   7.172   0.168   2.255 -1.4111 -0.0967  0.3872
 7108TIP3    H245520   7.247   0.254   2.355 -1.6566 -0.6285  1.0311
 7109TIP3   OH245521   6.486   6.912   1.291 -0.0467 -0.1507  0.3811
 7109TIP3    H145522   6.540   6.860   1.350 -0.5407 -0.8043  0.2706
 7109TIP3    H245523   6.537   6.991   1.275  0.3107 -0.1863  1.2899
 7110TIP3   OH245524   5.351   5.092   1.031 -0.1825 -0.4482  0.5446
 7110TIP3    H145525   5.267   5.046   1.032 -0.9022  0.8359  0.8955
 7110TIP3    H245526   5.328   5.184   1.043  1.1721  0.1101 -0.8605
 7111TIP3   OH245527   7.604   5.018   0.802 -0.0011  0.4976 -0.3286
 7111TIP3    H145528   7.693   4.998   0.830 -0.1872  1.5968  1.1696
 7111TIP3    H245529   7.549   4.961   0.855 -0.2153 -1.1421 -2.1622
 7112TIP3   OH245530   2.117   1.226   1.012  0.2409  0.1962  0.1301
 7112TIP3    H145531   2.053   1.161   1.042 -0.4485  0.6288 -0.3969
 7112TIP3    H245532   2.172   1.242   1.089  0.4951 -1.0799  0.2480
 7113TIP3   OH245533   4.018   7.062   2.319  0.3944 -0.1188 -0.1202
 7113TIP3    H145534   4.057   7.100   2.398  1.0606 -1.3017  0.1564
 7113TIP3    H245535   3.998   7.137   2.263  0.8178  0.6771  0.7594
 7114TIP3   OH245536   3.169   4.196   2.818 -0.1039  0.3507 -0.0849
 7114TIP3    H145537   3.262   4.176   2.827  0.7484  2.0846 -3.2411
 7114TIP3    H245538   3.127   4.113   2.796  0.6609 -0.4442  1.3759
 7115TIP3   OH245539   1.727   4.570   1.766 -0.0507  0.0570 -0.3329
 7115TIP3    H145540   1.806   4.534   1.727 -0.9001  0.2678 -2.4403
 7115TIP3    H245541   1.711   4.651   1.716 -1.7853 -0.1991 -0.2607
 7116TIP3   OH245542   3.714   0.842   2.439  0.0470 -0.0836 -0.8279
 7116TIP3    H145543   3.651   0.776   2.411  1.1274 -0.7200 -1.8743
 7116TIP3    H245544   3.750   0.808   2.521 -2.3449  1.2579  0.9013
 7117TIP3   OH245545   4.623   3.507   1.419 -0.5002 -0.0712  0.1053
 7117TIP3    H145546   4.584   3.448   1.484  2.9533 -2.1718  0.5639
 7117TIP3    H245547   4.692   3.553   1.468  0.1517  0.6002 -1.3916
 7118TIP3   OH245548   0.621   7.635   2.074  0.2308 -0.4048  0.5576
 7118TIP3    H145549   0.583   7.574   2.012 -1.0721  0.9524 -0.0181
 7118TIP3    H245550   0.696   7.587   2.111  0.1518 -1.7780 -0.9447
 7119TIP3   OH245551   4.501   7.356   0.833  0.1847  0.3743  0.0523
 7119TIP3    H145552   4.452   7.367   0.751  1.4772 -0.3109 -0.8359
 7119TIP3    H245553   4.443   7.304   0.888 -0.4661  0.3586 -0.6300
 7120TIP3   OH245554   4.933   7.593   2.186  0.4458 -0.5569  0.0682
 7120TIP3    H145555   4.901   7.589   2.096 -1.2595 -1.0545  0.6574
 7120TIP3    H245556   5.021   7.556   2.182  1.1397  1.1057 -1.6804
 7121TIP3   OH245557   3.093   4.221   1.217 -0.0774  0.1972 -0.1434
 7121TIP3    H145558   3.145   4.199   1.294 -0.4141 -1.0027 -0.2360
 7121TIP3    H245559   3.121   4.157   1.150 -0.9880  0.1363 -0.4794
 7122TIP3   OH245560   7.425   6.559   0.407 -0.1027 -0.1770 -0.1384
 7122TIP3    H145561   7.453   6.641   0.448  0.0674  0.3246 -1.2086
 7122TIP3    H245562   7.341   6.580   0.367  1.2038  0.3702 -2.8588
 7123TIP3   OH245563   0.553   7.214   1.685 -0.0880 -0.7105 -0.0196
 7123TIP3    H145564   0.488   7.221   1.616 -1.1110 -0.3194  0.9610
 7123TIP3    H245565   0.610   7.290   1.672 -0.7510 -0.1991  0.0467
 7124TIP3   OH245566   5.871   2.180   1.626 -0.2270  0.0368 -0.2356
 7124TIP3    H145567   5.776   2.171   1.626 -0.5064  2.3903 -0.8167
 7124TIP3    H245568   5.886   2.274   1.634  2.1124 -0.4513  3.4164
 7125TIP3   OH245569   3.318   3.678   3.352  0.3939 -0.1328  1.1487
 7125TIP3    H145570   3.322   3.586   3.326 -0.8878 -0.3567  1.6669
 7125TIP3    H245571   3.226   3.693   3.372  0.3760  1.5785 -0.0042
 7126TIP3   OH245572   2.520   2.293   1.476  0.0641  0.2653 -0.5823
 7126TIP3    H145573   2.543   2.216   1.424 -1.0086 -0.5788  0.1646
 7126TIP3    H245574   2.456   2.262   1.540 -0.7130  1.8705 -0.5266
 7127TIP3   OH245575   2.878   5.407   1.522 -0.0907  0.5426  0.2461
 7127TIP3    H145576   2.793   5.377   1.552 -1.5061 -0.7364 -4.2271
 7127TIP3    H245577   2.912   5.334   1.470  2.2239  2.2048 -0.7349
 7128TIP3   OH245578   4.052   4.113   1.130  0.3188  0.4817 -0.2503
 7128TIP3    H145579   4.125   4.081   1.076  0.2318  2.0607 -1.3870
 7128TIP3    H245580   4.092   4.135   1.214  1.0696  0.8018 -0.6750
 7129TIP3   OH245581   4.522   0.708   1.031 -0.1831  0.0401 -0.0784
 7129TIP3    H145582   4.459   0.694   0.961 -0.3298 -0.4329  0.1429
 7129TIP3    H245583   4.516   0.801   1.051 -0.9514 -0.0316  0.0626
 7130TIP3   OH245584   5.362   0.173   2.060 -0.1340 -0.0833 -0.7431
 7130TIP3    H145585   5.335   0.101   2.003  1.8809  0.6680 -2.8129
 7130TIP3    H245586   5.355   0.251   2.005  0.7834  0.8421  0.4053
 7131TIP3   OH245587   4.245   1.702   0.668 -0.8259  0.1704  0.3510
 7131TIP3    H145588   4.270   1.610   0.674  0.8062  0.4891 -0.8348
 7131TIP3    H245589   4.265   1.738   0.755 -0.6458 -0.3947  0.5467
 7132TIP3   OH245590   2.566   2.222   0.575 -0.6090  0.1501  0.2829
 7132TIP3    H145591   2.477   2.253   0.560  0.1052  3.3327  1.6406
 7132TIP3    H245592   2.602   2.283   0.639  3.0308 -0.0632 -1.2761
 7133TIP3   OH245593   5.881   2.046   0.543  0.5942  0.5467 -0.0803
 7133TIP3    H145594   5.964   2.026   0.586  0.6010  0.0098 -0.3345
 7133TIP3    H245595   5.887   2.002   0.458 -0.1598  0.0734  0.1071
 7134TIP3   OH245596   1.527   4.753   2.875 -0.1560  0.1485  0.5729
 7134TIP3    H145597   1.438   4.740   2.908 -0.0348 -0.0493  0.8310
 7134TIP3    H245598   1.572   4.671   2.895 -0.1664 -0.1118 -0.4060
 7135TIP3   OH245599   2.419   5.752   1.618 -0.1121 -0.0738  0.7744
 7135TIP3    H145600   2.440   5.815   1.687  1.1570 -0.2989  0.6289
 7135TIP3    H245601   2.454   5.792   1.538  0.2758 -0.7293  0.6061
 7136TIP3   OH245602   4.871   1.753   1.222  0.7767  0.2545  0.1967
 7136TIP3    H145603   4.866   1.784   1.313 -1.9479  2.6472 -0.6491
 7136TIP3    H245604   4.909   1.826   1.174 -0.1982  0.0229 -0.9626
 7137TIP3   OH245605   2.769   2.246   2.056 -0.0055 -0.7141  0.0325
 7137TIP3    H145606   2.759   2.152   2.047 -0.9900 -0.5937 -0.1809
 7137TIP3    H245607   2.680   2.279   2.067 -0.0294  0.5292 -2.9801
 7138TIP3   OH245608   1.768   2.781   2.377 -0.1195  0.1331 -0.4289
 7138TIP3    H145609   1.846   2.729   2.395 -0.5011  0.1977  1.6792
 7138TIP3    H245610   1.801   2.866   2.349  0.5251 -0.2292 -0.7961
 7139TIP3   OH245611   7.586   2.147   2.806 -0.4257  0.3289 -0.5202
 7139TIP3    H145612   7.582   2.155   2.902  1.0484  0.0904 -0.4036
 7139TIP3    H245613   7.598   2.236   2.775 -0.9102  0.4076 -0.4895
 7140TIP3   OH245614   2.811   0.547   0.765  0.1181  0.2173  0.1573
 7140TIP3    H145615   2.722   0.569   0.737 -1.1833  0.5257  3.9697
 7140TIP3    H245616   2.809   0.453   0.784  1.8281 -0.6705 -3.2236
 7141TIP3   OH245617   1.972   2.166   1.416  0.2869 -0.1785 -0.3106
 7141TIP3    H145618   1.963   2.259   1.437  0.0534  0.1156 -1.6118
 7141TIP3    H245619   2.053   2.139   1.459 -0.7773  0.0419  1.9780
 7142TIP3   OH245620   2.667   4.622   2.684 -0.3205 -0.1814 -0.4156
 7142TIP3    H145621   2.693   4.530   2.683 -0.7205 -0.2907 -0.9484
 7142TIP3    H245622   2.601   4.628   2.753 -0.2033 -0.2656 -0.2953
 7143TIP3   OH245623   6.376   4.247   3.174  0.4760  0.4689 -0.1635
 7143TIP3    H145624   6.406   4.156   3.180 -1.1549 -0.1187 -0.5495
 7143TIP3    H245625   6.449   4.298   3.210  0.6841 -1.0990  1.8450
 7144TIP3   OH245626   4.617   7.650   0.923  0.1917  0.0960 -0.1613
 7144TIP3    H145627   4.642   7.634   0.832 -1.5885  0.6795 -0.7983
 7144TIP3    H245628   4.618   7.563   0.963 -0.4582 -0.3865 -1.1448
 7145TIP3   OH245629   7.248   3.010   2.918 -0.1884 -0.1867  0.1864
 7145TIP3    H145630   7.291   3.092   2.944 -0.2206 -0.1722  0.1943
 7145TIP3    H245631   7.158   3.035   2.900 -0.8626 -0.6012  2.5631
 7146TIP3   OH245632   2.665   7.101   1.670 -0.3350  0.1513  0.0092
 7146TIP3    H145633   2.604   7.060   1.732 -0.4126 -0.2677 -0.3360
 7146TIP3    H245634   2.636   7.192   1.665 -0.9911 -0.0654 -0.2207
 7147TIP3   OH245635   2.749   5.721   1.507 -0.2115 -0.0170 -0.2384
 7147TIP3    H145636   2.739   5.774   1.427  1.8529  2.3298  0.9501
 7147TIP3    H245637   2.839   5.689   1.504 -0.8878 -2.1278 -0.0366
 7148TIP3   OH245638   2.772   6.033   2.565 -0.2579  0.7955 -0.2763
 7148TIP3    H145639   2.860   6.044   2.601 -0.2162 -0.1530 -0.0618
 7148TIP3    H245640   2.780   5.960   2.504 -1.3596 -0.8821  1.4518
 7149TIP3   OH245641   4.074   6.336   1.241 -0.2963 -0.2050 -0.2926
 7149TIP3    H145642   4.130   6.260   1.223  2.3699  1.1096  1.7500
 7149TIP3    H245643   4.135   6.410   1.246 -2.5253  1.7439 -0.1177
 7150TIP3   OH245644   3.341   3.572   2.163 -0.2097  0.0212 -0.2299
 7150TIP3    H145645   3.344   3.580   2.067  1.0916 -0.3207 -0.2397
 7150TIP3    H245646   3.309   3.657   2.193  0.8434  0.6851 -0.9107
 7151TIP3   OH245647   3.930   4.415   2.228 -0.4337  1.0480 -0.0946
 7151TIP3    H145648   3.875   4.347   2.265 -0.3559  1.7309  1.3665
 7151TIP3    H245649   3.870   4.487   2.208 -0.4382  0.7778 -1.0792
 7152TIP3   OH245650   4.656   5.471   2.286  0.2512  0.1119  0.0027
 7152TIP3    H145651   4.709   5.445   2.361 -0.0695 -0.7165 -0.0550
 7152TIP3    H245652   4.703   5.437   2.210 -0.2252 -0.4022 -0.0672
 7153TIP3   OH245653   0.458   7.057   1.009 -0.2617 -0.6466  0.1371
 7153TIP3    H145654   0.500   6.971   1.015  0.1469 -0.3408  3.2286
 7153TIP3    H245655   0.370   7.043   1.044 -1.1939 -0.3018 -1.9328
 7154TIP3   OH245656   7.180   3.775   1.184  0.1989 -0.6726 -0.2684
 7154TIP3    H145657   7.092   3.774   1.222  0.2818  1.6305  0.1340
 7154TIP3    H245658   7.166   3.755   1.091 -1.3005  2.9856 -0.9991
 7155TIP3   OH245659   6.682   7.184   1.331 -0.1042 -0.2096  0.0037
 7155TIP3    H145660   6.662   7.148   1.245  0.6228  2.4488 -1.3842
 7155TIP3    H245661   6.755   7.244   1.316  0.3700 -0.0194  2.5850
 7156TIP3   OH245662   3.227   4.067   3.142  0.5730 -0.2852  0.0119
 7156TIP3    H145663   3.146   4.113   3.164  0.0391 -1.1371 -0.1425
 7156TIP3    H245664   3.198   3.985   3.103  1.5228 -0.9872  0.7591
 7157TIP3   OH245665   3.125   6.089   2.363 -0.0960 -0.4828 -0.1288
 7157TIP3    H145666   3.165   6.022   2.419 -0.7362 -0.6547  0.1305
 7157TIP3    H245667   3.090   6.040   2.289 -0.9518 -0.4919  0.2770
 7158TIP3   OH245668   3.623   4.470   1.029  0.2950 -0.2019 -0.6317
 7158TIP3    H145669   3.692   4.409   1.055 -1.0384 -0.8463  1.6382
 7158TIP3    H245670   3.592   4.436   0.945  0.4435 -1.9163 -0.0249
 7159TIP3   OH245671   0.223   3.905   0.946 -0.2873  0.2807 -0.4568
 7159TIP3    H145672   0.177   3.896   0.862 -0.5794  1.0064 -0.3884
 7159TIP3    H245673   0.306   3.859   0.933 -1.0202 -1.0442 -0.5826
 7160TIP3   OH245674   6.900   5.465   3.443  0.3347  0.3732  0.0271
 7160TIP3    H145675   6.883   5.375   3.416  0.3536  0.5365 -0.5276
 7160TIP3    H245676   6.980   5.489   3.397  1.1838  0.1690  1.3323
 7161TIP3   OH245677   2.004   4.548   1.748 -0.1787  0.2576  0.2289
 7161TIP3    H145678   2.044   4.502   1.822  2.6925  0.3077 -1.1647
 7161TIP3    H245679   2.010   4.641   1.771  4.1630  0.5815 -1.4303
 7162TIP3   OH245680   1.512   7.264   2.357 -0.8859  0.1516 -0.0513
 7162TIP3    H145681   1.604   7.244   2.379 -0.4414  2.6761  0.7423
 7162TIP3    H245682   1.468   7.265   2.442 -1.4168  0.0984 -0.3259
 7163TIP3   OH245683   3.558   3.317   1.404 -0.2993  0.2121  0.3299
 7163TIP3    H145684   3.564   3.386   1.470  1.2105 -1.7684  2.4137
 7163TIP3    H245685   3.643   3.320   1.359 -1.0048  0.9885 -1.0311
 7164TIP3   OH245686   6.752   4.910   1.170  0.1806 -0.2857 -0.3180
 7164TIP3    H145687   6.798   4.952   1.243 -1.3491 -0.7157  0.9632
 7164TIP3    H245688   6.662   4.942   1.177  0.0154 -0.2812 -2.0965
 7165TIP3   OH245689   2.440   5.460   1.789  0.2775 -0.0231 -0.4842
 7165TIP3    H145690   2.427   5.434   1.880  1.8469 -3.1661 -1.0399
 7165TIP3    H245691   2.523   5.507   1.788 -0.8647  2.1425 -0.0275
 7166TIP3   OH245692   7.195   2.411   1.444  0.6146 -0.2295 -0.2970
 7166TIP3    H145693   7.245   2.367   1.375 -0.3173  0.3920 -1.4103
 7166TIP3    H245694   7.104   2.385   1.427  0.3287  0.2787  0.4366
 7167TIP3   OH245695   2.380   4.219   4.010  0.0664 -0.6380 -0.2347
 7167TIP3    H145696   2.461   4.229   3.961  0.3035  1.0727  0.4347
 7167TIP3    H245697   2.369   4.302   4.056 -1.5015 -1.2308  0.5527
 7168TIP3   OH245698   1.408   5.360   2.726  0.0463  0.3846 -0.1206
 7168TIP3    H145699   1.460   5.283   2.745  0.6436  0.7025 -0.4394
 7168TIP3    H245700   1.439   5.389   2.640 -0.0403  1.0840  0.0771
 7169TIP3   OH245701   5.577   3.426   2.163 -0.0652 -0.0739  0.1039
 7169TIP3    H145702   5.555   3.405   2.254  1.2667  0.2709  0.5322
 7169TIP3    H245703   5.534   3.510   2.147  1.6310  1.0868  1.2512
 7170TIP3   OH245704   7.108   7.657   1.839 -0.1203  0.7118 -0.1779
 7170TIP3    H145705   7.201   7.667   1.818  0.3175 -0.2152  1.2175
 7170TIP3    H245706   7.104   7.580   1.895 -1.3101  2.4396  2.3096
 7171TIP3   OH245707   2.978   1.306   1.774 -0.1549 -0.6124  0.0705
 7171TIP3    H145708   3.048   1.354   1.818  0.4808 -0.6722 -0.8525
 7171TIP3    H245709   2.935   1.256   1.844  1.5810 -1.6294  0.4502
 7172TIP3   OH245710   4.459   1.642   1.919 -0.3863 -0.0913  0.0228
 7172TIP3    H145711   4.456   1.647   1.823 -0.0513 -2.4446 -0.1663
 7172TIP3    H245712   4.444   1.732   1.948 -1.4890  0.5219 -2.2069
 7173TIP3   OH245713   7.467   3.500   1.682  0.3414 -0.1567 -0.1029
 7173TIP3    H145714   7.553   3.520   1.720  0.9987  0.5690 -1.8628
 7173TIP3    H245715   7.466   3.404   1.675  1.0476 -0.1702 -0.1233
 7174TIP3   OH245716   3.901   0.873   0.987  0.1148 -0.1958 -0.1544
 7174TIP3    H145717   3.808   0.859   1.003  0.6145 -0.8760  2.9050
 7174TIP3    H245718   3.932   0.789   0.951 -0.2570 -0.3412 -0.1409
 7175TIP3   OH245719   4.407   6.152   2.227 -0.4853 -0.0269 -0.0309
 7175TIP3    H145720   4.456   6.074   2.255  0.9533  1.2949  1.3425
 7175TIP3    H245721   4.470   6.224   2.234 -2.0866  1.4560 -0.1496
 7176TIP3   OH245722   0.544   5.656   1.171 -0.2542  0.2586 -0.1012
 7176TIP3    H145723   0.547   5.751   1.183 -0.6673  0.2424  0.1857
 7176TIP3    H245724   0.550   5.643   1.077  0.4310  0.5366 -0.1033
 7177TIP3   OH245725   3.295   5.521   0.990  0.1059  0.0115 -0.1986
 7177TIP3    H145726   3.247   5.510   0.909  0.9175 -0.0120 -0.6923
 7177TIP3    H245727   3.318   5.431   1.016 -0.6262 -0.0247  0.3641
 7178TIP3   OH245728   1.914   1.063   1.081  0.2821  0.1887 -0.3214
 7178TIP3    H145729   1.919   0.968   1.078 -0.7431  0.0199  1.7066
 7178TIP3    H245730   1.824   1.083   1.053  0.0527  0.4506  0.5719
 7179TIP3   OH245731   7.403   2.340   1.844 -0.1252 -0.2183  0.2501
 7179TIP3    H145732   7.442   2.268   1.795 -2.2095 -0.3561 -1.3434
 7179TIP3    H245733   7.475   2.375   1.897  1.3058 -2.4534 -0.1079
 7180TIP3   OH245734   7.215   3.762   2.614 -0.6710 -0.9001 -0.8111
 7180TIP3    H145735   7.214   3.783   2.521 -1.0218 -0.1205 -0.6424
 7180TIP3    H245736   7.123   3.749   2.636 -0.6628 -0.3598 -0.4284
 7181TIP3   OH245737   7.298   0.926   1.216  0.1518  0.0693  0.7720
 7181TIP3    H145738   7.242   0.856   1.250  0.3965 -0.1564  0.7146
 7181TIP3    H245739   7.245   1.005   1.223 -0.5083 -0.2814 -0.1051
 7182TIP3   OH245740   5.363   0.249   1.670  0.2607  0.1814  0.2934
 7182TIP3    H145741   5.395   0.171   1.714 -0.3016  0.1246  0.6107
 7182TIP3    H245742   5.346   0.312   1.740 -0.9275 -0.0136  0.2058
 7183TIP3   OH245743   3.497   4.526   2.755  0.8743  0.1725 -0.3223
 7183TIP3    H145744   3.558   4.466   2.798  0.2463  0.2480  0.6971
 7183TIP3    H245745   3.494   4.603   2.812 -0.3140  0.0932 -0.2421
 7184TIP3   OH245746   2.146   5.919   1.677 -0.1842 -0.4214  0.5017
 7184TIP3    H145747   2.054   5.933   1.701  0.0529 -0.6229  1.5894
 7184TIP3    H245748   2.164   5.829   1.703  0.1364 -0.6220 -0.3711
 7185TIP3   OH245749   3.161   6.590   1.255  0.5180 -0.1404 -0.5148
 7185TIP3    H145750   3.135   6.560   1.342 -2.0786  0.7096 -0.9145
 7185TIP3    H245751   3.088   6.566   1.198  2.0663 -0.5271 -2.4825
 7186TIP3   OH245752   2.636   7.588   2.876 -0.1395 -0.1451 -0.3167
 7186TIP3    H145753   2.575   7.600   2.803  0.7015  0.1789 -0.9814
 7186TIP3    H245754   2.592   7.629   2.951 -1.1773 -0.8085 -0.5290
 7187TIP3   OH245755   0.262   5.732   2.938 -0.2996  0.0953 -0.4486
 7187TIP3    H145756   0.353   5.709   2.956 -0.3863 -0.3467 -0.5390
 7187TIP3    H245757   0.212   5.656   2.970 -0.6328  0.3391 -0.3909
 7188TIP3   OH245758   2.924   3.115   0.912 -0.2619 -0.1738  0.1275
 7188TIP3    H145759   2.877   3.035   0.934 -0.2894 -0.2292 -0.1227
 7188TIP3    H245760   2.983   3.089   0.841 -1.9953  0.5418 -1.7018
 7189TIP3   OH245761   0.705   4.940   2.407  0.5585  0.2203 -0.3525
 7189TIP3    H145762   0.663   5.014   2.364 -1.0660 -1.0922 -1.1262
 7189TIP3    H245763   0.692   4.866   2.347 -0.8418 -1.4628  1.8284
 7190TIP3   OH245764   2.095   2.408   0.831 -0.1070  0.7043  0.1488
 7190TIP3    H145765   2.097   2.336   0.894 -0.6124  0.6386  0.0983
 7190TIP3    H245766   2.165   2.467   0.859 -0.5114  0.8202  0.9486
 7191TIP3   OH245767   0.522   1.714   0.685 -0.0778  0.0064  0.3090
 7191TIP3    H145768   0.489   1.771   0.615 -0.6351  0.7865  1.1946
 7191TIP3    H245769   0.471   1.633   0.676 -0.7840  0.4402  0.3755
 7192TIP3   OH245770   0.697   4.976   1.598  0.5857  0.2170  0.2852
 7192TIP3    H145771   0.696   4.883   1.576 -0.0076 -0.0042  1.2065
 7192TIP3    H245772   0.749   4.982   1.678 -0.7099  0.4365  1.1509
 7193TIP3   OH245773   3.222   3.180   1.624  0.4765  0.3388 -0.0085
 7193TIP3    H145774   3.211   3.253   1.563 -0.0907  0.4573  0.2236
 7193TIP3    H245775   3.273   3.115   1.575  0.3068  0.5635 -0.4937
 7194TIP3   OH245776   3.556   6.736   1.488 -0.3988  0.2017  0.1216
 7194TIP3    H145777   3.503   6.675   1.540 -0.4446 -0.9021 -1.1707
 7194TIP3    H245778   3.527   6.723   1.398 -0.2142  1.9735 -0.2210
 7195TIP3   OH245779   0.211   5.468   1.935  0.2820  0.0901  0.2753
 7195TIP3    H145780   0.220   5.542   1.995  0.4958  0.0149  0.3346
 7195TIP3    H245781   0.247   5.499   1.852 -0.7449  0.4694 -0.0444
 7196TIP3   OH245782   7.441   2.923   1.236  0.0089 -0.5101 -0.0562
 7196TIP3    H145783   7.380   2.911   1.163  0.0560 -1.7557  0.0971
 7196TIP3    H245784   7.521   2.879   1.209  0.1609 -0.6347  0.5829
 7197TIP3   OH245785   3.726   7.279   1.032 -0.0359 -0.4059  0.2840
 7197TIP3    H145786   3.692   7.220   1.100  1.8715 -0.8637  0.8878
 7197TIP3    H245787   3.801   7.233   0.996  0.4914  0.9507 -0.3995
 7198TIP3   OH245788   1.544   5.874   2.619 -0.6913 -0.4150  0.5448
 7198TIP3    H145789   1.566   5.831   2.701  0.1412 -1.3824 -0.1627
 7198TIP3    H245790   1.612   5.940   2.607 -0.2334 -0.9556  0.1423
 7199TIP3   OH245791   0.087   0.096   2.456  0.1040 -0.1850  0.6581
 7199TIP3    H145792   0.135   0.018   2.483 -0.2484 -1.0197 -0.9658
 7199TIP3    H245793  -0.001   0.064   2.436  0.1401  0.4818 -0.6777
 7200TIP3   OH245794   6.207   4.793   2.593  0.0629  0.2130  0.0712
 7200TIP3    H145795   6.252   4.753   2.518 -2.1360 -0.4888 -0.9429
 7200TIP3    H245796   6.260   4.769   2.669  0.6031 -1.8155 -0.9048
 7201TIP3   OH245797   0.048   3.712   2.939 -0.0981 -0.3778 -0.1916
 7201TIP3    H145798  -0.023   3.671   2.889 -0.2465 -0.0438 -0.2578
 7201TIP3    H245799   0.016   3.800   2.959  0.0312 -0.4458  0.3429
 7202TIP3   OH245800   3.608   2.897   1.331  0.1876 -0.0820  0.0306
 7202TIP3    H145801   3.608   2.876   1.237  0.5427 -2.4097  0.4935
 7202TIP3    H245802   3.700   2.894   1.356  0.2106  1.6413  0.2822
 7203TIP3   OH245803   4.083   2.721   1.301  0.0619 -0.6321 -0.4554
 7203TIP3    H145804   4.018   2.791   1.314 -1.4163 -1.9204 -0.6441
 7203TIP3    H245805   4.141   2.728   1.377  0.7261  1.5625 -1.0698
 7204TIP3   OH245806   2.865   4.551   1.326 -0.5227 -0.0838 -0.3412
 7204TIP3    H145807   2.818   4.471   1.304 -0.0940 -0.2687 -0.6011
 7204TIP3    H245808   2.955   4.522   1.339 -0.7642 -0.0384  1.8613
 7205TIP3   OH245809   1.808   2.551   0.372  0.9094  0.5340  0.0358
 7205TIP3    H145810   1.819   2.614   0.301  0.7161  2.1215  1.3509
 7205TIP3    H245811   1.716   2.558   0.397  0.2117 -2.1752 -1.4415
 7206TIP3   OH245812   2.370   6.136   2.356 -0.4861  0.0006 -0.1178
 7206TIP3    H145813   2.357   6.188   2.277 -0.0734 -1.3470 -1.0999
 7206TIP3    H245814   2.453   6.167   2.392 -0.3823  0.2269 -0.5459
 7207TIP3   OH245815   6.111   6.708   0.373 -0.5485 -0.2182  0.1381
 7207TIP3    H145816   6.181   6.646   0.393  1.1284  1.0128 -1.5990
 7207TIP3    H245817   6.060   6.665   0.304 -1.8699 -1.3217  1.7379
 7208TIP3   OH245818   1.727   4.868   1.258 -0.4622  0.8379 -0.1983
 7208TIP3    H145819   1.779   4.907   1.188  1.0027  2.0596  1.4719
 7208TIP3    H245820   1.643   4.914   1.254  0.4876  2.7328  0.3623
 7209TIP3   OH245821   5.599   5.044   2.678  0.2905 -0.0885  0.0396
 7209TIP3    H145822   5.692   5.044   2.703  0.2608  0.5012  0.1658
 7209TIP3    H245823   5.592   4.978   2.610  0.8179 -0.0908 -0.0147
 7210TIP3   OH245824   0.701   1.231   1.072  0.2480 -0.2337 -0.0428
 7210TIP3    H145825   0.721   1.294   1.140  1.2104 -1.4777  0.8706
 7210TIP3    H245826   0.605   1.229   1.068  0.2003  0.7424  0.4065
 7211TIP3   OH245827   3.391   1.062   0.744  0.4216  0.5687  0.2009
 7211TIP3    H145828   3.430   0.979   0.771  2.0712 -0.0795 -3.5576
 7211TIP3    H245829   3.451   1.095   0.677 -1.7484  3.3357 -0.5243
 7212TIP3   OH245830   0.441   0.792   3.048  0.7156  0.2539  0.0629
 7212TIP3    H145831   0.419   0.885   3.048  1.7220  0.5379  1.8010
 7212TIP3    H245832   0.524   0.787   3.094  1.6421 -1.3344 -1.6669
 7213TIP3   OH245833   1.441   5.275   1.591 -0.4534  0.3946 -0.4027
 7213TIP3    H145834   1.375   5.292   1.657 -0.7217 -0.6801 -0.3926
 7213TIP3    H245835   1.482   5.361   1.577  0.3845  0.4491  1.9459
 7214TIP3   OH245836   7.211   5.393   1.796  0.6343 -0.1220 -0.2163
 7214TIP3    H145837   7.237   5.352   1.879  0.3932  0.8335  0.3509
 7214TIP3    H245838   7.293   5.415   1.753  0.7619 -0.7174 -0.2903
 7215TIP3   OH245839   0.847   3.142   1.800  0.1667  0.2482 -0.5136
 7215TIP3    H145840   0.829   3.049   1.812  1.0323  0.2625  1.0652
 7215TIP3    H245841   0.830   3.157   1.707 -1.1302 -1.2143 -0.5692
 7216TIP3   OH245842   0.091   5.714   1.731  0.0988  0.4427 -0.1213
 7216TIP3    H145843   0.113   5.701   1.638 -1.3570  3.3409 -0.9653
 7216TIP3    H245844  -0.003   5.696   1.736  0.0919  0.6825  0.7249
 7217TIP3   OH245845   2.534   3.563   1.698 -0.8866 -0.6410  0.1118
 7217TIP3    H145846   2.619   3.522   1.681 -1.0349 -0.3181 -1.5454
 7217TIP3    H245847   2.470   3.499   1.669 -1.1418  0.1912 -1.2482
 7218TIP3   OH245848   5.690   6.345   0.886  0.1897 -0.1829  0.3755
 7218TIP3    H145849   5.664   6.308   0.970 -0.0355  0.9180  0.8161
 7218TIP3    H245850   5.780   6.316   0.873  0.4632  0.2075  1.3393
 7219TIP3   OH245851   1.363   6.606   1.507 -0.6568 -0.3450  0.4851
 7219TIP3    H145852   1.341   6.666   1.436  2.6090  1.3302  0.6714
 7219TIP3    H245853   1.321   6.523   1.483 -1.8343  0.8616 -1.9890
 7220TIP3   OH245854   4.715   0.768   1.388 -0.0997  0.0569  0.0089
 7220TIP3    H145855   4.741   0.798   1.475  0.8881 -0.8093  0.0319
 7220TIP3    H245856   4.711   0.847   1.335  1.2461  0.3735  0.3615
 7221TIP3   OH245857   3.717   3.639   0.628 -0.5409 -0.0287  0.6908
 7221TIP3    H145858   3.724   3.734   0.642 -1.0452  0.1007  0.1003
 7221TIP3    H245859   3.632   3.627   0.587 -1.0731 -0.8917  1.9868
 7222TIP3   OH245860   2.358   5.008   0.661  0.2190 -0.2916  0.4316
 7222TIP3    H145861   2.369   4.982   0.570  0.2307  0.6409  0.1576
 7222TIP3    H245862   2.263   5.004   0.676  0.0705  0.9500 -0.0657
 7223TIP3   OH245863   4.356   2.155   3.109 -0.1365  0.1345 -0.0860
 7223TIP3    H145864   4.359   2.123   3.019 -0.9218 -0.6599  0.1615
 7223TIP3    H245865   4.420   2.101   3.156  0.0309  0.3260 -0.0904
 7224TIP3   OH245866   0.304   1.427   2.271 -0.0426 -0.1064  0.2895
 7224TIP3    H145867   0.286   1.408   2.179 -1.4499 -0.4744  0.6205
 7224TIP3    H245868   0.217   1.437   2.311  0.5529  0.2518  1.5367
 7225TIP3   OH245869   7.435   2.756   0.959 -0.5680  0.3096 -0.1086
 7225TIP3    H145870   7.522   2.792   0.976 -0.9147  1.6827 -0.9867
 7225TIP3    H245871   7.376   2.831   0.970 -1.7345 -0.7477  1.1430
 7226TIP3   OH245872   1.028   6.256   1.594  0.2223 -0.0507 -0.4815
 7226TIP3    H145873   1.002   6.187   1.656  1.6968  0.2777  0.5444
 7226TIP3    H245874   0.969   6.244   1.520  0.0867 -2.0876 -0.1093
 7227TIP3   OH245875   3.544   3.591   3.542  0.9972  0.5213  0.7269
 7227TIP3    H145876   3.517   3.594   3.451  0.3405  0.0338  0.9030
 7227TIP3    H245877   3.491   3.657   3.586  2.1295  1.5799  0.5578
 7228TIP3   OH245878   5.130   5.074   2.662 -0.2273 -0.3615  0.4932
 7228TIP3    H145879   5.091   5.014   2.725 -0.0048  0.2157  1.1959
 7228TIP3    H245880   5.165   5.146   2.716  1.0230 -0.4342 -0.1757
 7229TIP3   OH245881   4.183   7.593   1.870  0.0689  0.5010  0.1076
 7229TIP3    H145882   4.213   7.680   1.846 -0.0511  0.5291  0.0634
 7229TIP3    H245883   4.088   7.601   1.879  0.1462  0.5719  0.9120
 7230TIP3   OH245884   0.598   1.925   1.079  0.3097  0.2862 -0.2212
 7230TIP3    H145885   0.691   1.936   1.059  0.4555  0.3639  0.4952
 7230TIP3    H245886   0.554   1.989   1.023  0.5101 -1.0902 -2.0533
 7231TIP3   OH245887   3.037   6.521   2.143  0.2519 -0.7893 -0.6978
 7231TIP3    H145888   2.987   6.469   2.206 -2.2708 -0.2417 -2.1069
 7231TIP3    H245889   3.096   6.573   2.197 -1.0505 -1.1045  1.1445
 7232TIP3   OH245890   6.908   5.613   3.682 -0.4642  0.5339 -0.2193
 7232TIP3    H145891   6.921   5.563   3.601 -1.1688  0.8524 -0.5343
 7232TIP3    H245892   6.822   5.653   3.672 -1.0146 -0.2582  1.1343
 7233TIP3   OH245893   7.177   3.592   1.486  0.3264  0.1867  0.0683
 7233TIP3    H145894   7.180   3.681   1.523 -1.2292  0.4891 -0.4826
 7233TIP3    H245895   7.269   3.568   1.476  0.7759  1.6729  0.3810
 7234TIP3   OH245896   3.414   5.144   1.754 -0.3427 -0.2485  0.2825
 7234TIP3    H145897   3.490   5.176   1.705 -0.5568 -0.1131  0.0364
 7234TIP3    H245898   3.369   5.086   1.693 -0.7035  0.0521  0.2599
 7235TIP3   OH245899   5.492   5.266   2.787  0.1055  0.3463  0.2529
 7235TIP3    H145900   5.522   5.189   2.739  0.0925 -0.1698  1.0563
 7235TIP3    H245901   5.398   5.270   2.770  0.0222 -0.0985  0.5934
 7236TIP3   OH245902   5.974   1.973   2.336  0.1868 -0.0982  0.5089
 7236TIP3    H145903   6.024   1.893   2.351 -0.5754 -0.8447 -0.7725
 7236TIP3    H245904   6.022   2.041   2.383  1.2440 -1.1712  1.0116
 7237TIP3   OH245905   7.468   5.292   2.310  0.5479  0.5516 -0.2479
 7237TIP3    H145906   7.439   5.346   2.236  0.8234  0.7944 -0.1808
 7237TIP3    H245907   7.552   5.330   2.335  1.8944 -1.2943 -1.6594
 7238TIP3   OH245908   5.894   0.763   1.143  0.5373 -0.2239 -0.4517
 7238TIP3    H145909   5.990   0.759   1.150  0.5305  0.0761 -0.1363
 7238TIP3    H245910   5.874   0.722   1.059  1.0389  0.8804 -1.1264
 7239TIP3   OH245911   7.065   4.690   0.883  0.0420 -0.1378 -0.0999
 7239TIP3    H145912   7.005   4.654   0.948 -0.1292 -0.4250 -0.4088
 7239TIP3    H245913   7.153   4.671   0.917  0.0292  1.9832  1.3154
 7240TIP3   OH245914   4.268   0.705   2.460 -0.5385 -0.0438 -0.2191
 7240TIP3    H145915   4.334   0.716   2.528 -0.0224 -1.3652 -0.4687
 7240TIP3    H245916   4.217   0.629   2.487  0.0039 -0.9113 -1.5357
 7241TIP3   OH245917   7.101   3.362   2.908 -0.2072  0.8388  0.1979
 7241TIP3    H145918   7.192   3.367   2.935  0.2292  1.3330 -1.2663
 7241TIP3    H245919   7.102   3.309   2.828 -0.9497  2.1278 -0.7168
 7242TIP3   OH245920   5.896   0.757   2.235  0.0380 -0.1656 -0.0816
 7242TIP3    H145921   5.941   0.678   2.265 -0.6010  0.3285  2.4852
 7242TIP3    H245922   5.824   0.724   2.182 -0.7294 -1.4518  1.6352
 7243TIP3   OH245923   3.571   6.661   2.353  0.7549  0.1658  0.6419
 7243TIP3    H145924   3.568   6.731   2.418 -0.2519  0.2626  0.4930
 7243TIP3    H245925   3.493   6.609   2.369 -0.2443  0.9416 -1.3233
 7244TIP3   OH245926   5.092   3.383   2.101 -0.2198  0.0598 -0.5817
 7244TIP3    H145927   5.114   3.333   2.023  0.4047  1.2118 -1.1706
 7244TIP3    H245928   5.142   3.342   2.171 -0.0609 -0.3987 -0.9606
 7245TIP3   OH245929   6.579   1.166   1.687  0.4647  0.4330 -0.1644
 7245TIP3    H145930   6.637   1.151   1.762  0.1562  1.0070  0.1991
 7245TIP3    H245931   6.557   1.259   1.692 -1.5351 -0.0279  0.4935
 7246TIP3   OH245932   4.865   0.216   1.495  0.0228 -0.1245  0.3151
 7246TIP3    H145933   4.894   0.301   1.462  0.0476 -0.1951  0.1558
 7246TIP3    H245934   4.812   0.238   1.572 -1.4359  0.1596 -0.7223
 7247TIP3   OH245935   6.896   6.772   1.593  0.2092 -0.2360 -0.5250
 7247TIP3    H145936   6.850   6.787   1.676 -0.9311 -0.5152 -1.0798
 7247TIP3    H245937   6.931   6.684   1.600  1.5037  0.3191  0.2750
 7248TIP3   OH245938   0.096   5.166   2.143  0.3530  0.5724  0.6298
 7248TIP3    H145939   0.098   5.162   2.238  1.5321  3.6724  0.8460
 7248TIP3    H245940   0.188   5.167   2.117  0.1217  2.2590 -0.3013
 7249TIP3   OH245941   2.387   7.231   0.729  0.3894 -0.1453  0.0367
 7249TIP3    H145942   2.398   7.202   0.819 -0.3544  2.4409  1.0648
 7249TIP3    H245943   2.371   7.151   0.679 -0.7557 -1.5326  2.4662
 7250TIP3   OH245944   1.241   5.085   1.591  0.0434 -0.3063 -0.1302
 7250TIP3    H145945   1.317   5.144   1.591  0.0536 -0.3066  0.6920
 7250TIP3    H245946   1.188   5.114   1.665  0.0324 -1.3026  0.2738
 7251TIP3   OH245947   2.431   2.677   2.534  0.0029 -0.3537 -0.0593
 7251TIP3    H145948   2.434   2.581   2.530  1.6996 -0.3002 -1.3727
 7251TIP3    H245949   2.348   2.697   2.576  0.7077 -2.4471  2.5921
 7252TIP3   OH245950   5.157   0.465   0.929  0.0551  0.0086 -0.3592
 7252TIP3    H145951   5.242   0.462   0.885  0.0144 -0.9340 -0.3776
 7252TIP3    H245952   5.174   0.431   1.016 -0.0973  0.8198  0.0001
 7253TIP3   OH245953   1.616   2.346   2.150  0.3877 -0.2060 -0.0715
 7253TIP3    H145954   1.544   2.319   2.094  0.5357 -1.4752  0.3219
 7253TIP3    H245955   1.690   2.293   2.121  1.2613  1.2485 -0.6341
 7254TIP3   OH245956   6.652   6.120   2.719 -0.2914 -0.6849  0.4707
 7254TIP3    H145957   6.583   6.055   2.708  0.4277 -1.2845 -0.6947
 7254TIP3    H245958   6.690   6.101   2.804 -0.5973 -1.2939  0.4750
 7255TIP3   OH245959   0.039   0.848   0.795  0.3690  0.3610 -0.5823
 7255TIP3    H145960  -0.018   0.859   0.870  0.0685  0.4195 -0.8191
 7255TIP3    H245961   0.042   0.934   0.753 -3.6518 -0.7020 -3.6412
 7256TIP3   OH245962   5.754   0.473   1.576  0.1646 -0.2443  0.1194
 7256TIP3    H145963   5.710   0.396   1.613 -0.4405  0.6839  1.4033
 7256TIP3    H245964   5.838   0.440   1.545 -0.8676 -1.8052 -1.1989
 7257TIP3   OH245965   2.219   4.981   1.581  0.4701 -0.0869 -0.0872
 7257TIP3    H145966   2.187   4.906   1.531  1.4383 -1.4264  1.2350
 7257TIP3    H245967   2.302   5.004   1.539  0.1437  0.3076 -0.5305
 7258TIP3   OH245968   4.448   6.258   0.881  0.7266  0.1517  0.3111
 7258TIP3    H145969   4.496   6.258   0.964  0.1838 -0.8178  0.6379
 7258TIP3    H245970   4.512   6.228   0.816  0.9249  0.1338  0.5125
 7259TIP3   OH245971   4.558   3.736   2.193  0.6486 -0.6758 -0.8153
 7259TIP3    H145972   4.496   3.742   2.265  0.7727  2.4356 -0.8103
 7259TIP3    H245973   4.637   3.698   2.232  0.0607 -0.8963  0.1783
 7260TIP3   OH245974   1.898   3.662   3.056  0.4417 -0.5024  0.2524
 7260TIP3    H145975   1.898   3.738   3.114  3.1054 -1.3116  1.4791
 7260TIP3    H245976   1.821   3.611   3.082 -0.1716  0.7189  0.8779
 7261TIP3   OH245977   2.565   6.499   1.114  0.2804  0.2876  0.5802
 7261TIP3    H145978   2.486   6.546   1.088 -1.6768 -3.3873 -0.8025
 7261TIP3    H245979   2.613   6.484   1.033 -0.1591 -1.6844  0.6423
 7262TIP3   OH245980   7.250   5.727   1.822  0.0914 -0.1248 -0.4173
 7262TIP3    H145981   7.166   5.682   1.834 -0.3222  0.8969  0.6536
 7262TIP3    H245982   7.245   5.764   1.734 -0.7040  0.1512 -0.2652
 7263TIP3   OH245983   0.774   5.060   0.751 -0.5774 -0.1122  0.3842
 7263TIP3    H145984   0.718   5.002   0.699 -0.6171  0.4173 -0.1759
 7263TIP3    H245985   0.752   5.148   0.721 -1.2853  0.2879  1.9674
 7264TIP3   OH245986   3.844   6.892   2.122 -0.1463  0.1194  0.2887
 7264TIP3    H145987   3.756   6.862   2.102 -0.2971  0.8440 -0.1554
 7264TIP3    H245988   3.835   6.937   2.206 -0.2175  0.2645  0.2040
 7265TIP3   OH245989   4.580   5.281   7.982 -0.2293  0.4168  0.0536
 7265TIP3    H145990   4.552   5.269   7.891  1.0677 -1.6633 -0.1338
 7265TIP3    H245991   4.600   5.193   8.013  2.6363  1.3561  1.2417
 7266TIP3   OH245992   1.742   0.758   2.887 -0.0808  0.0535  0.6873
 7266TIP3    H145993   1.838   0.759   2.892  0.0746 -0.7787 -1.2879
 7266TIP3    H245994   1.717   0.682   2.941  0.2697  0.7902  1.9386
 7267TIP3   OH245995   6.876   1.630   3.573 -0.2326 -0.4396  0.1959
 7267TIP3    H145996   6.947   1.581   3.533  0.0041  0.5539 -0.6484
 7267TIP3    H245997   6.909   1.720   3.578 -2.2412  0.5921 -2.4594
 7268TIP3   OH245998   7.023   2.129   2.788 -0.0681  0.1210 -0.0687
 7268TIP3    H145999   6.958   2.125   2.717 -0.7199  0.9058  0.4761
 7268TIP3    H246000   7.106   2.150   2.743 -1.0371  4.2338 -0.3652
 7269TIP3   OH246001   5.773   5.334   0.646 -0.4859 -0.7239  0.5436
 7269TIP3    H146002   5.842   5.299   0.702  1.0772 -0.8909 -1.3710
 7269TIP3    H246003   5.693   5.326   0.698  0.9806  0.0608  3.1100
 7270TIP3   OH246004   3.259   1.109   2.706  0.4416  0.6241  0.0827
 7270TIP3    H146005   3.237   1.099   2.614 -0.4901  1.5039  0.1865
 7270TIP3    H246006   3.350   1.137   2.707  0.6528 -0.0321 -0.5327
 7271TIP3   OH246007   4.663   6.177   1.065  0.2785  0.3152 -0.4070
 7271TIP3    H146008   4.671   6.088   1.030 -1.2939  0.0245 -0.1438
 7271TIP3    H246009   4.627   6.164   1.153 -1.5025  1.2428 -0.9502
 7272TIP3   OH246010   0.220   4.617   0.508 -0.4453  0.4294  0.4482
 7272TIP3    H146011   0.164   4.561   0.453  0.6571  1.0272 -1.3611
 7272TIP3    H246012   0.235   4.565   0.587  0.2492 -1.7265 -1.0174
 7273TIP3   OH246013   6.574   2.171   3.140 -0.4560  0.0517  0.4979
 7273TIP3    H146014   6.606   2.082   3.155  1.7597  0.6520 -0.3793
 7273TIP3    H246015   6.626   2.226   3.199  0.4276  1.0933 -1.1822
 7274TIP3   OH246016   2.923   5.635   1.010  0.0552 -0.9759 -0.3651
 7274TIP3    H146017   2.989   5.608   1.074  0.1519 -1.8093 -0.8088
 7274TIP3    H246018   2.960   5.713   0.969  0.1436 -0.6308  0.3512
 7275TIP3   OH246019   0.162   0.804   2.070  0.2246 -0.4421  0.9728
 7275TIP3    H146020   0.188   0.768   2.155  2.7815  0.4256  0.6542
 7275TIP3    H246021   0.204   0.745   2.006  0.6181  0.4585  0.3861
 7276TIP3   OH246022   1.741   7.065   2.111  0.6217  0.8259  0.3238
 7276TIP3    H146023   1.719   6.974   2.090 -0.0990  0.8595  0.9261
 7276TIP3    H246024   1.705   7.079   2.198  1.5499  1.4106  0.6274
 7277TIP3   OH246025   3.380   3.092   1.043  0.1489  0.4479  0.1074
 7277TIP3    H146026   3.420   3.005   1.032 -0.6954  0.3314 -3.1268
 7277TIP3    H246027   3.453   3.148   1.068  1.5996 -0.5168 -1.6400
 7278TIP3   OH246028   2.572   1.021   2.107  0.1361  0.5417 -0.5652
 7278TIP3    H146029   2.622   0.951   2.149 -1.6978  0.2354  1.2824
 7278TIP3    H246030   2.573   0.999   2.014 -0.8316 -2.3001  0.0011
 7279TIP3   OH246031   6.772   4.159   1.111 -0.1175 -0.2085 -0.9326
 7279TIP3    H146032   6.681   4.187   1.114  0.1400  0.8091 -1.9545
 7279TIP3    H246033   6.793   4.137   1.202 -0.9551  0.9607 -0.4291
 7280TIP3   OH246034   1.114   2.304   2.141 -0.5281  0.1795 -0.2093
 7280TIP3    H146035   1.194   2.291   2.193  0.2979 -1.4412 -1.8048
 7280TIP3    H246036   1.075   2.384   2.178  1.8199  1.0426  0.6138
 7281TIP3   OH246037   3.942   6.830   2.930  0.6500 -0.1433 -0.3392
 7281TIP3    H146038   3.982   6.916   2.948  0.7966 -0.1456 -0.6405
 7281TIP3    H246039   3.928   6.830   2.836  1.7128 -0.8988 -0.5211
 7282TIP3   OH246040   3.949   5.601   0.845 -0.6559 -0.3536 -0.7282
 7282TIP3    H146041   3.911   5.542   0.910  1.0401  0.4287  1.0784
 7282TIP3    H246042   3.879   5.663   0.824 -0.8848  0.1742  1.3982
 7283TIP3   OH246043   6.667   0.340   1.882 -0.5549 -0.4238 -0.2377
 7283TIP3    H146044   6.645   0.297   1.800  2.6427 -0.0711 -1.4085
 7283TIP3    H246045   6.684   0.268   1.943 -1.5342 -0.6981 -0.2795
 7284TIP3   OH246046   0.203   0.498   1.358 -0.2048  0.1500 -0.2782
 7284TIP3    H146047   0.231   0.417   1.400 -0.6943  0.8740  1.5526
 7284TIP3    H246048   0.207   0.479   1.264 -0.5642 -2.0750  0.0948
 7285TIP3   OH246049   0.800   6.501   2.029 -0.5129  0.4471  0.2133
 7285TIP3    H146050   0.868   6.495   1.962 -1.5984 -0.3520 -0.8678
 7285TIP3    H246051   0.848   6.513   2.111  0.8588  1.6997 -0.7081
 7286TIP3   OH246052   6.691   7.372   1.575  0.1718  0.2381  0.2090
 7286TIP3    H146053   6.652   7.302   1.522 -1.7845  0.7282  0.9364
 7286TIP3    H246054   6.775   7.336   1.604 -2.0965 -3.1977  3.2593
 7287TIP3   OH246055   6.435   7.441   1.737  0.2558  0.0935  0.1843
 7287TIP3    H146056   6.509   7.404   1.689 -0.1892 -0.1995 -0.2768
 7287TIP3    H246057   6.474   7.509   1.792  0.9410 -0.3986  0.3213
 7288TIP3   OH246058   2.997   0.654   0.618  0.3010 -0.2349 -0.1373
 7288TIP3    H146059   3.009   0.749   0.621 -0.4013 -0.0563 -1.8326
 7288TIP3    H246060   2.923   0.637   0.677  0.1265  0.3253 -0.1894
 7289TIP3   OH246061   1.990   2.732   1.849  0.2023  0.1836  0.1731
 7289TIP3    H146062   2.022   2.671   1.915 -0.7153 -0.7114 -0.1904
 7289TIP3    H246063   1.912   2.690   1.813  0.0519  1.1739 -0.6990
 7290TIP3   OH246064   0.407   6.552   0.823 -0.4457 -0.0873  0.0630
 7290TIP3    H146065   0.389   6.535   0.915 -0.2775  2.0928  0.5480
 7290TIP3    H246066   0.464   6.480   0.796 -0.2859 -0.6227  1.7390
 7291TIP3   OH246067   5.254   5.609   2.099 -0.0333  0.0181  0.8053
 7291TIP3    H146068   5.253   5.524   2.143 -0.7617 -1.2704 -1.5223
 7291TIP3    H246069   5.183   5.604   2.035  1.7982  1.1685 -1.4764
 7292TIP3   OH246070   7.340   2.673   0.696  0.2444  0.0230  0.0670
 7292TIP3    H146071   7.371   2.711   0.779  1.1411  0.7387 -0.5817
 7292TIP3    H246072   7.358   2.580   0.704  0.5926  0.1272  0.5555
 7293TIP3   OH246073   6.510   3.845   1.291 -0.0149  0.0767  0.1536
 7293TIP3    H146074   6.514   3.885   1.378 -2.2730 -1.7053  1.1713
 7293TIP3    H246075   6.426   3.874   1.255 -0.7538 -1.9731  0.0878
 7294TIP3   OH246076   2.058   2.527   1.998  0.2111  0.2968 -0.2610
 7294TIP3    H146077   2.014   2.474   1.932 -0.5311 -0.4474  0.8110
 7294TIP3    H246078   2.003   2.521   2.075  2.4596 -1.1617  1.3403
 7295TIP3   OH246079   6.761   7.312   3.319  0.3966  0.3752  0.0390
 7295TIP3    H146080   6.707   7.266   3.255  1.0996 -0.7408  0.2240
 7295TIP3    H246081   6.700   7.333   3.390 -0.2715  1.1673 -0.7545
 7296TIP3   OH246082   5.360   5.878   1.926 -0.2329 -0.7130 -0.0832
 7296TIP3    H146083   5.284   5.879   1.984 -0.3095  0.6626 -0.1773
 7296TIP3    H246084   5.323   5.862   1.839 -0.4718  0.3121 -0.1809
 7297TIP3   OH246085   6.476   3.813   0.677  0.0363 -0.4042  0.0445
 7297TIP3    H146086   6.426   3.802   0.758 -1.4130 -2.1342 -0.9942
 7297TIP3    H246087   6.410   3.806   0.608  1.7247 -4.6170 -1.5087
 7298TIP3   OH246088   4.477   4.525   0.970 -0.1942  0.9399 -0.2354
 7298TIP3    H146089   4.570   4.534   0.950  0.0734  0.9245  0.9594
 7298TIP3    H246090   4.469   4.548   1.062 -0.6909 -3.1320  0.9317
 7299TIP3   OH246091   7.397   1.594   1.149  0.1523  0.4011 -0.3270
 7299TIP3    H146092   7.380   1.544   1.228  0.2072  0.4744 -0.2687
 7299TIP3    H246093   7.362   1.681   1.168 -0.2391  0.2936 -0.5486
 7300TIP3   OH246094   3.324   1.366   2.498 -0.3110  0.1713 -0.1662
 7300TIP3    H146095   3.394   1.350   2.561 -0.2449 -3.0539 -0.8661
 7300TIP3    H246096   3.249   1.391   2.551  0.4559  0.2458  0.9142
 7301TIP3   OH246097   5.506   2.071   0.756 -0.1265  0.1427  0.4413
 7301TIP3    H146098   5.571   2.004   0.780 -0.4575  0.3824  2.1551
 7301TIP3    H246099   5.435   2.021   0.715 -0.0180 -0.4716  0.9775
 7302TIP3   OH246100   1.501   5.523   0.663  0.3661 -0.1737 -0.0932
 7302TIP3    H146101   1.495   5.446   0.720  1.0871  0.6980  1.2306
 7302TIP3    H246102   1.415   5.529   0.621 -0.2360 -0.7890  1.0101
 7303TIP3   OH246103   0.941   4.221   1.508 -0.2755  0.0926  0.0356
 7303TIP3    H146104   0.908   4.270   1.433 -1.0883  0.5182  0.6542
 7303TIP3    H246105   1.027   4.260   1.525 -0.8341  1.2139  0.4095
 7304TIP3   OH246106   1.545   2.970   2.210 -0.1302 -0.1899  0.1664
 7304TIP3    H146107   1.539   2.963   2.306  2.1654  2.1186  0.6009
 7304TIP3    H246108   1.466   3.017   2.184 -0.1697  0.2843  1.0993
 7305TIP3   OH246109   4.595   0.639   2.341  0.0241 -0.2372 -0.1146
 7305TIP3    H146110   4.514   0.599   2.309  0.7220 -0.3683 -1.7954
 7305TIP3    H246111   4.575   0.733   2.344 -1.4087 -0.4805  3.2464
 7306TIP3   OH246112   1.236   2.800   3.073  0.2901  0.1831 -0.2402
 7306TIP3    H146113   1.146   2.813   3.041 -0.2232  0.8693  1.3895
 7306TIP3    H246114   1.290   2.842   3.006 -0.7097  1.1430 -0.4855
 7307TIP3   OH246115   0.803   1.638   0.750  0.7295 -0.2648 -0.3003
 7307TIP3    H146116   0.779   1.549   0.775  0.4130 -0.4453 -1.2409
 7307TIP3    H246117   0.720   1.684   0.738  0.8854  0.4113  1.0092
 7308TIP3   OH246118   5.495   0.097   3.138  0.6719  0.3857 -0.4934
 7308TIP3    H146119   5.422   0.089   3.077 -0.9601 -0.7438  1.4933
 7308TIP3    H246120   5.566   0.049   3.097  0.1309  0.9460 -2.1693
 7309TIP3   OH246121   0.419   0.545   1.657  0.4118  0.1829  0.6663
 7309TIP3    H146122   0.464   0.524   1.739  0.3855 -1.9853  0.1787
 7309TIP3    H246123   0.335   0.500   1.663 -0.5585  1.8352  0.3346
 7310TIP3   OH246124   1.522   2.595   0.466 -0.1650 -0.0588 -0.1153
 7310TIP3    H146125   1.444   2.542   0.484 -1.3132  0.3256 -3.3328
 7310TIP3    H246126   1.488   2.676   0.429  1.7009 -0.4575 -2.9952
 7311TIP3   OH246127   6.214   4.306   1.278 -0.1365 -0.5382 -0.3706
 7311TIP3    H146128   6.125   4.271   1.266 -0.8388  1.3172 -0.9763
 7311TIP3    H246129   6.201   4.388   1.326  1.2659 -0.2350 -0.4667
 7312TIP3   OH246130   1.476   1.662   1.775 -0.0623 -0.4707 -0.2454
 7312TIP3    H146131   1.440   1.735   1.826  1.6694  1.1325 -1.1803
 7312TIP3    H246132   1.411   1.593   1.783 -0.6880  0.3120  2.6515
 7313TIP3   OH246133   0.662   4.147   3.088  0.5815 -0.5113 -0.1912
 7313TIP3    H146134   0.725   4.088   3.047 -0.2877 -1.0568 -0.7733
 7313TIP3    H246135   0.704   4.175   3.169  1.9838 -0.0734 -1.0467
 7314TIP3   OH246136   0.216   3.034   2.387 -0.1743 -0.1741  0.0376
 7314TIP3    H146137   0.309   3.055   2.378 -0.2307  0.0224 -0.0970
 7314TIP3    H246138   0.189   3.078   2.468 -0.0618 -0.5434  0.2752
 7315TIP3   OH246139   1.603   4.623   2.171  0.0245  0.3052  0.0923
 7315TIP3    H146140   1.524   4.606   2.119 -0.2210  2.8385 -0.5325
 7315TIP3    H246141   1.584   4.706   2.215  1.5091 -0.1545  1.6958
 7316TIP3   OH246142   7.005   3.008   2.116 -0.3321  0.2311  0.8941
 7316TIP3    H146143   6.965   3.077   2.169  1.0784  1.4630  0.4332
 7316TIP3    H246144   7.089   3.045   2.089  0.2491 -1.4971  0.2127
 7317TIP3   OH246145   5.791   0.389   1.111 -0.4243 -0.2626  0.8480
 7317TIP3    H146146   5.759   0.447   1.180  0.2634 -0.5540  1.4247
 7317TIP3    H246147   5.886   0.387   1.123 -0.2020  0.2830 -0.5884
 7318TIP3   OH246148   0.996   3.025   2.093  0.0303  0.3041  0.3001
 7318TIP3    H146149   0.996   3.111   2.051  1.3688  0.0504 -0.2811
 7318TIP3    H246150   1.056   2.972   2.039  0.4230 -0.5461  1.5140
 7319TIP3   OH246151   1.655   2.921   1.948 -0.4235  0.3760  0.1183
 7319TIP3    H146152   1.726   2.985   1.956  0.1398 -0.2584  0.3711
 7319TIP3    H246153   1.609   2.926   2.032 -0.6956  0.8048 -0.0542
 7320TIP3   OH246154   7.013   6.485   2.583  0.2001  0.5470 -0.4801
 7320TIP3    H146155   6.997   6.394   2.606  0.8945  0.7214  0.8105
 7320TIP3    H246156   6.941   6.534   2.624  0.2830  0.6507 -0.4562
 7321TIP3   OH246157   2.917   4.934   2.077 -0.3678  0.6591  0.0591
 7321TIP3    H146158   2.877   4.964   1.995 -0.9726  0.2919  0.2105
 7321TIP3    H246159   2.953   4.848   2.055 -1.8067 -0.0920  0.5319
 7322TIP3   OH246160   7.642   6.583   1.742 -0.6254 -0.4477 -0.0095
 7322TIP3    H146161   7.649   6.489   1.756 -0.6114 -0.4452  0.0013
 7322TIP3    H246162   7.568   6.593   1.682 -0.2200 -0.5082 -0.5260
 7323TIP3   OH246163   3.342   0.730   1.232 -0.7154 -0.1336 -0.6542
 7323TIP3    H146164   3.306   0.651   1.272 -1.2003 -0.2713 -1.3359
 7323TIP3    H246165   3.326   0.718   1.138  1.7564 -0.5237 -1.0911
 7324TIP3   OH246166   0.851   3.855   0.944  0.0076  0.0890  0.2852
 7324TIP3    H146167   0.763   3.840   0.909 -0.3119  0.9582  0.6989
 7324TIP3    H246168   0.903   3.881   0.868  0.3727 -2.1214 -0.3043
 7325TIP3   OH246169   0.289   3.641   2.268 -0.6361  0.6796  0.2165
 7325TIP3    H146170   0.263   3.728   2.238 -2.5639 -0.1427 -0.6868
 7325TIP3    H246171   0.326   3.599   2.190  1.5681  1.0717  0.9640
 7326TIP3   OH246172   7.525   1.779   1.915  0.4512  0.0107  0.7702
 7326TIP3    H146173   7.475   1.857   1.889  0.4908  0.2827  1.4857
 7326TIP3    H246174   7.565   1.803   1.999  3.3418  0.5158 -0.6064
 7327TIP3   OH246175   7.554   4.094   1.747  0.4075 -0.1537  0.1164
 7327TIP3    H146176   7.525   4.011   1.783  0.6404 -2.0288 -3.6247
 7327TIP3    H246177   7.642   4.107   1.783  0.2398 -1.3380  0.9817
 7328TIP3   OH246178   4.516   5.089   0.957 -0.4533 -0.9069  0.2202
 7328TIP3    H146179   4.508   5.097   0.862  1.0067 -0.4481  0.1089
 7328TIP3    H246180   4.467   5.163   0.992  1.5727  0.7986 -0.3341
 7329TIP3   OH246181   5.211   7.601   1.634 -0.7633  0.2872  0.1936
 7329TIP3    H146182   5.253   7.664   1.576 -1.6126  1.3377  0.6835
 7329TIP3    H246183   5.123   7.589   1.598 -1.1431  0.5984  0.9772
 7330TIP3   OH246184   6.557   2.538   1.799  0.0670  0.3742  0.2083
 7330TIP3    H146185   6.496   2.594   1.749  0.7496  0.2972 -0.7412
 7330TIP3    H246186   6.570   2.585   1.881 -0.3479  0.9905 -0.0656
 7331TIP3   OH246187   1.999   1.038   2.080  0.3929 -0.3447  0.5239
 7331TIP3    H146188   1.924   0.978   2.083  1.0848 -1.2133  1.0105
 7331TIP3    H246189   1.973   1.106   2.018 -1.2553  0.0048  1.5353
 7332TIP3   OH246190   0.899   5.332   3.207 -0.4372 -0.0389  0.4018
 7332TIP3    H146191   0.898   5.237   3.193 -0.3771  0.0613 -0.3257
 7332TIP3    H246192   0.861   5.344   3.294 -0.3721 -0.7357  0.5310
 7333TIP3   OH246193   4.216   1.561   1.333 -0.0889  0.1842 -0.7214
 7333TIP3    H146194   4.158   1.508   1.278  0.7338 -1.8996  0.2731
 7333TIP3    H246195   4.158   1.617   1.383 -1.3340 -1.9876  0.4035
 7334TIP3   OH246196   2.830   5.367   2.156 -0.9567 -0.4623 -0.1871
 7334TIP3    H146197   2.921   5.354   2.181 -0.6441  1.1795 -0.4070
 7334TIP3    H246198   2.823   5.329   2.069 -0.9272 -2.1105  0.4937
 7335TIP3   OH246199   5.731   6.469   3.385  0.5107  0.2091  0.2190
 7335TIP3    H146200   5.823   6.455   3.408  0.8176 -0.5003 -1.2915
 7335TIP3    H246201   5.698   6.381   3.367 -0.5648  0.4320  1.0645
 7336TIP3   OH246202   6.800   4.860   0.860  0.3507 -0.4051 -0.2311
 7336TIP3    H146203   6.775   4.796   0.927  1.1029  0.1866  0.6304
 7336TIP3    H246204   6.872   4.818   0.812  0.2830 -0.5394 -0.2164
 7337TIP3   OH246205   5.789   1.795   2.984  0.4552 -0.2102  0.3919
 7337TIP3    H146206   5.851   1.791   3.056  0.3410 -0.7788  0.4615
 7337TIP3    H246207   5.711   1.836   3.022  1.2097  1.6895 -0.0172
 7338TIP3   OH246208   7.446   4.472   1.434 -0.5942  0.0804  0.0962
 7338TIP3    H146209   7.371   4.514   1.476 -0.7831  0.5128 -0.6390
 7338TIP3    H246210   7.476   4.407   1.497 -1.2096  0.3209  0.6539
 7339TIP3   OH246211   7.112   7.303   2.421 -0.2208 -0.3376 -0.2672
 7339TIP3    H146212   7.127   7.316   2.515 -0.0775 -0.4049 -0.2810
 7339TIP3    H246213   7.199   7.292   2.384 -0.2844 -0.4299 -0.3914
 7340TIP3   OH246214   7.490   1.874   2.473 -0.1149 -0.0146  0.3958
 7340TIP3    H146215   7.522   1.793   2.512  1.8492 -0.3012 -1.6765
 7340TIP3    H246216   7.526   1.876   2.385 -1.3049  2.4301 -0.1494
 7341TIP3   OH246217   2.176   2.888   1.970 -0.3030  0.2696 -0.0469
 7341TIP3    H146218   2.101   2.944   1.950 -0.9374 -0.2797  0.6860
 7341TIP3    H246219   2.187   2.834   1.892 -0.2546  0.8091 -0.4128
 7342TIP3   OH246220   7.038   6.787   1.076 -0.4420 -0.4851  0.8197
 7342TIP3    H146221   7.031   6.873   1.036 -1.1307 -1.8767 -2.3638
 7342TIP3    H246222   6.985   6.793   1.156  0.0651  2.1575  1.0464
 7343TIP3   OH246223   4.766   0.661   1.785  0.1306  0.3174 -0.0907
 7343TIP3    H146224   4.772   0.667   1.880 -1.0874  0.0911  0.0184
 7343TIP3    H246225   4.846   0.615   1.758  0.6867  0.7553  0.7700
 7344TIP3   OH246226   7.543   7.036   2.455  0.5683 -0.2241  0.3628
 7344TIP3    H146227   7.569   6.946   2.474  0.6095 -0.0414  1.2123
 7344TIP3    H246228   7.452   7.041   2.485  0.5815  0.0246  0.3581
 7345TIP3   OH246229   4.361   5.959   1.823 -0.5632 -0.0875  0.0007
 7345TIP3    H146230   4.274   5.999   1.814 -0.5543 -0.1913 -0.5880
 7345TIP3    H246231   4.355   5.877   1.774  0.1011  0.2762 -0.7042
 7346TIP3   OH246232   7.660   1.358   1.955  0.2345 -0.9166 -0.3542
 7346TIP3    H146233   7.738   1.305   1.971  0.4700 -0.1934  1.0238
 7346TIP3    H246234   7.590   1.311   2.001  0.1205 -0.8530 -0.4625
 7347TIP3   OH246235   3.570   6.368   3.332 -0.3809  1.3118 -0.0934
 7347TIP3    H146236   3.477   6.392   3.334 -0.3991  1.1847  1.5165
 7347TIP3    H246237   3.608   6.414   3.406  0.4556 -0.1610  0.4318
 7348TIP3   OH246238   3.464   3.283   2.629 -0.4596 -0.0784 -0.5029
 7348TIP3    H146239   3.517   3.247   2.700 -0.4990 -3.4182 -1.9912
 7348TIP3    H246240   3.376   3.291   2.666 -0.1412 -0.2032  0.2977
 7349TIP3   OH246241   5.888   7.491   1.377 -0.0221  0.6218  0.5475
 7349TIP3    H146242   5.911   7.582   1.393  3.2715  0.2696 -1.4113
 7349TIP3    H246243   5.831   7.494   1.300 -1.2706  1.0492  1.4434
 7350TIP3   OH246244   4.728   4.833   3.200  0.6016  0.1627 -0.3228
 7350TIP3    H146245   4.795   4.815   3.266 -1.2517 -1.7877  1.1249
 7350TIP3    H246246   4.777   4.835   3.117  2.6656  0.4828  0.8360
 7351TIP3   OH246247   6.710   1.964   2.824 -0.5141  0.0868 -0.1621
 7351TIP3    H146248   6.636   1.943   2.882 -0.0697 -1.2749 -0.0535
 7351TIP3    H246249   6.767   2.018   2.878 -0.1701 -1.0580  0.6613
 7352TIP3   OH246250   7.188   7.661   2.210 -0.1611  0.8320 -0.6658
 7352TIP3    H146251   7.269   7.660   2.159  0.6001  1.3275  0.4714
 7352TIP3    H246252   7.126   7.611   2.158  1.4992 -1.4784 -0.5805
 7353TIP3   OH246253   0.942   4.894   2.515  0.5589  0.4523  0.0419
 7353TIP3    H146254   0.855   4.892   2.474  0.4121 -0.7346  0.3626
 7353TIP3    H246255   1.001   4.922   2.445 -0.0572  1.1549 -0.2134
 7354TIP3   OH246256   7.316   1.840   1.231 -0.0715 -0.3565  0.4657
 7354TIP3    H146257   7.275   1.926   1.234 -0.1732 -0.4229  1.2236
 7354TIP3    H246258   7.268   1.788   1.296 -0.0596 -1.0055 -0.0321
 7355TIP3   OH246259   6.764   2.266   2.618 -0.1890  0.9624 -0.0399
 7355TIP3    H146260   6.689   2.268   2.559 -0.6481  2.4833  0.5591
 7355TIP3    H246261   6.726   2.275   2.705  0.6359  0.9718  0.3288
 7356TIP3   OH246262   1.717   7.410   2.103  0.6399 -0.1456 -0.3432
 7356TIP3    H146263   1.634   7.443   2.137  0.4010  0.3199 -1.3595
 7356TIP3    H246264   1.784   7.451   2.158  0.2683  0.7366 -0.5429
 7357TIP3   OH246265   2.635   1.308   1.331 -0.0966 -0.4680  0.4648
 7357TIP3    H146266   2.620   1.217   1.304  3.4007 -0.7276 -1.1068
 7357TIP3    H246267   2.668   1.301   1.421  0.3190 -0.7997  0.2915
 7358TIP3   OH246268   1.659   5.559   1.962  0.3626 -0.1242 -0.1270
 7358TIP3    H146269   1.655   5.544   2.057 -0.0831  0.4273 -0.0571
 7358TIP3    H246270   1.685   5.474   1.926  2.4390  0.1178  0.6226
 7359TIP3   OH246271   0.747   2.908   1.886 -0.3986  0.4915 -0.2762
 7359TIP3    H146272   0.797   2.832   1.914 -1.8076  0.0308  1.1291
 7359TIP3    H246273   0.739   2.962   1.965  3.0782  3.6986 -1.7870
 7360TIP3   OH246274   5.441   5.663   0.711 -0.2775 -0.2919 -0.5840
 7360TIP3    H146275   5.391   5.581   0.711  0.9328 -1.0670  0.7742
 7360TIP3    H246276   5.386   5.724   0.761 -0.2391 -0.9021  0.2175
 7361TIP3   OH246277   5.028   4.844   2.504 -0.9048  0.5153 -0.3567
 7361TIP3    H146278   5.011   4.843   2.598 -0.6598 -3.4514 -0.1713
 7361TIP3    H246279   5.099   4.907   2.493  0.5445 -0.4115  2.5255
 7362TIP3   OH246280   6.474   2.797   3.103  0.2042 -0.2191  0.1448
 7362TIP3    H146281   6.458   2.792   3.009 -0.3495 -2.6963  0.3194
 7362TIP3    H246282   6.562   2.835   3.110  0.2468  0.0152 -1.3575
 7363TIP3   OH246283   1.521   0.078   1.692 -0.3784 -0.3852  0.2750
 7363TIP3    H146284   1.438   0.036   1.667 -1.1803 -0.0818  2.2817
 7363TIP3    H246285   1.505   0.113   1.779  1.4650  0.8651  0.1608
 7364TIP3   OH246286   0.156   2.528   2.011 -0.1741  0.1362  0.0699
 7364TIP3    H146287   0.204   2.563   2.086 -0.7525 -1.0753  1.0644
 7364TIP3    H246288   0.197   2.442   1.995  0.0184  0.4321 -1.0936
 7365TIP3   OH246289   7.214   6.069   1.766 -0.2370  0.1458  0.4765
 7365TIP3    H146290   7.158   5.995   1.789 -1.7916  1.4132  0.9684
 7365TIP3    H246291   7.269   6.037   1.695  0.2487 -1.9420  1.7195
 7366TIP3   OH246292   3.414   4.499   1.559  0.4152 -0.4782  0.6833
 7366TIP3    H146293   3.379   4.457   1.638 -1.2210  2.1409  1.4829
 7366TIP3    H246294   3.495   4.541   1.589  0.3113 -0.3122  0.7349
 7367TIP3   OH246295   6.800   6.837   1.839 -0.4223 -0.4895  0.1614
 7367TIP3    H146296   6.739   6.908   1.821 -0.6486 -0.4292  1.1422
 7367TIP3    H246297   6.794   6.822   1.933  0.5768 -0.9351  0.1746
 7368TIP3   OH246298   4.956   2.835   1.426 -0.0109 -0.1432  0.1901
 7368TIP3    H146299   5.019   2.883   1.372 -0.9346 -0.7218 -1.4807
 7368TIP3    H246300   5.003   2.756   1.453  0.2961 -0.1238 -0.2682
 7369TIP3   OH246301   5.465   1.705   2.399  0.2002 -0.2025 -0.3678
 7369TIP3    H146302   5.521   1.755   2.340  0.8108 -1.1061 -0.5665
 7369TIP3    H246303   5.524   1.670   2.465 -0.6717  2.3096  1.9618
 7370TIP3   OH246304   5.524   0.270   2.796  0.0257  0.0269 -0.0006
 7370TIP3    H146305   5.594   0.244   2.855  0.5640 -1.3717 -1.1856
 7370TIP3    H246306   5.530   0.208   2.723 -2.4992 -0.2088 -0.1067
 7371TIP3   OH246307   2.017   5.983   0.981  0.2452 -0.0276 -0.0817
 7371TIP3    H146308   2.061   6.049   1.034 -0.8929  1.0157 -0.3861
 7371TIP3    H246309   2.025   6.015   0.891 -0.9662  0.1243 -0.1622
 7372TIP3   OH246310   5.269   2.823   0.725 -0.6047  0.5834 -0.1655
 7372TIP3    H146311   5.202   2.768   0.685 -0.4586  0.0345  0.3431
 7372TIP3    H246312   5.244   2.830   0.817  1.0312 -1.2383  0.5105
 7373TIP3   OH246313   3.643   4.848   1.219  0.0553  0.3786  0.3180
 7373TIP3    H146314   3.586   4.925   1.210  1.1299  1.3629  1.4616
 7373TIP3    H246315   3.704   4.872   1.289  1.8728 -0.6430 -0.8454
 7374TIP3   OH246316   0.545   6.544   0.441  0.0491  0.2719  0.2795
 7374TIP3    H146317   0.625   6.594   0.427  0.0466  0.4464  0.8662
 7374TIP3    H246318   0.486   6.605   0.486 -0.4280  0.1567 -0.1738
 7375TIP3   OH246319   5.815   3.255   1.892 -0.2723 -0.3173 -0.1347
 7375TIP3    H146320   5.772   3.287   1.813  0.2691  0.4756 -0.1212
 7375TIP3    H246321   5.856   3.333   1.930  2.0843 -1.2028 -0.7058
 7376TIP3   OH246322   1.846   0.865   0.473 -0.1526 -0.7104 -0.0712
 7376TIP3    H146323   1.762   0.878   0.516 -0.3630  2.5038 -1.1768
 7376TIP3    H246324   1.825   0.862   0.379  0.9103 -0.2844 -0.3392
 7377TIP3   OH246325   1.615   2.051   1.755 -0.1394 -0.1226  0.1293
 7377TIP3    H146326   1.703   2.074   1.724 -0.7835  0.1099 -1.6780
 7377TIP3    H246327   1.586   1.983   1.694 -1.7088  0.7396 -0.1453
 7378TIP3   OH246328   3.236   2.121   1.165 -0.5612 -0.6032  0.4004
 7378TIP3    H146329   3.164   2.085   1.217  0.2776 -1.0660  1.2719
 7378TIP3    H246330   3.193   2.171   1.096 -1.7197  1.1817  2.3187
 7379TIP3   OH246331   6.332   6.590   0.484  0.4337  0.1702  0.2106
 7379TIP3    H146332   6.349   6.519   0.546  1.2653 -0.6138 -0.8601
 7379TIP3    H246333   6.418   6.630   0.470  0.3086  0.1661 -0.6087
 7380TIP3   OH246334   1.318   4.458   2.520 -0.0417  0.2666 -0.0614
 7380TIP3    H146335   1.312   4.388   2.454 -0.8698 -0.3184  0.6036
 7380TIP3    H246336   1.273   4.532   2.480 -2.2513 -0.6658  0.5199
 7381TIP3   OH246337   4.045   1.850   2.301  0.1195 -0.3958 -0.3619
 7381TIP3    H146338   3.974   1.807   2.254  0.5609 -0.2945 -1.1611
 7381TIP3    H246339   4.114   1.861   2.234  0.4612  0.4796  0.1091
 7382TIP3   OH246340   2.557   4.230   2.124  0.1273 -0.7505 -0.0606
 7382TIP3    H146341   2.600   4.303   2.081  1.4285 -0.9748  0.8055
 7382TIP3    H246342   2.463   4.247   2.112  0.4112  0.7213 -0.3982
 7383TIP3   OH246343   5.044   5.482   0.688  0.2502 -0.3999 -0.1325
 7383TIP3    H146344   5.131   5.441   0.683  0.4768  0.2374 -2.2527
 7383TIP3    H246345   5.052   5.546   0.759  0.5605 -2.3476  1.7096
 7384TIP3   OH246346   1.180   3.356   2.161  0.1180  0.0762  0.2004
 7384TIP3    H146347   1.119   3.423   2.193 -0.9926 -1.4937  1.5550
 7384TIP3    H246348   1.143   3.330   2.077 -0.8512 -0.5071  0.7790
 7385TIP3   OH246349   6.442   7.660   1.527  0.1433  0.0410  0.0777
 7385TIP3    H146350   6.382   7.676   1.454  0.6012 -0.5247 -0.4421
 7385TIP3    H246351   6.388   7.670   1.606 -0.0692  1.9241 -0.2685
 7386TIP3   OH246352   3.416   4.110   2.423 -0.1727 -0.6385 -0.2199
 7386TIP3    H146353   3.452   4.072   2.343 -0.6839 -1.1128 -0.2319
 7386TIP3    H246354   3.327   4.136   2.399 -0.0900 -0.1524  0.0052
 7387TIP3   OH246355   4.208   0.828   1.174  0.2235  0.0643 -0.1919
 7387TIP3    H146356   4.201   0.739   1.138  0.1756  0.3179 -0.8171
 7387TIP3    H246357   4.119   0.850   1.200 -0.2270  0.7867 -2.1424
 7388TIP3   OH246358   3.507   1.273   1.389  0.2105  1.0382  0.2491
 7388TIP3    H146359   3.563   1.210   1.344  0.9938  1.8431  0.0583
 7388TIP3    H246360   3.546   1.282   1.476 -0.0101  1.1086  0.3390
 7389TIP3   OH246361   6.525   1.952   2.570  0.3745 -0.0127 -0.3966
 7389TIP3    H146362   6.549   2.037   2.533 -0.1648  0.6335  0.6977
 7389TIP3    H246363   6.572   1.947   2.652  0.9169 -1.0793 -0.7594
 7390TIP3   OH246364   6.480   1.914   2.950 -0.3428  0.6130  0.1667
 7390TIP3    H146365   6.418   1.985   2.933 -1.8249 -0.7842 -0.5543
 7390TIP3    H246366   6.493   1.916   3.045 -2.6894  0.0518  0.5692
 7391TIP3   OH246367   0.596   6.537   2.274  0.0378  0.2775 -0.3595
 7391TIP3    H146368   0.632   6.613   2.227  1.3708 -0.4453 -0.5703
 7391TIP3    H246369   0.599   6.563   2.366  3.4553 -0.5714 -0.0940
 7392TIP3   OH246370   3.616   6.286   2.192 -0.6253  0.2369  0.4233
 7392TIP3    H146371   3.543   6.341   2.162 -1.1643 -0.6385  0.0705
 7392TIP3    H246372   3.619   6.214   2.129 -0.0021 -0.1925  0.9307
 7393TIP3   OH246373   6.653   6.493   1.632 -0.1169  0.1474 -0.1141
 7393TIP3    H146374   6.743   6.478   1.603  0.2908  0.5212  0.9198
 7393TIP3    H246375   6.600   6.476   1.554  0.7894 -0.7039 -0.5748
 7394TIP3   OH246376   5.563   4.100   3.456  0.0238  0.1535 -0.3440
 7394TIP3    H146377   5.522   4.042   3.392 -1.5916 -0.2351  0.9777
 7394TIP3    H246378   5.653   4.068   3.463 -0.1705 -0.6700 -1.3744
 7395TIP3   OH246379   2.239   2.529   1.494  0.4746  0.2408  0.6036
 7395TIP3    H146380   2.304   2.595   1.470  0.8975 -0.2126  0.4845
 7395TIP3    H246381   2.228   2.476   1.415  0.2162  0.1065  0.7290
 7396TIP3   OH246382   3.016   6.494   1.885  0.2260 -0.3556 -0.3251
 7396TIP3    H146383   3.070   6.415   1.885  1.0556  0.1956  0.0689
 7396TIP3    H246384   3.004   6.515   1.978  0.2819  0.1543 -0.4287
 7397TIP3   OH246385   6.957   1.801   0.801 -0.0606  0.0123  0.1342
 7397TIP3    H146386   6.948   1.723   0.856  2.3308 -0.9019 -0.6285
 7397TIP3    H246387   7.049   1.828   0.813 -0.4335  1.8627 -0.7511
 7398TIP3   OH246388   5.115   4.397   1.555 -0.2824  0.0883  0.5069
 7398TIP3    H146389   5.153   4.324   1.604 -0.0462 -0.2520 -0.1700
 7398TIP3    H246390   5.069   4.356   1.481 -1.6040  0.5300  1.0618
 7399TIP3   OH246391   2.627   4.644   1.484  0.5782  0.6220 -0.1960
 7399TIP3    H146392   2.716   4.667   1.457  1.1534  0.8057  1.6543
 7399TIP3    H246393   2.639   4.596   1.566 -1.0416  1.0228  0.3138
 7400TIP3   OH246394   6.910   1.178   2.016 -0.1376 -0.3360  0.2795
 7400TIP3    H146395   6.992   1.128   2.022  0.4313  0.5289 -0.1331
 7400TIP3    H246396   6.901   1.220   2.101  0.4744  0.5163 -0.0687
 7401TIP3   OH246397   1.640   0.275   3.167  0.3170  0.1192 -1.3877
 7401TIP3    H146398   1.720   0.227   3.187  0.3379  0.0607 -1.6182
 7401TIP3    H246399   1.669   0.347   3.111  0.6889  1.8366  0.8416
 7402TIP3   OH246400   4.951   0.557   3.594  0.2675  0.4997 -0.1127
 7402TIP3    H146401   5.029   0.518   3.632 -1.8440 -1.4741  2.6610
 7402TIP3    H246402   4.951   0.528   3.503  2.0133 -0.7080  0.2280
 7403TIP3   OH246403   6.747   4.305   2.816 -0.1700 -0.0229  0.1206
 7403TIP3    H146404   6.717   4.293   2.906  0.6680  1.0512  0.5624
 7403TIP3    H246405   6.816   4.239   2.805  1.0489  1.0769  0.9186
 7404TIP3   OH246406   2.724   5.646   2.174 -0.8475  0.3835 -0.5504
 7404TIP3    H146407   2.629   5.662   2.171 -0.8395  0.3702 -0.9501
 7404TIP3    H246408   2.732   5.559   2.212 -1.0965 -0.4156 -2.2002
 7405TIP3   OH246409   4.739   0.899   1.624  0.3219  0.0538  0.1430
 7405TIP3    H146410   4.686   0.978   1.636 -2.1044 -1.5553  0.6748
 7405TIP3    H246411   4.721   0.846   1.702 -0.0074 -2.0466 -1.2861
 7406TIP3   OH246412   1.140   2.499   3.265  0.1067  0.3232  0.0473
 7406TIP3    H146413   1.221   2.448   3.277 -0.1674 -0.0880  0.1733
 7406TIP3    H246414   1.168   2.590   3.269  0.1817  0.2618  3.1408
 7407TIP3   OH246415   4.921   2.462   1.481 -0.2272  0.2133  0.1721
 7407TIP3    H146416   4.852   2.465   1.547  0.2940 -0.9102  0.7915
 7407TIP3    H246417   4.884   2.409   1.411  0.5429 -1.7374  1.1870
 7408TIP3   OH246418   0.242   6.173   1.597 -0.2353 -0.4455 -0.4236
 7408TIP3    H146419   0.168   6.218   1.558  0.9490  0.5019 -1.7004
 7408TIP3    H246420   0.261   6.221   1.678 -1.0447 -0.7657 -0.0316
 7409TIP3   OH246421   3.099   7.470   1.929  0.1459  0.5454  0.4508
 7409TIP3    H146422   3.067   7.537   1.869 -1.6484  1.2195  2.0628
 7409TIP3    H246423   3.143   7.406   1.872  2.6881  3.3960 -1.0796
 7410TIP3   OH246424   1.959   3.734   0.849  0.2895  0.3799 -0.2762
 7410TIP3    H146425   1.877   3.778   0.868 -0.5856 -1.2481 -0.0953
 7410TIP3    H246426   1.950   3.704   0.759  1.1327  1.0914 -0.6116
 7411TIP3   OH246427   6.954   7.250   1.583  0.1416  0.2499  0.6581
 7411TIP3    H146428   7.023   7.203   1.536 -0.9560 -0.3733 -0.3930
 7411TIP3    H246429   6.963   7.222   1.674  0.2984 -1.0492  0.2570
 7412TIP3   OH246430   5.219   5.496   3.266  0.4302  0.0393 -0.2856
 7412TIP3    H146431   5.126   5.518   3.271 -0.2838 -2.7238  0.4456
 7412TIP3    H246432   5.239   5.498   3.172 -0.8262 -0.9138 -0.6018
 7413TIP3   OH246433   3.239   7.360   2.343 -0.2453  0.3660 -0.0463
 7413TIP3    H146434   3.282   7.444   2.325 -2.6226  1.6015 -0.3724
 7413TIP3    H246435   3.198   7.372   2.428 -0.6207 -0.4720 -0.1050
 7414TIP3   OH246436   1.871   1.844   1.577 -0.3168  0.1549 -0.2004
 7414TIP3    H146437   1.889   1.820   1.486 -1.4038  2.3212 -1.0492
 7414TIP3    H246438   1.807   1.914   1.571 -0.8182 -0.0231  2.2897
 7415TIP3   OH246439   3.996   0.699   2.884  0.0236  0.3720  0.0312
 7415TIP3    H146440   3.946   0.695   2.802 -0.0399  0.1882  0.0774
 7415TIP3    H246441   3.932   0.725   2.950  0.1402  0.8086 -0.0295
 7416TIP3   OH246442   7.565   0.888   2.046  0.9103 -0.4042  0.0230
 7416TIP3    H146443   7.555   0.837   2.127  1.4830 -1.0712 -0.3157
 7416TIP3    H246444   7.659   0.903   2.039  0.7212  1.0292  0.3018
 7417TIP3   OH246445   2.167   4.169   1.094 -0.7749  0.1656 -0.3493
 7417TIP3    H146446   2.262   4.176   1.085 -0.6725  1.4398  1.3362
 7417TIP3    H246447   2.137   4.148   1.005  1.0792 -0.5762 -0.8597
 7418TIP3   OH246448   2.300   1.792   0.777 -0.1961  0.4966  0.5775
 7418TIP3    H146449   2.273   1.842   0.854 -0.8549  0.2623  0.5102
 7418TIP3    H246450   2.372   1.737   0.809  0.1658  1.0830  0.7841
 7419TIP3   OH246451   6.824   5.792   2.757 -0.2544  0.5971 -0.2639
 7419TIP3    H146452   6.737   5.753   2.761  0.0810 -0.2854 -1.1075
 7419TIP3    H246453   6.824   5.859   2.825 -1.7995  1.0523 -0.6831
 7420TIP3   OH246454   0.928   3.923   0.676  0.1313 -0.6261  0.1152
 7420TIP3    H146455   0.878   3.983   0.621  0.7665  0.3064  0.5213
 7420TIP3    H246456   0.936   3.843   0.624  2.2321  0.7889 -1.9508
 7421TIP3   OH246457   4.106   1.056   0.938  0.3683  0.5555 -0.7022
 7421TIP3    H146458   4.049   0.985   0.969 -0.3548  0.6495 -1.7544
 7421TIP3    H246459   4.160   1.079   1.014 -0.9141  0.3825  0.2865
 7422TIP3   OH246460   7.077   0.537   0.983  0.5496  0.2894  0.0996
 7422TIP3    H146461   7.148   0.547   1.047  0.5412 -0.2338  0.1985
 7422TIP3    H246462   7.034   0.622   0.981 -0.2450 -0.0358  1.7450
 7423TIP3   OH246463   6.235   2.418   1.303 -0.2546  0.7467  0.2777
 7423TIP3    H146464   6.258   2.507   1.274 -0.3401  0.0255 -2.1673
 7423TIP3    H246465   6.291   2.361   1.251 -2.3975 -0.7493 -0.5031
 7424TIP3   OH246466   0.729   2.176   1.884  0.2586 -0.0644  0.0148
 7424TIP3    H146467   0.747   2.102   1.943  1.7970 -1.1916 -1.7567
 7424TIP3    H246468   0.815   2.208   1.859 -0.3861  1.1196 -0.7600
 7425TIP3   OH246469   1.019   7.429   1.334  0.2545  0.0528 -0.0023
 7425TIP3    H146470   1.022   7.348   1.387  0.7782  0.7376  1.0532
 7425TIP3    H246471   0.965   7.489   1.386 -0.3402  0.3056 -0.9024
 7426TIP3   OH246472   7.569   7.300   0.722 -0.1876  0.2801 -0.2029
 7426TIP3    H146473   7.553   7.360   0.794  0.3864 -0.1914  0.3272
 7426TIP3    H246474   7.636   7.343   0.669 -1.5457  1.2367 -1.2067
 7427TIP3   OH246475   2.619   5.788   0.823 -0.6076  0.0711  1.0606
 7427TIP3    H146476   2.625   5.759   0.914 -1.0308  0.1783  1.1264
 7427TIP3    H246477   2.628   5.883   0.827  1.2890 -0.0653  0.7935
 7428TIP3   OH246478   7.654   6.829   0.776 -0.3188 -0.3683  0.0791
 7428TIP3    H146479   7.690   6.917   0.784  1.2350 -0.9909  0.2852
 7428TIP3    H246480   7.595   6.820   0.851 -0.2228  0.3618  0.2483
 7429TIP3   OH246481   3.915   1.993   2.793  0.3857 -0.2880 -0.2312
 7429TIP3    H146482   3.831   1.995   2.840  1.5740  0.5767  2.0063
 7429TIP3    H246483   3.955   1.910   2.818  1.0390  0.1919  0.3635
 7430TIP3   OH246484   3.486   6.137   2.735  0.7452  0.5482 -0.0425
 7430TIP3    H146485   3.446   6.054   2.760  1.2586  0.4588  0.5035
 7430TIP3    H246486   3.492   6.187   2.816 -0.2931  1.4591 -0.4913
 7431TIP3   OH246487   0.720   0.086   2.427 -0.4250  0.4273 -0.0554
 7431TIP3    H146488   0.793   0.075   2.488 -0.8057  1.8657  0.6799
 7431TIP3    H246489   0.680  -0.001   2.422  0.4320 -0.0279  0.6644
 7432TIP3   OH246490   6.135   5.934   1.081  0.1513  0.1669 -0.3607
 7432TIP3    H146491   6.191   6.012   1.073  1.5103 -0.6828  0.6069
 7432TIP3    H246492   6.046   5.969   1.077  0.7298  1.7697  0.0102
 7433TIP3   OH246493   0.189   1.460   0.918 -0.1940 -0.3723 -0.0316
 7433TIP3    H146494   0.258   1.395   0.932 -0.2811 -0.3903  0.3140
 7433TIP3    H246495   0.109   1.419   0.952  0.1083  0.6935  2.1134
 7434TIP3   OH246496   1.359   3.774   3.054  0.3303  0.2764 -0.0928
 7434TIP3    H146497   1.396   3.723   2.982 -0.9968  0.1229 -0.6879
 7434TIP3    H246498   1.414   3.853   3.057  0.5496  0.1774 -1.1221
 7435TIP3   OH246499   1.109   7.247   2.381  0.0370 -0.1629 -0.3885
 7435TIP3    H146500   1.098   7.340   2.365  1.0561  0.0433  0.0277
 7435TIP3    H246501   1.186   7.241   2.438  0.4448 -1.2947 -1.0192
 7436TIP3   OH246502   4.935   5.082   2.170  0.3172 -0.1931  0.0171
 7436TIP3    H146503   4.985   5.110   2.246  1.0084  0.2743 -0.5956
 7436TIP3    H246504   4.931   4.986   2.177  2.4594 -0.3876 -0.5902
 7437TIP3   OH246505   1.540   0.285   1.199 -0.8107 -0.0431 -0.1020
 7437TIP3    H146506   1.579   0.275   1.286  2.9687  3.1201 -1.1104
 7437TIP3    H246507   1.503   0.374   1.200  0.4990  0.5817 -2.0165
 7438TIP3   OH246508   4.211   1.990   0.923  0.2836 -0.1019  0.2171
 7438TIP3    H146509   4.152   2.020   0.854  0.1555 -0.9145 -0.0434
 7438TIP3    H246510   4.291   2.041   0.911  0.2905 -0.2973 -0.5871
 7439TIP3   OH246511   5.229   6.173   1.188 -0.1069 -0.6625  0.1268
 7439TIP3    H146512   5.249   6.238   1.255 -0.8131 -0.5534  0.2390
 7439TIP3    H246513   5.204   6.095   1.238 -0.6908 -0.5630 -0.0116
 7440TIP3   OH246514   2.164   3.622   2.687 -0.1556  0.5860 -0.2172
 7440TIP3    H146515   2.130   3.561   2.621  0.6242  0.1270 -0.2075
 7440TIP3    H246516   2.245   3.655   2.649  0.8337 -0.4536  0.9321
 7441TIP3   OH246517   7.292   2.978   1.012 -0.2861  0.9109  0.3192
 7441TIP3    H146518   7.201   2.999   1.032 -0.7987 -0.0737 -0.9213
 7441TIP3    H246519   7.336   3.064   1.011 -1.4592  1.5277 -0.3999
 7442TIP3   OH246520   4.177   3.823   1.810 -0.0106  0.0333 -0.0546
 7442TIP3    H146521   4.191   3.737   1.850 -0.4457 -0.4888 -0.9905
 7442TIP3    H246522   4.082   3.831   1.802  0.0570  0.1004 -1.0003
 7443TIP3   OH246523   4.270   7.122   2.008  0.3225  0.1284  0.3473
 7443TIP3    H146524   4.246   7.125   1.916  1.4785  1.3158  0.0525
 7443TIP3    H246525   4.299   7.032   2.023  0.6527  0.0735 -0.5851
 7444TIP3   OH246526   0.532   3.613   2.677  0.3166  0.3681  0.1776
 7444TIP3    H146527   0.447   3.591   2.714 -0.1816 -0.5907 -1.4126
 7444TIP3    H246528   0.567   3.529   2.645  1.7437  0.7863  0.5684
 7445TIP3   OH246529   2.548   5.940   1.796 -0.2507 -0.0679  0.3984
 7445TIP3    H146530   2.640   5.916   1.802  0.2388  1.5924  0.0126
 7445TIP3    H246531   2.513   5.925   1.884  0.4825 -0.3025  0.6546
 7446TIP3   OH246532   0.673   1.291   2.751  0.0172 -0.4617 -0.2781
 7446TIP3    H146533   0.606   1.224   2.763  0.6516 -1.2958 -1.2449
 7446TIP3    H246534   0.751   1.243   2.722  0.7669  0.5903 -0.0886
 7447TIP3   OH246535   7.641   4.198   1.060 -0.4410 -0.3438  1.0422
 7447TIP3    H146536   7.617   4.290   1.069 -0.9069 -0.1474 -1.4770
 7447TIP3    H246537   7.563   4.156   1.023  0.8645 -1.0213 -1.1035
 7448TIP3   OH246538   2.684   4.952   2.275 -0.2665 -0.3732 -0.1056
 7448TIP3    H146539   2.727   4.947   2.190  1.0069  0.9220  0.4263
 7448TIP3    H246540   2.753   4.978   2.336 -1.7559  1.8716  0.7812
 7449TIP3   OH246541   1.657   1.580   1.593  0.1553 -0.2165 -0.2236
 7449TIP3    H146542   1.641   1.591   1.499 -0.9905 -0.2643 -0.0439
 7449TIP3    H246543   1.584   1.626   1.635  1.0516  0.4388  0.6582
 7450TIP3   OH246544   2.391   5.030   2.977 -0.1709 -0.5592  0.1712
 7450TIP3    H146545   2.347   4.986   3.050 -0.3451 -1.0495 -0.2185
 7450TIP3    H246546   2.382   4.968   2.904 -0.5173  0.1859 -0.4235
 7451TIP3   OH246547   0.525   2.957   2.558 -0.4536 -0.0131  0.3976
 7451TIP3    H146548   0.528   2.988   2.648  1.2775 -1.1601  0.7831
 7451TIP3    H246549   0.602   2.996   2.516 -0.3378 -0.7829 -0.1265
 7452TIP3   OH246550   0.070   6.619   1.070 -0.2234 -0.2204  0.4556
 7452TIP3    H146551   0.089   6.638   1.162 -1.1762  0.6864  0.4783
 7452TIP3    H246552   0.014   6.691   1.041  0.5518 -0.1731 -1.0113
 7453TIP3   OH246553   3.417   5.626   1.403  0.0809  0.0259 -0.1939
 7453TIP3    H146554   3.450   5.715   1.392 -0.2056 -0.0419 -1.9085
 7453TIP3    H246555   3.491   5.570   1.379 -0.3920 -0.1518 -1.2957
 7454TIP3   OH246556   0.409   0.121   2.125  0.3864 -0.1044 -0.1535
 7454TIP3    H146557   0.489   0.073   2.103  0.8269 -0.8116  2.6051
 7454TIP3    H246558   0.436   0.183   2.193 -1.6237 -1.6474  2.2563
 7455TIP3   OH246559   1.379   3.097   0.729 -0.0903  0.0880 -0.7364
 7455TIP3    H146560   1.354   3.007   0.706  1.2432 -0.2778 -0.8564
 7455TIP3    H246561   1.461   3.111   0.682 -0.3947  1.4583 -0.8883
 7456TIP3   OH246562   0.069   4.636   2.409 -0.4550 -0.8869  0.3982
 7456TIP3    H146563   0.143   4.672   2.458 -0.3080 -1.1762  0.3941
 7456TIP3    H246564   0.024   4.713   2.374  0.0492 -0.7181  0.1046
 7457TIP3   OH246565   5.303   0.906   1.193  0.1994 -0.5242 -0.4609
 7457TIP3    H146566   5.322   0.828   1.141  0.0439 -0.2940 -0.8665
 7457TIP3    H246567   5.375   0.966   1.174  0.5369 -0.7177  0.1659
 7458TIP3   OH246568   5.996   4.266   2.872  0.6325 -0.2413 -0.1808
 7458TIP3    H146569   6.091   4.277   2.869  0.5992  0.2107  0.2547
 7458TIP3    H246570   5.964   4.344   2.917  0.1596 -0.9404  0.7457
 7459TIP3   OH246571   2.828   5.397   1.129 -0.1425  0.4822 -0.4464
 7459TIP3    H146572   2.850   5.484   1.095  1.1623 -0.0947 -1.1438
 7459TIP3    H246573   2.821   5.343   1.051  2.2942 -0.7441  0.1032
 7460TIP3   OH246574   5.691   4.008   0.755  0.3526  0.5204  0.3072
 7460TIP3    H146575   5.619   4.045   0.806 -0.1821 -1.0284  0.7203
 7460TIP3    H246576   5.766   4.011   0.815  0.6145  1.9303 -0.0489
 7461TIP3   OH246577   6.898   6.862   1.318 -0.5217  0.4858 -0.4395
 7461TIP3    H146578   6.969   6.925   1.331  0.2760 -0.5548  0.4302
 7461TIP3    H246579   6.879   6.829   1.405 -0.6337 -0.7730 -0.9210
 7462TIP3   OH246580   2.283   7.104   2.621  0.1833 -0.9347  0.2138
 7462TIP3    H146581   2.267   7.193   2.651  0.6905 -1.1995  1.2941
 7462TIP3    H246582   2.367   7.079   2.658  0.3942 -1.6196 -0.6679
 7463TIP3   OH246583   7.127   3.154   1.581  0.1056  0.1654 -0.1850
 7463TIP3    H146584   7.101   3.172   1.672  1.7067  0.7738  0.1848
 7463TIP3    H246585   7.150   3.061   1.581 -1.0686 -0.1380 -0.2835
 7464TIP3   OH246586   0.604   4.440   1.025  1.1236  0.1771 -0.1988
 7464TIP3    H146587   0.653   4.378   0.971  1.3505  0.1025  0.0899
 7464TIP3    H246588   0.514   4.407   1.025  0.5867  1.3864 -2.3834
 7465TIP3   OH246589   5.315   2.093   2.156 -0.2895  0.6003 -0.4532
 7465TIP3    H146590   5.273   2.177   2.138 -0.7079  0.3300 -0.7338
 7465TIP3    H246591   5.408   2.109   2.138 -0.5130  0.7072 -1.5318
 7466TIP3   OH246592   3.532   1.549   1.344  0.0531 -0.0659 -0.4979
 7466TIP3    H146593   3.461   1.553   1.281 -0.8436 -0.8465  0.4199
 7466TIP3    H246594   3.534   1.458   1.372 -0.1475  0.4077  1.2023
 7467TIP3   OH246595   3.648   2.055   2.866 -0.2733 -0.0882  0.3856
 7467TIP3    H146596   3.577   2.092   2.813  2.8380  1.3036 -3.2127
 7467TIP3    H246597   3.684   2.130   2.913 -0.0506 -0.4318  0.7664
 7468TIP3   OH246598   5.149   2.269   1.016  1.2892 -0.0976 -0.2270
 7468TIP3    H146599   5.231   2.250   0.969 -0.0153 -1.1094 -2.2159
 7468TIP3    H246600   5.115   2.183   1.041  0.3112  0.2419 -0.3611
 7469TIP3   OH246601   1.921   5.459   1.327  0.1600 -0.1322 -0.5392
 7469TIP3    H146602   1.939   5.418   1.242  0.0451  0.4016 -0.8215
 7469TIP3    H246603   1.930   5.387   1.390  0.8302 -0.4109 -0.9351
 7470TIP3   OH246604   4.793   4.298   1.474 -0.2063  0.1624  0.7647
 7470TIP3    H146605   4.832   4.213   1.451 -0.3065  0.4777 -0.6638
 7470TIP3    H246606   4.843   4.361   1.423  0.2878  1.0527  2.3066
 7471TIP3   OH246607   0.069   1.255   0.444  0.8213  0.2901  0.0709
 7471TIP3    H146608   0.080   1.191   0.374 -1.8074 -0.4653  0.2510
 7471TIP3    H246609  -0.006   1.309   0.415  0.4239  0.6920  1.7504
 7472TIP3   OH246610   1.676   7.563   1.509 -0.0629 -0.3770 -0.2330
 7472TIP3    H146611   1.587   7.598   1.501  0.3822  0.9791  0.4504
 7472TIP3    H246612   1.732   7.641   1.512  1.0618 -1.1839  0.3110
 7473TIP3   OH246613   2.984   1.770   2.494 -0.0590 -0.0345  0.1508
 7473TIP3    H146614   2.940   1.744   2.574 -1.3315  1.3783 -0.0649
 7473TIP3    H246615   2.994   1.865   2.501  0.3060  0.0375 -1.1096
 7474TIP3   OH246616   2.003   2.957   1.576  0.4736 -0.0183 -0.4229
 7474TIP3    H146617   2.061   2.900   1.626 -0.2514 -0.6598 -0.2842
 7474TIP3    H246618   2.042   3.044   1.584 -0.3046  0.1767  2.4305
 7475TIP3   OH246619   2.665   5.282   3.126  0.2560 -0.3708  0.2037
 7475TIP3    H146620   2.647   5.216   3.192  2.2075  0.5948  1.8145
 7475TIP3    H246621   2.759   5.277   3.111 -0.1641 -0.8643 -2.9391
 7476TIP3   OH246622   1.578   1.170   2.188 -0.3441 -0.3703 -0.3589
 7476TIP3    H146623   1.572   1.186   2.094 -0.9822 -1.2198 -0.4756
 7476TIP3    H246624   1.576   1.075   2.196 -1.7298 -0.2899  0.5896
 7477TIP3   OH246625   1.290   3.222   1.847 -0.2070 -0.1524  0.4967
 7477TIP3    H146626   1.292   3.161   1.773  0.4356  0.7472 -0.2604
 7477TIP3    H246627   1.197   3.236   1.865 -0.3756 -1.9630  1.2254
 7478TIP3   OH246628   7.180   5.852   1.576  0.3098 -0.0428  0.1534
 7478TIP3    H146629   7.097   5.804   1.571  1.0503 -1.3656  0.0025
 7478TIP3    H246630   7.225   5.830   1.494  1.1831 -0.0499  0.6289
 7479TIP3   OH246631   2.477   5.683   7.495 -0.3469 -0.2548 -0.2675
 7479TIP3    H146632   2.562   5.641   7.505  0.1765  0.5730 -1.0833
 7479TIP3    H246633   2.416   5.610   7.480  0.1517 -0.8744  0.6410
 7480TIP3   OH246634   5.348   3.098   2.621  0.3618 -0.1732  0.5079
 7480TIP3    H146635   5.394   3.077   2.702 -0.3571  0.8365  1.1959
 7480TIP3    H246636   5.323   3.013   2.585  1.8672 -0.7041  0.6152
 7481TIP3   OH246637   4.751   4.594   1.448  0.1931  0.2386 -0.0457
 7481TIP3    H146638   4.717   4.680   1.473 -1.4295  0.5443 -2.8226
 7481TIP3    H246639   4.805   4.612   1.371  1.4270 -1.0304  0.4968
 7482TIP3   OH246640   5.818   2.033   1.997 -0.0287 -0.1743 -0.6131
 7482TIP3    H146641   5.912   2.034   2.012 -0.2511 -0.3667  0.9973
 7482TIP3    H246642   5.805   1.973   1.924  1.3145  2.0400 -2.7994
 7483TIP3   OH246643   4.780   7.667   2.589  0.4991  0.1905  0.5521
 7483TIP3    H146644   4.850   7.648   2.652  0.6438  0.7986  0.5848
 7483TIP3    H246645   4.797   7.757   2.561 -0.5789  0.5406  0.9707
 7484TIP3   OH246646   0.393   2.480   2.156  0.0321 -0.3743 -0.0987
 7484TIP3    H146647   0.474   2.429   2.161 -0.2927 -0.9634 -0.6585
 7484TIP3    H246648   0.414   2.552   2.096  0.5791  0.3401  0.9192
 7485TIP3   OH246649   1.610   2.265   1.578  0.0472  0.3024  0.2905
 7485TIP3    H146650   1.581   2.205   1.647 -1.5049 -0.8522 -1.2514
 7485TIP3    H246651   1.664   2.210   1.520 -1.6476  0.2350 -1.3131
 7486TIP3   OH246652   0.493   3.238   1.785  0.2796 -0.0729 -0.0912
 7486TIP3    H146653   0.565   3.289   1.748 -0.2970  1.0571  0.2944
 7486TIP3    H246654   0.502   3.151   1.745  1.5575  0.1845 -0.4165
 7487TIP3   OH246655   6.469   5.107   2.238 -0.6166  0.7129  0.1822
 7487TIP3    H146656   6.451   5.163   2.163  0.5545  0.5136 -0.2707
 7487TIP3    H246657   6.501   5.025   2.199  0.2077  0.6852  0.9032
 7488TIP3   OH246658   0.952   2.304   1.905  0.0835 -0.1674  0.5042
 7488TIP3    H146659   0.977   2.328   1.994  0.9634  0.4456  0.1059
 7488TIP3    H246660   1.015   2.350   1.849 -1.9696  1.5866 -0.5535
 7489TIP3   OH246661   3.786   6.542   2.474 -0.0096 -0.1698  0.2336
 7489TIP3    H146662   3.764   6.460   2.429 -2.3531 -0.4329  1.7174
 7489TIP3    H246663   3.727   6.607   2.435 -1.7797 -0.3192  2.4838
 7490TIP3   OH246664   4.485   3.658   2.949 -0.6579 -0.6120 -0.0027
 7490TIP3    H146665   4.509   3.725   2.885 -1.1890 -0.0105  0.4183
 7490TIP3    H246666   4.560   3.599   2.952  0.9992  1.4185  1.5692
 7491TIP3   OH246667   5.523   7.336   1.196  0.0537 -0.4851 -0.4816
 7491TIP3    H146668   5.437   7.351   1.157 -0.2734  0.3706  0.5171
 7491TIP3    H246669   5.560   7.263   1.146  0.2518  1.3851 -3.2873
 7492TIP3   OH246670   0.194   4.094   3.090  0.2862 -0.7462 -0.8416
 7492TIP3    H146671   0.250   4.167   3.115 -0.0999 -0.2292 -1.4618
 7492TIP3    H246672   0.140   4.077   3.167  0.8114 -0.7990 -0.4779
 7493TIP3   OH246673   5.073   6.928   0.921  0.3234 -0.1909  0.5782
 7493TIP3    H146674   4.993   6.886   0.889  1.6147 -1.0351 -1.8379
 7493TIP3    H246675   5.044   6.981   0.995 -2.2542 -1.3534  0.5339
 7494TIP3   OH246676   3.042   6.166   1.570  0.1442  0.2467  0.0776
 7494TIP3    H146677   2.979   6.133   1.506 -0.1694  1.3199 -0.1762
 7494TIP3    H246678   3.122   6.116   1.552  0.1217  0.6850 -1.2973
 7495TIP3   OH246679   1.569   2.907   2.498 -0.0576 -0.2622 -0.5073
 7495TIP3    H146680   1.609   2.840   2.442  0.3047  0.3991 -1.0515
 7495TIP3    H246681   1.638   2.972   2.510 -0.7318  0.5272 -0.8391
 7496TIP3   OH246682   5.820   1.250   1.850  0.1182  0.0660 -0.3466
 7496TIP3    H146683   5.842   1.223   1.939 -0.1094  0.6259 -0.1102
 7496TIP3    H246684   5.861   1.336   1.840  0.5866 -0.2157 -0.9764
 7497TIP3   OH246685   6.917   3.582   1.153  1.1989 -0.1964  0.1934
 7497TIP3    H146686   6.876   3.669   1.158  2.4429  0.4245 -0.0836
 7497TIP3    H246687   6.959   3.580   1.068  0.6822 -1.3239 -0.0484
 7498TIP3   OH246688   5.669   0.896   0.906  0.0432 -0.0898 -0.0072
 7498TIP3    H146689   5.743   0.947   0.939 -0.2375  0.2182  0.1382
 7498TIP3    H246690   5.708   0.810   0.885  0.6517  0.3830 -0.8927
 7499TIP3   OH246691   3.779   1.143   0.818  0.1237 -0.2270 -0.2779
 7499TIP3    H146692   3.860   1.099   0.792  2.1424  2.6487  0.6370
 7499TIP3    H246693   3.766   1.210   0.751 -0.4424  0.5177  0.5506
 7500TIP3   OH246694   4.955   2.337   0.650  0.4279  0.3837  0.1059
 7500TIP3    H146695   4.869   2.370   0.624  0.3862  0.6757  0.5973
 7500TIP3    H246696   4.950   2.331   0.746  1.3538  1.5381  0.2389
 7501TIP3   OH246697   2.061   3.058   3.416 -0.0871  0.5857 -0.3847
 7501TIP3    H146698   2.078   3.096   3.330 -0.4071  0.6191 -0.4354
 7501TIP3    H246699   1.973   3.088   3.438 -0.6921 -0.7561 -0.7883
 7502TIP3   OH246700   6.066   1.952   0.698 -0.3037  0.4204 -0.4473
 7502TIP3    H146701   6.133   2.001   0.746 -2.1442  1.6501  1.0026
 7502TIP3    H246702   6.052   1.873   0.750 -0.5736  0.5728 -0.2879
 7503TIP3   OH246703   6.191   0.918   1.251  0.0178  0.2191  0.1610
 7503TIP3    H146704   6.206   0.916   1.156  1.8159  0.5587  0.4019
 7503TIP3    H246705   6.221   1.004   1.278 -0.7778  0.2425  1.0252
 7504TIP3   OH246706   7.383   0.620   1.044 -0.3326 -0.6707 -0.3078
 7504TIP3    H146707   7.376   0.712   1.020  1.5921 -0.1384  0.9198
 7504TIP3    H246708   7.418   0.577   0.965  1.4252  0.1940 -0.0553
 7505TIP3   OH246709   6.171   2.346   1.567  1.1911 -0.4189  0.0223
 7505TIP3    H146710   6.203   2.410   1.504  0.1272 -0.1261 -0.2418
 7505TIP3    H246711   6.150   2.268   1.514  1.4621 -0.6075  0.1896
 7506TIP3   OH246712   0.979   4.406   2.360  0.1511 -0.5095 -0.6199
 7506TIP3    H146713   1.025   4.475   2.408 -0.2613  0.1247 -1.1325
 7506TIP3    H246714   0.903   4.450   2.321  0.6303 -0.9455 -2.0970
 7507TIP3   OH246715   3.286   3.813   2.778 -0.3845 -0.0999 -0.0807
 7507TIP3    H146716   3.362   3.827   2.721 -1.0525  0.9855 -0.7352
 7507TIP3    H246717   3.322   3.768   2.854  0.8204 -0.1168 -0.6252
 7508TIP3   OH246718   0.825   0.256   1.306 -0.4056  0.1408 -0.2484
 7508TIP3    H146719   0.755   0.191   1.303  0.1325 -0.4307 -2.4035
 7508TIP3    H246720   0.906   0.205   1.297  0.2517  0.8706  1.1757
 7509TIP3   OH246721   1.029   4.661   2.592 -0.3395  0.1465 -0.3742
 7509TIP3    H146722   1.018   4.647   2.686  0.0721 -0.1809 -0.3713
 7509TIP3    H246723   0.991   4.748   2.577 -0.1374  0.3342  0.1459
 7510TIP3   OH246724   3.811   3.801   2.023 -0.0091  0.0763  0.1827
 7510TIP3    H146725   3.827   3.787   1.930  0.7747 -0.0453  0.3293
 7510TIP3    H246726   3.790   3.714   2.057  3.0218 -0.5335  0.7376
 7511TIP3   OH246727   3.484   1.711   2.424 -0.2172 -0.1497  0.5721
 7511TIP3    H146728   3.462   1.794   2.383  0.9641 -0.1061 -0.0092
 7511TIP3    H246729   3.411   1.693   2.484 -1.1037  0.6553 -0.2487
 7512TIP3   OH246730   1.664   3.624   1.223  0.0633  0.0978 -0.2656
 7512TIP3    H146731   1.642   3.687   1.155  0.3108  1.1806  0.6316
 7512TIP3    H246732   1.711   3.555   1.177  1.9128  1.7188 -0.9306
 7513TIP3   OH246733   4.020   4.185   1.619  0.7741 -0.0217 -0.0757
 7513TIP3    H146734   3.980   4.221   1.699  0.1307  0.9209 -0.8029
 7513TIP3    H246735   3.961   4.115   1.592  1.2428 -0.6606  0.5221
 7514TIP3   OH246736   1.254   0.239   1.814 -0.0775  0.1397 -0.1939
 7514TIP3    H146737   1.196   0.163   1.821  0.9017 -0.5156  1.1539
 7514TIP3    H246738   1.272   0.264   1.905  1.8444  0.2420 -0.5682
 7515TIP3   OH246739   2.707   0.705   1.431 -0.2744 -0.0885  0.7582
 7515TIP3    H146740   2.622   0.733   1.398 -1.9458 -2.1935  2.8958
 7515TIP3    H246741   2.735   0.637   1.371 -0.3878  0.2013  0.3735
 7516TIP3   OH246742   7.446   4.338   1.701  0.0271 -0.0847 -0.3563
 7516TIP3    H146743   7.498   4.260   1.724 -1.2663 -0.6417  0.8065
 7516TIP3    H246744   7.355   4.311   1.712 -0.4546  1.6878  0.4018
 7517TIP3   OH246745   3.508   7.449   1.371  0.9199  0.3979  0.3761
 7517TIP3    H146746   3.441   7.504   1.413 -1.5624 -1.6619 -0.5714
 7517TIP3    H246747   3.552   7.508   1.310 -0.7934  1.6477  0.2545
 7518TIP3   OH246748   5.030   7.099   1.139 -0.1461  0.2861  0.1049
 7518TIP3    H146749   5.041   7.192   1.161 -0.2327  0.9677 -2.4519
 7518TIP3    H246750   4.937   7.091   1.116 -0.2700 -0.5886  0.8429
 7519TIP3   OH246751   0.418   1.417   1.384 -0.4244 -0.0561  0.3722
 7519TIP3    H146752   0.406   1.415   1.289  0.2531 -1.7920  0.2892
 7519TIP3    H246753   0.366   1.343   1.417  0.2103 -0.1378  1.2340
 7520TIP3   OH246754   0.768   5.511   1.316 -0.0705  0.3002  0.1253
 7520TIP3    H146755   0.777   5.416   1.320  0.0537  0.3055 -0.0213
 7520TIP3    H246756   0.678   5.525   1.286  0.1502  0.2154 -0.6067
 7521TIP3   OH246757   2.257   1.448   2.434 -0.1381  0.0434 -0.0076
 7521TIP3    H146758   2.181   1.481   2.385 -0.0828 -1.1484 -0.9372
 7521TIP3    H246759   2.219   1.400   2.508 -0.3525 -1.0873 -0.8146
 7522TIP3   OH246760   2.050   2.087   1.865 -0.1832 -0.4973 -0.2174
 7522TIP3    H146761   2.095   2.166   1.894 -2.6583 -0.2775  3.7668
 7522TIP3    H246762   2.118   2.020   1.863  1.0166  0.5284  2.1916
 7523TIP3   OH246763   6.628   4.939   3.524 -0.6726  0.3608 -0.3366
 7523TIP3    H146764   6.644   5.021   3.479 -1.8141 -0.3764 -2.2099
 7523TIP3    H246765   6.713   4.894   3.524 -0.4542  0.7691 -0.9521
 7524TIP3   OH246766   7.460   0.070   2.774  0.5027 -0.3904 -0.4957
 7524TIP3    H146767   7.388   0.014   2.803  1.1548 -1.1628 -0.3120
 7524TIP3    H246768   7.420   0.155   2.757  0.0472  0.0757  2.4649
 7525TIP3   OH246769   0.882   7.198   1.814  0.0739 -0.4506 -0.2998
 7525TIP3    H146770   0.804   7.234   1.855 -0.0975  0.2324 -1.1952
 7525TIP3    H246771   0.929   7.154   1.885 -0.1822  0.7357  0.6268
 7526TIP3   OH246772   6.915   2.600   2.410  0.2796  0.4306  0.0272
 7526TIP3    H146773   6.920   2.644   2.325  0.4241  0.7841  0.2177
 7526TIP3    H246774   6.916   2.507   2.388 -0.0401  0.5179 -0.3786
 7527TIP3   OH246775   4.342   7.347   2.596  0.5476  0.3469  0.0456
 7527TIP3    H146776   4.336   7.343   2.691  0.7446  0.0954  0.0517
 7527TIP3    H246777   4.384   7.431   2.578  0.7291  0.2911  0.1962
 7528TIP3   OH246778   2.280   5.266   2.909 -0.8355  0.1152 -0.1581
 7528TIP3    H146779   2.307   5.183   2.949 -0.1158  0.7032  0.6163
 7528TIP3    H246780   2.186   5.256   2.896 -0.8514 -0.6280  0.4297
 7529TIP3   OH246781   5.909   4.888   0.925 -0.4512 -0.6885  0.3122
 7529TIP3    H146782   5.895   4.823   0.994 -1.1574 -0.2187  0.6181
 7529TIP3    H246783   5.822   4.902   0.887 -0.4639  0.6978  0.8042
 7530TIP3   OH246784   1.115   0.495   1.719  0.0105 -0.2292 -0.1837
 7530TIP3    H146785   1.142   0.510   1.810  0.3551 -0.3975 -0.2540
 7530TIP3    H246786   1.136   0.403   1.703  0.7081  0.0048 -0.6808
 7531TIP3   OH246787   1.095   0.940   2.162 -0.6124 -0.1882  0.2808
 7531TIP3    H146788   1.181   0.955   2.201 -0.0513  1.5005 -1.4579
 7531TIP3    H246789   1.047   1.022   2.176 -1.6478 -0.8023  0.4558
 7532TIP3   OH246790   4.831   3.313   1.653  0.3771  0.1217 -0.4036
 7532TIP3    H146791   4.835   3.407   1.636 -0.2205  0.3815  0.7561
 7532TIP3    H246792   4.743   3.299   1.688  1.3025 -0.3929  1.9318
 7533TIP3   OH246793   3.999   4.760   3.208  0.1306 -0.5739  0.6914
 7533TIP3    H146794   3.970   4.710   3.132  0.6344  0.1150  0.0297
 7533TIP3    H246795   4.095   4.750   3.208  0.0397 -1.7055  2.0468
 7534TIP3   OH246796   1.690   5.070   1.512  0.0483 -0.0482  0.1360
 7534TIP3    H146797   1.686   4.983   1.473 -0.9469 -0.1535  0.4385
 7534TIP3    H246798   1.602   5.106   1.500  0.1959  0.5619  0.7905
 7535TIP3   OH246799   5.412   0.151   0.964  0.2322 -0.0712 -0.7407
 7535TIP3    H146800   5.382   0.219   1.025  1.9292  1.6137 -1.6487
 7535TIP3    H246801   5.479   0.195   0.912  1.9489 -2.6805 -0.8947
 7536TIP3   OH246802   3.113   1.683   0.779  0.2092  0.4026  0.1715
 7536TIP3    H146803   3.125   1.600   0.827  1.5361  0.8576  0.6603
 7536TIP3    H246804   3.149   1.750   0.837 -0.6189  1.3152 -0.3280
 7537TIP3   OH246805   1.053   1.161   2.362 -0.3059 -0.2088 -0.6155
 7537TIP3    H146806   1.141   1.198   2.354 -0.0079 -0.4144  1.2407
 7537TIP3    H246807   1.059   1.102   2.438 -1.8141 -0.9236 -1.0200
 7538TIP3   OH246808   7.064   7.092   0.964  0.2094  0.8593  0.0118
 7538TIP3    H146809   6.992   7.155   0.966 -0.8483 -0.2749 -0.9419
 7538TIP3    H246810   7.133   7.136   0.914 -0.3666  1.4088 -0.3142
 7539TIP3   OH246811   7.566   3.959   2.865 -0.0495 -0.0366 -0.2991
 7539TIP3    H146812   7.540   4.051   2.853 -0.3667 -0.0832 -0.0110
 7539TIP3    H246813   7.501   3.909   2.815  0.4282 -0.0808 -0.8784
 7540TIP3   OH246814   5.510   2.978   2.182  0.5912  0.5501  0.1594
 7540TIP3    H146815   5.520   3.058   2.233  1.3171 -0.0659  1.0227
 7540TIP3    H246816   5.593   2.968   2.135  0.6948  0.0695  0.4300
 7541TIP3   OH246817   1.407   4.778   1.709  0.6194 -0.1122 -0.3338
 7541TIP3    H146818   1.386   4.774   1.616 -0.4358  2.3504 -0.2729
 7541TIP3    H246819   1.404   4.871   1.731 -1.4245 -0.7162  2.6356
 7542TIP3   OH246820   1.512   0.367   0.509 -0.3183 -0.4420  0.4724
 7542TIP3    H146821   1.551   0.435   0.564 -0.1343 -0.3043  0.1758
 7542TIP3    H246822   1.582   0.304   0.495 -0.0411  0.0532 -0.4666
 7543TIP3   OH246823   5.460   4.214   1.717  0.4057  0.6426 -0.1796
 7543TIP3    H146824   5.499   4.152   1.655  1.0857  0.8484  0.0341
 7543TIP3    H246825   5.372   4.231   1.682  0.7404  0.6646 -1.0248
 7544TIP3   OH246826   0.348   1.483   0.688 -0.5605 -0.3607 -0.0562
 7544TIP3    H146827   0.330   1.401   0.642 -3.0024 -0.0495  0.2055
 7544TIP3    H246828   0.304   1.473   0.773 -0.0990  0.8662  0.3536
 7545TIP3   OH246829   1.728   0.699   2.614 -0.1254  0.2712 -0.5391
 7545TIP3    H146830   1.782   0.620   2.612 -2.1197 -1.1548 -0.6105
 7545TIP3    H246831   1.730   0.727   2.706 -2.8936 -2.4955  0.5330
 7546TIP3   OH246832   3.967   5.590   1.469  0.1397  0.5191  0.5351
 7546TIP3    H146833   4.009   5.518   1.423 -0.5853  1.5085 -1.8023
 7546TIP3    H246834   3.881   5.556   1.493 -0.5541  0.8397 -1.3734
 7547TIP3   OH246835   5.388   5.813   3.341  0.2713  0.4316  0.5280
 7547TIP3    H146836   5.391   5.786   3.433  0.3302  1.0700  0.7169
 7547TIP3    H246837   5.295   5.822   3.321  0.2937  2.3188  1.1395
 7548TIP3   OH246838   6.081   2.640   2.183 -0.3506 -0.2236 -0.3126
 7548TIP3    H146839   6.111   2.730   2.197 -0.4452 -0.4968  2.0304
 7548TIP3    H246840   5.998   2.634   2.231  0.4095 -1.9479  0.9030
 7549TIP3   OH246841   2.374   3.321   1.644  0.0961 -1.0881 -0.5806
 7549TIP3    H146842   2.348   3.332   1.735 -1.9505 -1.3245 -1.0695
 7549TIP3    H246843   2.460   3.281   1.648 -0.0800 -1.3723  1.2532
 7550TIP3   OH246844   1.475   5.836   2.037  0.4629 -0.0742  0.4328
 7550TIP3    H146845   1.436   5.754   2.007 -0.9467  0.0657  1.7202
 7550TIP3    H246846   1.401   5.886   2.073  1.3197  1.6867 -0.1347
 7551TIP3   OH246847   5.392   0.677   1.673  0.1344  0.0029  0.5579
 7551TIP3    H146848   5.481   0.684   1.707  0.9444 -1.9812 -0.9626
 7551TIP3    H246849   5.401   0.694   1.579 -0.9260 -1.1590  0.2248
 7552TIP3   OH246850   1.241   1.000   1.316  0.0050 -0.5566  0.6283
 7552TIP3    H146851   1.184   1.032   1.247  1.2945 -0.5497 -0.4786
 7552TIP3    H246852   1.247   0.906   1.301 -0.4871 -0.7135  1.3504
 7553TIP3   OH246853   2.156   5.601   1.399 -0.3183  0.7690  0.7738
 7553TIP3    H146854   2.089   5.548   1.356  0.8057  0.0391 -0.1240
 7553TIP3    H246855   2.151   5.686   1.354 -0.9125  0.8652  1.0066
 7554TIP3   OH246856   3.282   7.332   1.759 -0.1179  0.2857 -0.2552
 7554TIP3    H146857   3.355   7.388   1.732  0.1718 -0.0132 -0.0905
 7554TIP3    H246858   3.275   7.267   1.690 -1.8312  1.7601 -1.5683
 7555TIP3   OH246859   2.884   4.298   2.183 -0.0147  0.2491  0.3294
 7555TIP3    H146860   2.843   4.303   2.096  0.8152  1.7402 -0.0252
 7555TIP3    H246861   2.888   4.205   2.203 -0.2531 -0.1237 -1.2213
 7556TIP3   OH246862   0.516   3.207   1.187 -0.4342  0.0289  0.1060
 7556TIP3    H146863   0.487   3.140   1.126 -2.2379 -0.2020  1.1516
 7556TIP3    H246864   0.469   3.286   1.159  0.2046  0.3911  0.0431
 7557TIP3   OH246865   7.546   6.804   1.043 -0.4833  0.2116 -0.6518
 7557TIP3    H146866   7.494   6.755   1.107 -0.7070  0.8176 -0.3626
 7557TIP3    H246867   7.523   6.895   1.058  2.6096  0.8289  1.3513
 7558TIP3   OH246868   5.937   6.257   0.828 -0.2633  0.2230 -0.0855
 7558TIP3    H146869   6.017   6.309   0.838 -0.8244  0.6082  3.5592
 7558TIP3    H246870   5.963   6.168   0.852 -0.5708 -0.0428 -0.7068
 7559TIP3   OH246871   3.916   0.624   0.807  0.5195 -0.7955 -0.0290
 7559TIP3    H146872   3.925   0.675   0.726  1.3660  0.5466  0.8800
 7559TIP3    H246873   3.822   0.604   0.811  0.4210 -0.6790 -1.2124
 7560TIP3   OH246874   2.131   6.436   1.377 -0.3142 -0.5331 -0.1891
 7560TIP3    H146875   2.118   6.496   1.303  0.4341 -0.7177 -0.4767
 7560TIP3    H246876   2.044   6.428   1.416 -0.3142  1.2358  0.2530
 7561TIP3   OH246877   0.301   4.657   1.062  0.4962 -0.2767 -0.2986
 7561TIP3    H146878   0.268   4.736   1.106 -3.4132 -1.6757 -0.3252
 7561TIP3    H246879   0.323   4.598   1.134  1.6576  0.1631 -0.2804
 7562TIP3   OH246880   2.738   0.871   0.801 -0.0383  0.2166 -0.1763
 7562TIP3    H146881   2.706   0.843   0.715  0.2505  0.1826 -0.2711
 7562TIP3    H246882   2.663   0.916   0.840  0.3523  1.7688 -1.1354
 7563TIP3   OH246883   3.202   5.557   2.262  0.1738  0.2369  0.0839
 7563TIP3    H146884   3.230   5.604   2.341 -2.1165  0.5272  0.7864
 7563TIP3    H246885   3.261   5.482   2.257  0.3040  0.1322  2.1483
 7564TIP3   OH246886   6.166   0.739   3.304 -0.2450  0.5772  0.6965
 7564TIP3    H146887   6.119   0.822   3.300  0.6609  1.2578  2.8244
 7564TIP3    H246888   6.206   0.730   3.217 -0.3076  2.3801  0.4507
 7565TIP3   OH246889   6.760   5.469   2.233  0.8409  0.2363 -0.2887
 7565TIP3    H146890   6.756   5.514   2.317 -2.0353 -1.2312  0.4809
 7565TIP3    H246891   6.723   5.383   2.250 -0.3389  0.0636 -3.1332
 7566TIP3   OH246892   3.232   4.933   1.184 -1.3963 -0.4066 -0.2449
 7566TIP3    H146893   3.301   4.986   1.223 -1.0487 -0.8315 -0.2659
 7566TIP3    H246894   3.279   4.872   1.126 -1.8116 -0.5117 -0.4731
 7567TIP3   OH246895   0.470   4.010   2.222 -0.8792  0.1165  0.3084
 7567TIP3    H146896   0.482   4.058   2.304 -0.1962  1.7829 -0.7161
 7567TIP3    H246897   0.375   4.004   2.212 -1.0256  2.5216 -0.1939
 7568TIP3   OH246898   3.508   5.891   1.369  0.3459 -0.2366  0.1780
 7568TIP3    H146899   3.548   5.913   1.453  0.8037  1.5099 -0.4544
 7568TIP3    H246900   3.582   5.875   1.311  0.0760  0.0758 -0.2623
 7569TIP3   OH246901   2.585   7.361   1.320  0.4279 -0.1885 -0.2045
 7569TIP3    H146902   2.657   7.300   1.305  1.3558  0.7573  0.2562
 7569TIP3    H246903   2.562   7.394   1.233 -0.5485 -1.6562 -0.5483
 7570TIP3   OH246904   4.006   2.424   2.434 -0.4458 -0.0657  0.0351
 7570TIP3    H146905   4.100   2.427   2.417 -0.4061  0.6238  0.3596
 7570TIP3    H246906   3.965   2.451   2.352 -0.3120  1.2802  0.4006
 7571TIP3   OH246907   6.869   5.536   0.773 -0.3891  0.5122 -0.7115
 7571TIP3    H146908   6.820   5.597   0.718  0.0940  0.3547 -1.3284
 7571TIP3    H246909   6.841   5.449   0.743 -0.4241  0.4240 -0.4288
 7572TIP3   OH246910   1.306   2.050   0.471  0.7439 -0.3065 -0.2817
 7572TIP3    H146911   1.237   2.040   0.406 -0.3498 -1.7748  1.0195
 7572TIP3    H246912   1.336   1.961   0.488  1.1844  0.0571  1.0148
 7573TIP3   OH246913   1.792   0.128   1.519 -0.1032 -0.0998  0.2029
 7573TIP3    H146914   1.715   0.185   1.525  0.7283  1.2105 -0.8357
 7573TIP3    H246915   1.866   0.189   1.520  0.8249 -1.1588 -1.0679
 7574TIP3   OH246916   1.510   0.160   2.657 -0.0603  0.2863 -0.6083
 7574TIP3    H146917   1.543   0.133   2.743  0.9767 -1.0753 -1.4004
 7574TIP3    H246918   1.568   0.116   2.594 -0.8517  1.1841 -2.0134
 7575TIP3   OH246919   5.288   6.952   1.607 -0.3653  0.0684  0.3159
 7575TIP3    H146920   5.323   6.883   1.551 -0.0950  0.5084 -0.0604
 7575TIP3    H246921   5.314   7.034   1.565 -2.3190  0.4303 -0.2973
 7576TIP3   OH246922   4.156   6.224   2.921  0.0095 -0.4228  0.6280
 7576TIP3    H146923   4.247   6.229   2.894  0.5584 -2.9582  1.7155
 7576TIP3    H246924   4.108   6.208   2.839  0.9199 -1.9580  0.3528
 7577TIP3   OH246925   0.728   6.890   2.508  0.1394  0.0901  0.0259
 7577TIP3    H146926   0.783   6.814   2.489 -1.7636 -1.2190 -0.5716
 7577TIP3    H246927   0.790   6.962   2.520  1.9571 -1.2858 -0.6035
 7578TIP3   OH246928   6.464   0.173   2.138  0.2356 -0.1844  0.1633
 7578TIP3    H146929   6.452   0.192   2.231  1.9096 -1.9509  0.8086
 7578TIP3    H246930   6.556   0.147   2.130 -0.0346 -0.6798 -1.8657
 7579TIP3   OH246931   6.808   6.223   2.364  0.2118 -0.5974  0.0644
 7579TIP3    H146932   6.831   6.220   2.272 -1.3644 -0.8184 -0.3588
 7579TIP3    H246933   6.712   6.228   2.365  0.1330 -1.4618  1.6875
 7580TIP3   OH246934   3.279   7.673   1.183 -0.3392 -0.3348 -0.1466
 7580TIP3    H146935   3.363   7.692   1.141 -1.3908 -0.4008 -2.4331
 7580TIP3    H246936   3.250   7.592   1.141 -2.3168  0.5905 -0.6660
 7581TIP3   OH246937   1.611   2.697   1.789  0.0632  0.2062  0.4843
 7581TIP3    H146938   1.661   2.748   1.852 -1.4943  1.4748  0.7341
 7581TIP3    H246939   1.539   2.660   1.839 -0.9212  0.8430 -0.4291
 7582TIP3   OH246940   3.774   6.198   1.619  0.0827  0.1687  0.4319
 7582TIP3    H146941   3.788   6.107   1.646 -1.5931 -0.1442  0.3383
 7582TIP3    H246942   3.773   6.247   1.702 -0.7760 -0.1764  0.6418
 7583TIP3   OH246943   2.053   4.904   2.611  0.0361 -0.1705 -0.1227
 7583TIP3    H146944   2.021   4.994   2.616  3.1235  0.9984  0.5034
 7583TIP3    H246945   2.059   4.876   2.702 -2.0091 -1.5240 -0.3407
 7584TIP3   OH246946   6.787   4.070   1.358  0.3400 -0.6987 -0.3328
 7584TIP3    H146947   6.713   4.049   1.415 -0.5207 -0.4727 -1.3366
 7584TIP3    H246948   6.848   4.117   1.414 -0.9163  0.3921  0.1647
 7585TIP3   OH246949   7.170   6.636   1.489 -0.0675  0.3180  0.1818
 7585TIP3    H146950   7.129   6.550   1.492 -0.1649  0.3150 -0.7871
 7585TIP3    H246951   7.229   6.632   1.414 -0.0999  1.1057  0.1005
 7586TIP3   OH246952   4.459   7.059   1.765 -0.5238  0.1188 -0.0739
 7586TIP3    H146953   4.383   7.003   1.752 -1.0504  1.1183 -1.6390
 7586TIP3    H246954   4.534   7.001   1.753 -1.0423 -0.5982  0.1205
 7587TIP3   OH246955   5.998   5.687   1.457  0.3367  0.0087 -0.5242
 7587TIP3    H146956   5.969   5.649   1.374  2.8820 -0.9815 -1.0492
 7587TIP3    H246957   6.023   5.776   1.436  0.0474  0.0734 -0.5983
 7588TIP3   OH246958   5.951   5.681   2.076 -0.8282  0.4972 -0.0606
 7588TIP3    H146959   5.871   5.667   2.125  0.5152 -0.1847  2.0815
 7588TIP3    H246960   5.935   5.642   1.990 -3.1077  1.3211 -0.0574
 7589TIP3   OH246961   1.399   1.998   1.321 -0.0681  0.1020 -0.1625
 7589TIP3    H146962   1.435   1.961   1.241  1.6726  2.4562 -0.5899
 7589TIP3    H246963   1.341   2.068   1.292  1.0590  1.3945  0.5874
 7590TIP3   OH246964   0.466   0.403   3.050 -0.0162 -0.1915 -0.2683
 7590TIP3    H146965   0.387   0.355   3.074 -0.7192  0.8727 -0.3893
 7590TIP3    H246966   0.536   0.361   3.100 -1.0391  0.3805  1.7575
 7591TIP3   OH246967   3.784   7.444   1.311  0.2063  0.0488  0.3738
 7591TIP3    H146968   3.872   7.426   1.343  0.1324 -1.3560 -0.1365
 7591TIP3    H246969   3.729   7.379   1.354 -0.3156 -0.1055 -0.4962
 7592TIP3   OH246970   3.290   0.883   3.003 -0.3011 -0.8148 -0.0441
 7592TIP3    H146971   3.201   0.906   3.031 -0.3165 -1.4193  0.4282
 7592TIP3    H246972   3.341   0.963   3.018 -0.6872 -0.5721  0.0102
 7593TIP3   OH246973   4.371   2.067   2.850 -0.0388 -0.2062 -0.1570
 7593TIP3    H146974   4.326   2.039   2.771 -2.7640  1.1302  0.8061
 7593TIP3    H246975   4.445   2.119   2.818 -1.3825  0.7624 -1.8492
 7594TIP3   OH246976   7.495   1.710   1.532 -0.3086  0.1528 -0.5999
 7594TIP3    H146977   7.541   1.640   1.486  0.3301 -0.5234  0.9892
 7594TIP3    H246978   7.562   1.750   1.587 -1.5065 -0.7291  1.6315
 7595TIP3   OH246979   3.644   7.044   0.905  0.0186 -0.2845 -0.1889
 7595TIP3    H146980   3.573   6.983   0.922 -0.1892 -0.1186 -0.4606
 7595TIP3    H246981   3.601   7.128   0.890  0.3811  0.2420  1.5789
 7596TIP3   OH246982   4.945   4.947   0.836  0.3727 -0.0882  0.0808
 7596TIP3    H146983   4.994   4.867   0.820  1.2060  0.3286  0.4964
 7596TIP3    H246984   4.894   4.960   0.756  0.6593 -0.7202 -0.2162
 7597TIP3   OH246985   1.222   6.039   1.621 -0.3423  0.0634  0.5582
 7597TIP3    H146986   1.164   6.094   1.568 -0.5572 -0.7617 -0.0738
 7597TIP3    H246987   1.175   5.956   1.629 -0.3135  0.1722  2.0575
 7598TIP3   OH246988   6.383   0.784   1.407  0.5029  0.0799  0.2995
 7598TIP3    H146989   6.316   0.834   1.361  0.1769  0.3551  1.0613
 7598TIP3    H246990   6.388   0.824   1.494  1.2471 -0.3042  0.4441
 7599TIP3   OH246991   7.255   1.381   1.065  0.1153  0.0657 -0.2161
 7599TIP3    H146992   7.317   1.454   1.061  0.4135 -0.1352  0.5589
 7599TIP3    H246993   7.185   1.413   1.122 -0.0494 -0.0355 -0.3625
 7600TIP3   OH246994   3.778   7.072   1.922 -0.4391  0.3231  0.2153
 7600TIP3    H146995   3.834   7.030   1.987  0.3479  1.5150  0.3524
 7600TIP3    H246996   3.723   7.002   1.888  0.9649 -0.8480  0.2695
 7601TIP3   OH246997   3.832   4.264   0.644  0.0314  0.0995  0.4542
 7601TIP3    H146998   3.872   4.205   0.709  0.6294  0.1581  0.1460
 7601TIP3    H246999   3.898   4.271   0.575 -0.4769  0.2824 -0.0181
 7602TIP3   OH247000   4.679   0.696   3.551  0.0442 -0.4465  0.0410
 7602TIP3    H147001   4.723   0.767   3.505  0.2177 -1.8714 -2.1697
 7602TIP3    H247002   4.749   0.652   3.600 -0.1864  1.2452  1.9878
 7603TIP3   OH247003   6.128   0.179   2.370  0.3789 -0.9846 -0.1389
 7603TIP3    H147004   6.126   0.234   2.292  0.5699 -1.6098 -0.6014
 7603TIP3    H247005   6.128   0.240   2.443  1.1568 -0.3514 -0.6447
 7604TIP3   OH247006   3.261   2.396   1.330  0.8847  0.0668  0.2245
 7604TIP3    H147007   3.301   2.382   1.415 -0.9762 -0.8493  1.0228
 7604TIP3    H247008   3.168   2.375   1.344  0.1141  1.9201 -1.5114
 7605TIP3   OH247009   5.650   7.597   2.245  0.3586 -0.0439  0.2673
 7605TIP3    H147010   5.700   7.528   2.201  0.8223  1.3611 -1.4987
 7605TIP3    H247011   5.716   7.652   2.287  0.1091  0.1848  0.3621
 7606TIP3   OH247012   4.140   5.514   1.950 -0.4222  0.3881 -0.3246
 7606TIP3    H147013   4.211   5.514   2.014 -0.2685 -0.4367 -0.4835
 7606TIP3    H247014   4.179   5.481   1.869 -1.0247 -0.2995 -0.3511
 7607TIP3   OH247015   6.531   3.109   2.591 -0.4925 -0.0084 -0.7239
 7607TIP3    H147016   6.540   3.018   2.621 -0.1068  0.5600  0.9874
 7607TIP3    H247017   6.481   3.102   2.510 -0.0277 -1.7879 -0.9079
 7608TIP3   OH247018   4.620   2.067   1.233  0.0797 -0.4422 -0.3051
 7608TIP3    H147019   4.697   2.032   1.188 -0.3185  1.0863 -2.2938
 7608TIP3    H247020   4.545   2.027   1.189 -0.2929 -0.3722  0.2530
 7609TIP3   OH247021   2.728   5.524   0.847 -0.4389  0.5014  0.5009
 7609TIP3    H147022   2.776   5.589   0.898  0.8911 -0.4412  0.4755
 7609TIP3    H247023   2.679   5.576   0.783  0.6142  1.4791  0.4675
 7610TIP3   OH247024   7.424   4.108   0.889 -0.1386 -0.2626  0.1977
 7610TIP3    H147025   7.335   4.133   0.865  0.6334  0.8343 -1.7076
 7610TIP3    H247026   7.420   4.013   0.903 -1.3346 -0.4295 -1.1477
 7611TIP3   OH247027   3.279   7.095   0.965 -0.3095 -0.3760  1.0526
 7611TIP3    H147028   3.184   7.095   0.976 -0.7113  0.9853 -1.6615
 7611TIP3    H247029   3.294   7.051   0.882  1.4302 -0.1900  1.2275
 7612TIP3   OH247030   1.629   2.402   0.666 -0.5047 -0.5312  0.0951
 7612TIP3    H147031   1.604   2.309   0.674  0.4594 -0.7752  0.4297
 7612TIP3    H247032   1.623   2.420   0.572  0.7333 -1.3787 -0.1865
 7613TIP3   OH247033   4.297   1.366   1.080  0.5094 -0.1608  0.3590
 7613TIP3    H147034   4.387   1.339   1.064  0.1143 -1.5118  0.3436
 7613TIP3    H247035   4.251   1.286   1.106 -0.7886  0.4147 -0.0674
 7614TIP3   OH247036   6.545   6.250   1.091 -0.4882  0.0273  0.2612
 7614TIP3    H147037   6.641   6.250   1.089 -0.4947 -0.5903 -1.0690
 7614TIP3    H247038   6.523   6.214   1.177  0.4489  1.5383  1.1840
 7615TIP3   OH247039   2.189   1.991   1.450  0.3649 -0.2848 -0.7011
 7615TIP3    H147040   2.185   1.953   1.362  0.6754 -0.3503 -0.6882
 7615TIP3    H247041   2.277   1.971   1.481 -0.3641 -2.0003  0.4127
 7616TIP3   OH247042   7.473   3.576   0.792 -0.3074  0.1293  1.0371
 7616TIP3    H147043   7.407   3.521   0.835  0.4033  0.1187  2.1512
 7616TIP3    H247044   7.433   3.601   0.709 -1.2717 -0.7782  1.2114
 7617TIP3   OH247045   1.615   0.329   1.483 -0.1723  0.0615  0.3451
 7617TIP3    H147046   1.620   0.425   1.476  0.9625 -0.0175 -0.1071
 7617TIP3    H247047   1.539   0.313   1.539  0.8554  1.2977  2.1721
 7618TIP3   OH247048   5.411   5.273   1.987 -0.3087  0.0781 -0.3040
 7618TIP3    H147049   5.500   5.274   1.951 -0.4072  0.3810 -0.5467
 7618TIP3    H247050   5.422   5.298   2.078 -0.2181  0.8143 -0.5113
 7619TIP3   OH247051   0.767   6.923   0.610  0.6547 -0.2230  0.2623
 7619TIP3    H147052   0.767   6.837   0.567  1.5084 -1.7378  3.0534
 7619TIP3    H247053   0.676   6.938   0.635  0.6769 -0.8964  0.7816
 7620TIP3   OH247054   2.837   2.127   1.169  0.1849  0.0324  0.3380
 7620TIP3    H147055   2.903   2.088   1.112  0.2869  2.1268 -1.0792
 7620TIP3    H247056   2.872   2.115   1.258  0.7641 -1.9311 -0.1164
 7621TIP3   OH247057   2.687   0.186   1.678  0.1121  0.0718  0.0780
 7621TIP3    H147058   2.711   0.188   1.770 -1.0406  1.4706  0.3850
 7621TIP3    H247059   2.756   0.236   1.634 -0.5524  1.4712  0.5446
 7622TIP3   OH247060   6.614   7.255   0.868 -0.3322  0.5029  0.1507
 7622TIP3    H147061   6.617   7.336   0.918 -0.7668  0.2525  0.5930
 7622TIP3    H247062   6.531   7.258   0.821  0.6496  1.3522 -1.6372
 7623TIP3   OH247063   6.204   6.938   1.335 -0.5421 -0.9589 -0.1872
 7623TIP3    H147064   6.294   6.931   1.301  0.2908 -1.3684  1.9834
 7623TIP3    H247065   6.211   7.000   1.407 -2.3886  0.3478 -1.0541
 7624TIP3   OH247066   0.837   5.633   1.065  0.3266  0.1892  0.4630
 7624TIP3    H147067   0.821   5.573   0.992 -0.0376  2.3079 -1.3468
 7624TIP3    H247068   0.818   5.583   1.144  1.0489 -2.3243 -0.8755
 7625TIP3   OH247069   5.694   4.569   1.433 -0.2344 -0.3361 -0.1844
 7625TIP3    H147070   5.620   4.558   1.493 -0.4299 -0.3332 -0.4251
 7625TIP3    H247071   5.656   4.605   1.353  0.0712 -0.0497 -0.2053
 7626TIP3   OH247072   4.482   1.161   1.939 -0.0636  0.6703 -0.4652
 7626TIP3    H147073   4.417   1.100   1.973  2.0002 -1.3370  0.1735
 7626TIP3    H247074   4.449   1.187   1.853 -0.8637 -1.7296 -0.9644
 7627TIP3   OH247075   5.394   0.470   0.806 -0.8132  0.1820 -0.2621
 7627TIP3    H147076   5.462   0.412   0.840 -0.3531  0.3082 -0.9465
 7627TIP3    H247077   5.403   0.464   0.711 -0.4215  1.7696 -0.3490
 7628TIP3   OH247078   1.294   3.600   2.797  0.6670  0.1090  0.6521
 7628TIP3    H147079   1.375   3.603   2.745  1.0538 -1.0094  1.1691
 7628TIP3    H247080   1.258   3.688   2.789  0.7561 -0.0067 -1.4379
 7629TIP3   OH247081   0.254   7.299   3.414  0.4191  0.6286 -0.8532
 7629TIP3    H147082   0.266   7.208   3.442 -0.9897 -0.1995 -2.7847
 7629TIP3    H247083   0.328   7.316   3.356  0.4293  0.5685 -0.8581
 7630TIP3   OH247084   3.729   6.098   3.268  0.2649 -0.0834  0.3031
 7630TIP3    H147085   3.813   6.105   3.313  1.1841  1.4549 -1.5509
 7630TIP3    H247086   3.691   6.186   3.274 -1.1511 -0.6997  0.9223
 7631TIP3   OH247087   0.889   3.287   2.920 -0.0145  0.1801 -0.0975
 7631TIP3    H147088   0.885   3.231   2.842  0.0644  2.7503 -2.0648
 7631TIP3    H247089   0.948   3.358   2.896  0.4832  0.7904  2.5735
 7632TIP3   OH247090   3.704   3.589   3.113 -0.5622 -0.1725 -0.1937
 7632TIP3    H147091   3.799   3.598   3.122 -0.7437  0.6967  1.1336
 7632TIP3    H247092   3.680   3.520   3.175 -0.9116  0.3645  0.2794
 7633TIP3   OH247093   3.450   6.303   1.443  0.0865 -0.1523  0.1862
 7633TIP3    H147094   3.368   6.341   1.474 -0.3109  0.3350 -1.3926
 7633TIP3    H247095   3.483   6.254   1.518 -1.2599  0.2681  1.0920
 7634TIP3   OH247096   7.436   1.291   1.420 -0.4609  0.3342 -0.5084
 7634TIP3    H147097   7.519   1.249   1.397 -0.5950  0.8046 -1.9260
 7634TIP3    H247098   7.386   1.222   1.464  0.2224 -0.3000 -0.6937
 7635TIP3   OH247099   3.777   4.284   1.183  0.5373  0.0503  0.3005
 7635TIP3    H147100   3.810   4.198   1.157  1.6267  0.1336  1.3295
 7635TIP3    H247101   3.682   4.272   1.188  0.4412 -0.4500 -1.8052
 7636TIP3   OH247102   1.760   3.408   1.075 -0.1057  0.5187  0.0407
 7636TIP3    H147103   1.736   3.322   1.109  0.3078  0.0963 -0.7190
 7636TIP3    H247104   1.743   3.402   0.981 -2.4443  2.0670  0.2751
 7637TIP3   OH247105   3.207   6.288   1.876 -0.0374 -0.1610  0.5227
 7637TIP3    H147106   3.254   6.217   1.832  1.8903  1.1442  0.3327
 7637TIP3    H247107   3.188   6.253   1.963  1.1570 -0.8319  0.5489
 7638TIP3   OH247108   7.004   6.366   1.281  0.1873  0.5920  0.2689
 7638TIP3    H147109   7.058   6.398   1.209  2.5186 -0.4452  1.4403
 7638TIP3    H247110   6.985   6.275   1.257  1.9026 -0.1065  1.3869
 7639TIP3   OH247111   5.485   3.417   1.486 -0.4679 -0.8802  0.1896
 7639TIP3    H147112   5.535   3.492   1.454 -0.2306 -1.9400 -2.1362
 7639TIP3    H247113   5.408   3.456   1.527  0.5175  0.6703  0.6548
 7640TIP3   OH247114   5.600   3.881   1.825 -0.0495  0.8977 -0.4748
 7640TIP3    H147115   5.528   3.820   1.810  0.6830  0.5557 -3.0057
 7640TIP3    H247116   5.557   3.964   1.849 -1.0966 -0.1598  1.5798
 7641TIP3   OH247117   0.925   2.248   2.837 -0.8878  0.4524  0.1348
 7641TIP3    H147118   0.940   2.312   2.768  0.2389  0.7635  0.6558
 7641TIP3    H247119   0.890   2.299   2.911 -0.3444  0.4217  0.4198
 7642TIP3   OH247120   4.760   1.954   3.109 -0.1573  0.1421  0.4611
 7642TIP3    H147121   4.839   1.918   3.151 -0.3163  0.2206  0.8370
 7642TIP3    H247122   4.751   1.904   3.028  0.4916  0.3822  0.2267
 7643TIP3   OH247123   1.808   3.426   2.343 -0.1668 -0.0154  0.0126
 7643TIP3    H147124   1.877   3.360   2.353 -0.2035  0.0858  1.0622
 7643TIP3    H247125   1.727   3.375   2.342 -0.2091  0.0219  1.0511
 7644TIP3   OH247126   3.235   0.894   2.122 -0.5028 -0.3329 -0.3511
 7644TIP3    H147127   3.247   0.914   2.030 -0.3455 -0.4376 -0.3529
 7644TIP3    H247128   3.199   0.805   2.123 -0.1232 -0.4868 -0.2947
 7645TIP3   OH247129   2.688   4.060   2.370 -0.4020  0.1658  0.1193
 7645TIP3    H147130   2.632   4.122   2.325  0.9593  0.4670 -1.2348
 7645TIP3    H247131   2.684   3.980   2.318  0.6404  0.2926 -0.1837
 7646TIP3   OH247132   5.895   5.371   2.865  0.1251  0.4178 -0.3976
 7646TIP3    H147133   5.918   5.450   2.914 -0.4602  0.2083  0.2304
 7646TIP3    H247134   5.869   5.403   2.779  0.1598  0.8854 -0.2376
 7647TIP3   OH247135   0.916   3.708   1.371  0.1054  0.3269 -0.1617
 7647TIP3    H147136   0.971   3.785   1.390  3.8085 -2.0873 -0.0085
 7647TIP3    H247137   0.949   3.675   1.288  1.4092 -3.1393  1.5483
 7648TIP3   OH247138   0.371   2.626   0.663  0.3903 -0.4583 -0.0201
 7648TIP3    H147139   0.328   2.706   0.635  0.6103 -0.1462  0.5299
 7648TIP3    H247140   0.346   2.615   0.755  3.1816  0.9359  1.0282
 7649TIP3   OH247141   4.531   1.399   2.062  0.1935 -0.2082  0.1511
 7649TIP3    H147142   4.530   1.324   2.002 -1.3476 -0.9193  0.9892
 7649TIP3    H247143   4.503   1.473   2.008 -0.9168 -0.7868 -0.1144
 7650TIP3   OH247144   1.491   1.119   1.223 -0.4660 -0.3961 -0.5966
 7650TIP3    H147145   1.415   1.086   1.271 -0.3658 -0.6181 -0.5930
 7650TIP3    H247146   1.566   1.082   1.269 -0.3594 -0.2885 -0.6849
 7651TIP3   OH247147   5.056   7.381   1.158  0.2174 -0.5601 -0.1936
 7651TIP3    H147148   5.107   7.462   1.157  0.4860 -0.7268  0.0501
 7651TIP3    H247149   4.975   7.403   1.111 -0.3524  0.2816  1.1233
 7652TIP3   OH247150   4.868   1.113   1.827 -1.0229 -0.2108 -0.5087
 7652TIP3    H147151   4.958   1.104   1.858 -1.4364 -0.4551  0.6878
 7652TIP3    H247152   4.821   1.041   1.870 -1.9779  0.4943 -0.3432
 7653TIP3   OH247153   4.040   2.063   0.718 -0.2540 -0.5786 -0.0746
 7653TIP3    H147154   4.007   1.974   0.702 -0.2918 -1.0254  2.1212
 7653TIP3    H247155   3.975   2.103   0.775 -0.7223  1.2728 -1.7738
 7654TIP3   OH247156   6.316   7.354   1.979 -0.2953  0.0958  0.1728
 7654TIP3    H147157   6.222   7.358   1.961 -0.5864 -0.7511  1.3559
 7654TIP3    H247158   6.358   7.376   1.896 -1.5346 -0.6850 -0.6863
 7655TIP3   OH247159   3.675   3.059   0.922  0.2135 -0.0941  0.1042
 7655TIP3    H147160   3.640   3.139   0.961  0.8298  0.3372 -0.2034
 7655TIP3    H247161   3.769   3.064   0.939  0.3353 -0.4511 -0.4489
 7656TIP3   OH247162   1.959   5.917   2.361  0.8244 -0.6657 -0.3029
 7656TIP3    H147163   1.924   6.004   2.384  0.1564 -1.0579  0.1990
 7656TIP3    H247164   1.979   5.924   2.268  0.2415 -0.1400 -0.3983
 7657TIP3   OH247165   1.793   2.865   0.864 -0.2446  0.0379 -0.0909
 7657TIP3    H147166   1.824   2.795   0.807 -0.9510  0.9862 -1.6985
 7657TIP3    H247167   1.872   2.915   0.885 -0.1667  0.5300 -1.4673
 7658TIP3   OH247168   1.906   1.297   1.614  0.2457  0.7440  0.4251
 7658TIP3    H147169   1.912   1.386   1.580 -1.4374  1.2137  1.2138
 7658TIP3    H247170   1.973   1.248   1.567 -2.1758  1.1786 -4.0220
 7659TIP3   OH247171   6.320   3.037   1.237  0.0515 -0.1591  1.1299
 7659TIP3    H147172   6.232   3.069   1.217 -0.1732 -0.3646  1.7654
 7659TIP3    H247173   6.364   3.110   1.280  0.5212  0.2691 -0.0404
 7660TIP3   OH247174   4.852   6.002   1.320  0.8168 -0.8281  0.4634
 7660TIP3    H147175   4.856   6.014   1.225  0.1000 -0.3060  0.4872
 7660TIP3    H247176   4.923   6.055   1.354  0.7735 -0.6271  0.2443
 7661TIP3   OH247177   1.355   6.471   2.516  0.3087  0.1647  0.0953
 7661TIP3    H147178   1.421   6.497   2.452 -0.7828 -0.6691 -1.4330
 7661TIP3    H247179   1.274   6.509   2.483 -0.1459  0.4074  1.4470
 7662TIP3   OH247180   1.756   4.975   0.748  0.0576  0.2673  0.1169
 7662TIP3    H147181   1.780   4.898   0.696  0.1103  0.8252 -0.7210
 7662TIP3    H247182   1.778   5.049   0.691  0.5803  0.9193  1.1409
 7663TIP3   OH247183   2.467   5.192   1.140  0.6788 -0.3372  0.8624
 7663TIP3    H147184   2.458   5.228   1.052  1.5492  1.1907  1.3472
 7663TIP3    H247185   2.453   5.098   1.130 -2.8842  0.1930 -0.3128
 7664TIP3   OH247186   1.114   7.586   3.113  0.0625  0.5515 -0.0258
 7664TIP3    H147187   1.061   7.510   3.089 -0.8668  1.2714 -0.3063
 7664TIP3    H247188   1.144   7.567   3.202 -0.0502 -0.2020 -0.1434
 7665TIP3   OH247189   3.989   6.188   3.394  0.0231 -0.1780 -0.2890
 7665TIP3    H147190   3.984   6.271   3.347 -0.5978 -0.3811 -0.5967
 7665TIP3    H247191   4.071   6.148   3.363  0.4344  0.4068  0.0220
 7666TIP3   OH247192   2.884   3.313   2.124  0.3605 -0.2021  0.8006
 7666TIP3    H147193   2.839   3.320   2.041  1.2681  0.2532  0.3327
 7666TIP3    H247194   2.815   3.319   2.190 -0.2356  0.7127  0.1124
 7667TIP3   OH247195   6.305   3.242   0.712 -0.1351  0.3189  0.2110
 7667TIP3    H147196   6.297   3.337   0.705 -1.3398  0.1758 -0.7542
 7667TIP3    H247197   6.384   3.221   0.663 -0.1198  0.7814  0.0258
 7668TIP3   OH247198   5.843   6.153   0.594 -0.4236  0.6225 -0.1603
 7668TIP3    H147199   5.873   6.187   0.679  0.9196 -1.7208  0.4111
 7668TIP3    H247200   5.840   6.229   0.537  2.2839  1.7545  1.0364
 7669TIP3   OH247201   3.847   2.085   1.138  0.1397 -0.0827  0.2487
 7669TIP3    H147202   3.840   1.990   1.129 -1.4252 -0.0159  0.5722
 7669TIP3    H247203   3.774   2.120   1.087  0.8802  0.9822 -0.1291
 7670TIP3   OH247204   0.095   0.313   2.628  0.2316  0.1929  0.5505
 7670TIP3    H147205   0.103   0.234   2.574  0.6073  0.6748 -0.1040
 7670TIP3    H247206   0.110   0.281   2.718 -0.3030 -0.5922  0.3740
 7671TIP3   OH247207   4.786   6.941   2.022 -0.4512  0.4059  0.5066
 7671TIP3    H147208   4.711   6.915   1.968 -0.1627 -0.0480  0.3178
 7671TIP3    H247209   4.854   6.877   2.001 -0.7557 -0.6063  2.3949
 7672TIP3   OH247210   0.629   0.050   1.318 -0.2683  0.3458 -0.9490
 7672TIP3    H147211   0.555   0.030   1.375  1.2345 -0.3424  0.8841
 7672TIP3    H247212   0.626  -0.018   1.251 -0.2142 -0.8551  0.2251
 7673TIP3   OH247213   5.353   5.104   2.411 -0.4710 -0.6660  0.0140
 7673TIP3    H147214   5.384   5.039   2.348 -0.9160  0.3982 -1.3569
 7673TIP3    H247215   5.365   5.062   2.496  0.7315 -1.9145 -0.7199
 7674TIP3   OH247216   1.462   1.847   0.368 -0.1908 -0.6614  0.3037
 7674TIP3    H147217   1.547   1.838   0.412 -0.3322 -0.7714  0.5595
 7674TIP3    H247218   1.484   1.875   0.279  0.0808 -0.1247  0.5381
 7675TIP3   OH247219   1.349   5.768   1.570  0.0957  0.4510 -0.8512
 7675TIP3    H147220   1.312   5.780   1.482 -2.1362  2.0344  0.2078
 7675TIP3    H247221   1.335   5.852   1.614 -1.5198 -1.1157  1.9182
 7676TIP3   OH247222   2.659   6.106   2.100  0.3026 -0.1731  0.3819
 7676TIP3    H147223   2.600   6.175   2.132  0.3924  1.4552 -2.5682
 7676TIP3    H247224   2.610   6.025   2.112 -1.0014  0.7228  1.3979
 7677TIP3   OH247225   1.234   4.894   1.403  0.3175  0.0058  0.2148
 7677TIP3    H147226   1.146   4.884   1.366 -0.6010  0.0864  2.2295
 7677TIP3    H247227   1.224   4.962   1.470  1.8452 -0.2198  0.6976
 7678TIP3   OH247228   3.380   6.604   1.638 -0.3704 -0.1379 -0.0567
 7678TIP3    H147229   3.355   6.512   1.626  1.4387 -0.6215 -0.5293
 7678TIP3    H247230   3.343   6.629   1.723 -1.4168 -1.0917 -0.2039
 7679TIP3   OH247231   1.759   2.503   1.649  0.1797  0.3455 -0.3572
 7679TIP3    H147232   1.687   2.446   1.623  0.3764  1.2225 -3.1796
 7679TIP3    H247233   1.716   2.578   1.690 -0.2876 -0.3310  0.4190
 7680TIP3   OH247234   1.549   2.154   2.688  0.3786 -0.0056  0.1875
 7680TIP3    H147235   1.550   2.161   2.593 -2.0190 -0.0740  0.0874
 7680TIP3    H247236   1.461   2.122   2.709  0.8167  0.0665  2.4367
 7681TIP3   OH247237   2.641   2.554   1.422 -0.3546 -0.0924 -0.3299
 7681TIP3    H147238   2.611   2.465   1.439  0.6574 -0.2946  0.4977
 7681TIP3    H247239   2.736   2.547   1.417 -0.2846  0.8942 -0.5406
 7682TIP3   OH247240   0.125   5.458   2.680 -0.4157  0.4691  0.2513
 7682TIP3    H147241   0.140   5.490   2.770  0.4623  0.1393  0.2278
 7682TIP3    H247242   0.190   5.504   2.627 -0.4893  0.1608 -0.1112
 7683TIP3   OH247243   0.064   2.615   2.490  0.0929 -0.2143  0.8126
 7683TIP3    H147244   0.089   2.673   2.562 -1.0321  1.4389 -0.0616
 7683TIP3    H247245  -0.032   2.610   2.495  0.0873 -1.0930  0.1688
 7684TIP3   OH247246   7.525   2.686   1.687 -0.0024 -0.1181  0.0721
 7684TIP3    H147247   7.454   2.745   1.662  0.2665 -0.2026 -0.9093
 7684TIP3    H247248   7.487   2.598   1.682  0.5308 -0.2666 -1.7875
 7685TIP3   OH247249   1.095   7.090   1.099 -0.3765 -0.0054  0.3111
 7685TIP3    H147250   1.146   7.056   1.025  1.3151  1.5593  0.6625
 7685TIP3    H247251   1.158   7.094   1.171 -0.9896  1.9425  0.7986
 7686TIP3   OH247252   1.963   6.727   1.883  0.4523  0.3531  0.0612
 7686TIP3    H147253   2.022   6.675   1.938 -0.0572  0.5180  0.7751
 7686TIP3    H247254   2.020   6.794   1.845  1.1846 -0.9009 -1.1526
 7687TIP3   OH247255   1.138   5.557   2.511 -0.2652  0.3919 -0.4298
 7687TIP3    H147256   1.221   5.568   2.558  0.1920  2.5785 -1.5636
 7687TIP3    H247257   1.070   5.573   2.576  0.0626 -2.7496  0.8369
 7688TIP3   OH247258   1.404   5.499   1.348 -0.1444  0.0999 -0.0615
 7688TIP3    H147259   1.444   5.482   1.263  0.9238  3.0686 -0.2665
 7688TIP3    H247260   1.467   5.555   1.394 -1.2410 -0.3906  2.2059
 7689TIP3   OH247261   4.273   0.285   1.216 -0.1544  0.5714  0.2807
 7689TIP3    H147262   4.277   0.204   1.165  0.0329  0.1836  0.9030
 7689TIP3    H247263   4.359   0.291   1.258 -0.5269  0.5555  1.0565
 7690TIP3   OH247264   5.418   6.677   2.709  0.0320 -0.0694  0.2312
 7690TIP3    H147265   5.484   6.726   2.757  0.9634 -1.0100 -0.0592
 7690TIP3    H247266   5.335   6.715   2.738  0.5281 -0.7520  2.7892
 7691TIP3   OH247267   7.158   4.473   3.028 -0.8648 -0.1734 -0.0486
 7691TIP3    H147268   7.233   4.456   2.971 -1.0885 -0.8684 -0.1501
 7691TIP3    H247269   7.165   4.406   3.096 -0.8738  0.3471  0.4670
 7692TIP3   OH247270   5.683   3.245   1.635 -0.1203 -0.3939 -0.0726
 7692TIP3    H147271   5.601   3.197   1.646  0.2049 -0.7036  1.0903
 7692TIP3    H247272   5.658   3.327   1.593 -0.8698 -0.9557 -0.7514
 7693TIP3   OH247273   3.059   5.303   8.442  0.5961  0.1212 -0.4260
 7693TIP3    H147274   3.090   5.363   8.374  1.0579 -1.7159 -1.9592
 7693TIP3    H247275   3.089   5.341   8.524 -1.8648  3.5958 -0.9491
 7694TIP3   OH247276   4.955   0.599   0.807 -0.2330  0.5077 -0.5693
 7694TIP3    H147277   4.873   0.550   0.818 -0.9468  1.4868 -1.3489
 7694TIP3    H247278   5.024   0.537   0.833 -1.3186  0.5592  3.0923
 7695TIP3   OH247279   6.014   4.073   2.050 -0.0061  0.0761 -0.0876
 7695TIP3    H147280   5.924   4.076   2.083 -0.3749  3.5773 -1.0097
 7695TIP3    H247281   6.006   4.031   1.964 -0.2842 -1.8568  0.8227
 7696TIP3   OH247282   0.538   0.697   1.010 -0.5359  0.3389  0.1303
 7696TIP3    H147283   0.614   0.756   1.004  0.0890 -0.5049 -0.6656
 7696TIP3    H247284   0.492   0.725   1.088  0.5831  0.9171  0.6134
 7697TIP3   OH247285   7.119   6.605   0.415  0.4849 -0.0073 -0.1542
 7697TIP3    H147286   7.118   6.537   0.483  0.5430  0.8414  0.7113
 7697TIP3    H247287   7.056   6.574   0.350  1.2055 -1.3641 -0.2544
 7698TIP3   OH247288   4.166   5.037   1.263  0.7624  0.6312 -0.2133
 7698TIP3    H147289   4.108   5.065   1.192 -0.0304  1.4836  0.7356
 7698TIP3    H247290   4.170   4.942   1.255 -0.5539  0.5776 -0.4683
 7699TIP3   OH247291   6.554   6.800   2.500 -0.2610  0.2355 -0.0250
 7699TIP3    H147292   6.597   6.885   2.490  0.0951  0.5169  2.9930
 7699TIP3    H247293   6.623   6.742   2.532 -1.1407 -0.4280  0.7071
 7700TIP3   OH247294   6.431   0.046   0.442 -0.0161 -0.3302 -0.5829
 7700TIP3    H147295   6.419  -0.041   0.481  1.3334 -0.6499 -0.8286
 7700TIP3    H247296   6.417   0.033   0.349 -0.7900 -0.0778 -0.5029
 7701TIP3   OH247297   6.207   5.374   0.918 -0.2690  0.1985  0.5245
 7701TIP3    H147298   6.207   5.423   1.000 -0.5971 -1.6783  1.6960
 7701TIP3    H247299   6.278   5.311   0.927  1.2353  1.4464 -1.6320
 7702TIP3   OH247300   5.682   0.735   2.051  0.5994 -0.0344 -0.2780
 7702TIP3    H147301   5.640   0.820   2.042  0.0099 -0.3806 -0.8774
 7702TIP3    H247302   5.689   0.702   1.961  0.8469 -0.6088 -0.0526
 7703TIP3   OH247303   3.763   3.580   1.139  0.2984  0.3284  0.8353
 7703TIP3    H147304   3.690   3.625   1.096 -1.3182 -2.1726  0.7306
 7703TIP3    H247305   3.841   3.610   1.092 -1.0494  0.3567 -1.5475
 7704TIP3   OH247306   0.523   5.695   2.985 -0.1271 -0.0763  0.2725
 7704TIP3    H147307   0.528   5.751   3.062 -0.9235 -2.5636  2.2863
 7704TIP3    H247308   0.592   5.630   2.998 -0.1347 -0.4142 -1.2263
 7705TIP3   OH247309   4.316   0.685   1.920 -0.2183  0.1770  0.4401
 7705TIP3    H147310   4.221   0.687   1.928 -0.1859  0.3329  0.8066
 7705TIP3    H247311   4.332   0.643   1.835 -0.6225  0.9484 -0.0287
 7706TIP3   OH247312   7.493   2.402   1.556 -0.2493 -0.0519  0.4629
 7706TIP3    H147313   7.500   2.350   1.637 -1.4186  0.6834  1.0570
 7706TIP3    H247314   7.400   2.396   1.532 -0.6435  2.5547  1.1037
 7707TIP3   OH247315   3.898   3.441   0.680  0.4408 -0.2496 -0.1167
 7707TIP3    H147316   3.871   3.527   0.648 -0.2415  0.2702  1.7382
 7707TIP3    H247317   3.817   3.401   0.712  0.9531 -1.0790  0.1681
 7708TIP3   OH247318   2.806   3.487   1.643  0.1020 -0.1581  0.5082
 7708TIP3    H147319   2.804   3.570   1.692  2.1052 -0.5795  1.3962
 7708TIP3    H247320   2.871   3.502   1.574  0.5132 -0.9819  0.7071
 7709TIP3   OH247321   1.896   0.627   2.363  0.0554 -0.1093  0.2824
 7709TIP3    H147322   1.944   0.604   2.442  1.3500 -2.7152 -1.1444
 7709TIP3    H247323   1.962   0.666   2.306 -0.8226  1.5447  0.3215
 7710TIP3   OH247324   6.450   0.951   0.622  0.5850  0.1058  0.3693
 7710TIP3    H147325   6.529   1.004   0.610  1.4534 -1.7959 -5.0615
 7710TIP3    H247326   6.383   0.996   0.571 -0.6791 -0.4854  1.4463
 7711TIP3   OH247327   6.359   4.320   1.752 -0.2645 -0.2305  0.0205
 7711TIP3    H147328   6.419   4.394   1.747  0.4868 -0.8845 -0.9213
 7711TIP3    H247329   6.280   4.356   1.793  1.0091  0.4841  2.0396
 7712TIP3   OH247330   1.315   7.362   0.900  0.5811  0.0641  0.0262
 7712TIP3    H147331   1.270   7.396   0.977 -1.3399 -1.7028 -0.2503
 7712TIP3    H247332   1.333   7.440   0.847  0.4815  1.1227  1.4634
 7713TIP3   OH247333   0.750   0.704   1.231 -0.1747 -0.0745 -0.4143
 7713TIP3    H147334   0.655   0.703   1.236 -0.2027 -2.8901  0.5892
 7713TIP3    H247335   0.778   0.757   1.305 -0.9709  0.1175 -0.2423
 7714TIP3   OH247336   6.845   1.568   2.758  0.1458  0.5641  0.6104
 7714TIP3    H147337   6.930   1.533   2.730  0.0530 -1.1024  2.1986
 7714TIP3    H247338   6.849   1.661   2.737  2.0523  0.3721 -0.0764
 7715TIP3   OH247339   6.330   1.366   1.471 -0.1003 -0.3990  0.1830
 7715TIP3    H147340   6.418   1.396   1.495 -0.7673  0.4591  1.7123
 7715TIP3    H247341   6.300   1.318   1.548 -0.7504 -1.2184 -0.5703
 7716TIP3   OH247342   4.353   0.031   1.057 -0.3828 -0.1857 -0.1397
 7716TIP3    H147343   4.378  -0.044   1.110 -1.2240 -0.8197 -0.6267
 7716TIP3    H247344   4.432   0.052   1.007 -0.1270 -0.6966  0.0397
 7717TIP3   OH247345   5.207   1.875   1.255  0.8553 -0.4500  0.1015
 7717TIP3    H147346   5.213   1.934   1.330 -0.0362 -1.7744  1.2641
 7717TIP3    H247347   5.143   1.916   1.197  0.6125 -0.0212  0.6599
 7718TIP3   OH247348   7.064   5.159   0.576 -0.2136 -0.3330  0.2242
 7718TIP3    H147349   7.122   5.145   0.651 -1.5904 -1.1250  1.1767
 7718TIP3    H247350   7.099   5.103   0.507 -0.4425 -1.6257  1.1290
 7719TIP3   OH247351   0.443   5.290   0.975  0.2752 -0.4340 -0.5207
 7719TIP3    H147352   0.354   5.261   0.950  0.2387 -0.5024 -0.3147
 7719TIP3    H247353   0.434   5.317   1.066  0.0306  1.4402 -1.0592
 7720TIP3   OH247354   7.621   5.989   2.901 -0.1228  0.2446 -0.1750
 7720TIP3    H147355   7.706   5.950   2.881 -0.5565 -1.5392  1.1731
 7720TIP3    H247356   7.622   5.999   2.996 -1.8260 -0.8663 -0.0058
 7721TIP3   OH247357   4.738   4.602   2.429  0.1511 -0.4830 -0.5149
 7721TIP3    H147358   4.827   4.567   2.438 -1.0984 -3.8318  0.0681
 7721TIP3    H247359   4.716   4.590   2.337  0.2525  0.2948 -0.6471
 7722TIP3   OH247360   6.051   2.008   3.078  0.2435  0.1608  0.5243
 7722TIP3    H147361   5.977   2.069   3.068 -0.0582 -0.2593  0.1740
 7722TIP3    H247362   6.026   1.951   3.150  0.8428  0.9021  1.3323
 7723TIP3   OH247363   6.383   0.356   1.163 -0.3731 -0.2575  0.2081
 7723TIP3    H147364   6.465   0.308   1.172  0.0657  0.1839 -1.1176
 7723TIP3    H247365   6.381   0.414   1.239  1.6798  1.3113 -0.8011
 7724TIP3   OH247366   1.570   2.494   3.068  0.2701 -0.8305 -0.1709
 7724TIP3    H147367   1.540   2.511   3.157 -1.8889 -0.5028 -0.9001
 7724TIP3    H247368   1.551   2.401   3.053 -0.1670 -0.6826 -0.5595
 7725TIP3   OH247369   3.800   3.987   1.038 -0.3076  0.6604  0.2456
 7725TIP3    H147370   3.777   3.895   1.024  1.1093  0.2315  0.5902
 7725TIP3    H247371   3.727   4.036   0.999 -0.6739 -0.5905 -0.7133
 7726TIP3   OH247372   2.638   6.435   2.178  0.1578 -0.1175  0.0163
 7726TIP3    H147373   2.617   6.385   2.099  1.9658  0.3709 -0.8216
 7726TIP3    H247374   2.552   6.454   2.217 -0.6473 -2.5934 -0.3781
 7727TIP3   OH247375   1.355   6.057   3.366  0.3115 -0.2661  0.0863
 7727TIP3    H147376   1.405   6.127   3.324 -0.7905 -0.6108 -1.9123
 7727TIP3    H247377   1.410   5.980   3.359 -0.2654 -0.5478 -1.7127
 7728TIP3   OH247378   5.829   4.903   2.351  0.1537  0.6968 -0.0600
 7728TIP3    H147379   5.747   4.880   2.396 -0.0499  0.7649 -0.3959
 7728TIP3    H247380   5.896   4.851   2.396  0.2334  2.0205  1.4538
 7729TIP3   OH247381   2.087   0.269   2.547  0.2600  0.2324 -0.3228
 7729TIP3    H147382   2.163   0.216   2.572  0.5158  1.6140  2.0769
 7729TIP3    H247383   2.014   0.230   2.594  0.4378  1.8618  1.4107
 7730TIP3   OH247384   3.950   1.522   0.904  0.1521 -0.6518  0.5473
 7730TIP3    H147385   3.963   1.470   0.984 -0.4630 -0.5440  0.7216
 7730TIP3    H247386   3.992   1.606   0.924 -0.2904 -0.5086  0.8857
 7731TIP3   OH247387   0.198   2.391   2.390  0.1394 -0.1789  0.4075
 7731TIP3    H147388   0.142   2.464   2.418  2.6044  1.4690  1.3888
 7731TIP3    H247389   0.212   2.406   2.297  1.9099  1.6640  0.8918
 7732TIP3   OH247390   3.774   6.031   1.206 -0.1664 -0.2306  0.2867
 7732TIP3    H147391   3.854   6.005   1.161 -0.6924  1.3104 -1.6850
 7732TIP3    H247392   3.802   6.100   1.266  0.0252  0.1444 -0.2297
 7733TIP3   OH247393   2.290   1.669   2.605 -0.0890 -0.2474  0.3962
 7733TIP3    H147394   2.211   1.658   2.659 -0.7972 -1.3499 -0.8044
 7733TIP3    H247395   2.285   1.597   2.541  1.7957 -0.2103  0.1720
 7734TIP3   OH247396   0.852   4.645   3.149  0.4347  0.8675  0.1845
 7734TIP3    H147397   0.900   4.721   3.184 -2.0119  2.5932  0.0686
 7734TIP3    H247398   0.820   4.675   3.064  2.2669 -1.5924 -1.4941
 7735TIP3   OH247399   4.481   3.448   0.850  0.1357 -0.4368 -0.1229
 7735TIP3    H147400   4.393   3.479   0.873  0.4480  1.1988 -0.9628
 7735TIP3    H247401   4.491   3.365   0.897 -1.1352  0.2730  1.4867
 7736TIP3   OH247402   3.449   4.143   2.872 -0.1923 -0.2550  0.1132
 7736TIP3    H147403   3.474   4.086   2.945 -1.2582 -0.8129  0.0749
 7736TIP3    H247404   3.510   4.216   2.876  0.0927 -0.5349  1.2485
 7737TIP3   OH247405   4.787   3.514   1.879  0.1807  0.3007  0.8617
 7737TIP3    H147406   4.806   3.538   1.788  3.0127 -1.2304  0.9321
 7737TIP3    H247407   4.720   3.445   1.872 -1.0401  1.5042  0.1240
 7738TIP3   OH247408   5.587   4.497   2.409 -0.5945 -1.1100  0.0906
 7738TIP3    H147409   5.579   4.523   2.317 -0.1759 -1.5954 -0.0875
 7738TIP3    H247410   5.561   4.405   2.410 -2.5277 -0.6006  0.7861
 7739TIP3   OH247411   0.887   7.507   0.511 -0.3220 -0.3871  0.0913
 7739TIP3    H147412   0.861   7.471   0.596  1.4467 -1.2091  0.3139
 7739TIP3    H247413   0.932   7.435   0.466  0.5651  0.6345 -0.7159
 7740TIP3   OH247414   4.950   2.355   2.005 -0.2245 -0.2063  0.5370
 7740TIP3    H147415   4.968   2.315   2.090  0.3112 -1.3948 -0.0992
 7740TIP3    H247416   5.036   2.372   1.968 -0.4200 -1.1273 -0.3913
 7741TIP3   OH247417   0.602   5.510   0.911  0.3295  0.4668 -0.4790
 7741TIP3    H147418   0.557   5.428   0.930  1.3152 -0.2919 -1.3606
 7741TIP3    H247419   0.532   5.569   0.883 -0.2383 -0.4400 -1.0180
 7742TIP3   OH247420   6.133   4.262   3.287  0.4213  0.8022  0.2757
 7742TIP3    H147421   6.115   4.354   3.307  0.8001  1.4389 -1.9911
 7742TIP3    H247422   6.216   4.264   3.239  0.3137 -0.7123 -0.0345
 7743TIP3   OH247423   1.048   1.979   2.612 -0.4213  0.1283 -0.1811
 7743TIP3    H147424   1.085   1.891   2.603  3.4001  1.5624 -0.2471
 7743TIP3    H247425   1.061   2.019   2.526 -1.2274  1.0976  0.1308
 7744TIP3   OH247426   2.813   0.831   1.899  0.0609  0.1359  0.2447
 7744TIP3    H147427   2.862   0.774   1.958 -1.0350  0.2868  1.3387
 7744TIP3    H247428   2.825   0.791   1.812  0.8130 -0.7115  0.7205
 7745TIP3   OH247429   3.230   5.859   2.460 -0.2421 -0.3189 -0.2577
 7745TIP3    H147430   3.233   5.879   2.553 -3.1176  0.6222 -0.2669
 7745TIP3    H247431   3.267   5.771   2.453  0.4968 -0.2061  1.6806
 7746TIP3   OH247432   1.425   0.625   1.080  0.6012 -0.1658 -0.0709
 7746TIP3    H147433   1.416   0.572   1.159 -0.5392 -0.3520 -0.2983
 7746TIP3    H247434   1.389   0.570   1.010 -1.4254  1.1604 -0.1731
 7747TIP3   OH247435   4.540   4.552   1.222 -0.2487  0.0580 -0.1029
 7747TIP3    H147436   4.516   4.460   1.234 -1.3879  0.3363 -0.1106
 7747TIP3    H247437   4.588   4.575   1.302  1.7260 -1.0298 -0.9104
 7748TIP3   OH247438   3.486   2.566   2.985 -0.4576 -0.1659  0.3760
 7748TIP3    H147439   3.402   2.529   3.013 -0.4428  0.1570  0.8581
 7748TIP3    H247440   3.468   2.605   2.900 -0.9949  0.5834  0.8167
 7749TIP3   OH247441   0.024   3.707   1.299 -0.1283 -0.8003  0.0520
 7749TIP3    H147442  -0.030   3.724   1.222 -0.2625 -1.4959 -0.0115
 7749TIP3    H247443   0.000   3.776   1.361 -1.3309 -1.2849  0.1484
 7750TIP3   OH247444   4.576   0.684   2.018  0.7228  0.6003  0.1296
 7750TIP3    H147445   4.486   0.692   1.986  1.2067  0.4490 -1.3318
 7750TIP3    H247446   4.593   0.590   2.016  0.9054  0.6265  0.4457
 7751TIP3   OH247447   4.748   7.126   0.637 -0.1231 -0.2275  0.5044
 7751TIP3    H147448   4.736   7.174   0.719 -1.9377  0.3756 -0.0543
 7751TIP3    H247449   4.808   7.180   0.586 -0.0178  0.0684  0.9352
 7752TIP3   OH247450   1.994   5.810   2.942 -0.1010  0.6636  0.2007
 7752TIP3    H147451   2.061   5.777   2.882  0.0212 -0.0390  0.7034
 7752TIP3    H247452   2.027   5.896   2.970  0.9861  0.0189  1.0105
 7753TIP3   OH247453   5.821   7.511   2.049 -0.3729 -0.7585  0.5724
 7753TIP3    H147454   5.776   7.489   1.968 -1.6240  0.0154  1.0260
 7753TIP3    H247455   5.874   7.434   2.068  0.4935 -0.6892 -1.3226
 7754TIP3   OH247456   7.254   5.195   1.557  0.0281 -0.2185 -0.0711
 7754TIP3    H147457   7.178   5.253   1.561 -0.7965 -1.1868 -1.1796
 7754TIP3    H247458   7.258   5.167   1.466  0.8020 -1.4030  0.3107
 7755TIP3   OH247459   3.562   0.841   0.539  0.8578  0.0315  0.2174
 7755TIP3    H147460   3.489   0.781   0.524  0.9587 -0.6346  2.1132
 7755TIP3    H247461   3.537   0.921   0.493 -1.0708 -0.1857  0.8006
 7756TIP3   OH247462   5.722   1.409   1.239  0.9602 -0.2286  0.7612
 7756TIP3    H147463   5.731   1.490   1.290  1.9975 -0.5750  1.1745
 7756TIP3    H247464   5.631   1.408   1.210  0.5572  0.4088  1.9159
 7757TIP3   OH247465   6.187   0.872   0.980  0.5926 -0.9960  0.0107
 7757TIP3    H147466   6.282   0.877   0.966  0.9741  0.8830  2.6666
 7757TIP3    H247467   6.151   0.942   0.926  0.9154 -0.6317  0.2601
 7758TIP3   OH247468   6.482   4.383   0.591  0.1432  0.1040 -0.3522
 7758TIP3    H147469   6.548   4.322   0.625  0.0893 -0.6289 -1.4621
 7758TIP3    H247470   6.532   4.458   0.559  0.2512  0.4581  0.6270
 7759TIP3   OH247471   6.704   1.583   1.328 -0.2308  0.0244  0.0050
 7759TIP3    H147472   6.745   1.664   1.358  0.5449  0.5151 -2.1859
 7759TIP3    H247473   6.774   1.518   1.333  0.2827  0.3913 -1.7828
 7760TIP3   OH247474   0.095   5.959   2.621  0.4522  0.0121  0.3386
 7760TIP3    H147475   0.013   5.916   2.644 -0.0003  1.0201  0.6453
 7760TIP3    H247476   0.136   5.900   2.558 -1.7969  0.7617 -2.0071
 7761TIP3   OH247477   0.062   0.261   2.961  0.0682 -0.5647 -0.2833
 7761TIP3    H147478   0.122   0.234   3.031  0.8861 -0.5328 -0.9655
 7761TIP3    H247479   0.020   0.180   2.933 -0.0502 -0.6188  0.0406
 7762TIP3   OH247480   5.475   6.432   0.725 -0.6033 -0.1736  0.3225
 7762TIP3    H147481   5.559   6.405   0.762  0.9304  1.0227 -2.0765
 7762TIP3    H247482   5.445   6.357   0.674 -0.6900 -0.3829  0.6800
 7763TIP3   OH247483   3.227   6.373   1.609  0.0646 -0.2358  0.3288
 7763TIP3    H147484   3.237   6.361   1.704  1.0134 -0.1742  0.2392
 7763TIP3    H247485   3.147   6.324   1.588 -0.2789 -0.0683  1.1939
 7764TIP3   OH247486   4.161   0.751   3.085  0.3298 -0.0558 -0.2266
 7764TIP3    H147487   4.107   0.731   3.008  1.5920 -2.3922 -0.6055
 7764TIP3    H247488   4.222   0.818   3.053 -0.8324  0.9368 -0.4472
 7765TIP3   OH247489   2.991   4.380   1.786  0.3013  0.2577 -0.3857
 7765TIP3    H147490   2.998   4.475   1.777  1.5618  0.1984 -0.1989
 7765TIP3    H247491   3.008   4.347   1.697  4.0483  0.0699  0.2252
 7766TIP3   OH247492   5.483   1.052   1.028 -0.1071 -0.3248  0.7095
 7766TIP3    H147493   5.414   1.063   0.963  0.6311 -1.0551 -0.2247
 7766TIP3    H247494   5.548   0.995   0.986  0.9445  0.1250  1.6525
 7767TIP3   OH247495   7.446   4.502   2.563  0.4537 -0.0439  0.0900
 7767TIP3    H147496   7.376   4.494   2.498  2.5940 -0.5315 -2.2628
 7767TIP3    H247497   7.445   4.594   2.589 -0.5922  0.0945 -0.3979
 7768TIP3   OH247498   7.548   7.417   0.976 -0.5960 -0.2238 -0.0490
 7768TIP3    H147499   7.517   7.358   1.045  0.9697 -0.7815  0.2287
 7768TIP3    H247500   7.481   7.486   0.971 -2.6337 -2.1359 -0.5936
 7769TIP3   OH247501   7.312   0.852   0.568  0.5966  0.5505  0.3364
 7769TIP3    H147502   7.279   0.801   0.642  1.6372  0.3774  0.6958
 7769TIP3    H247503   7.256   0.930   0.566  0.7237  0.6821  1.4761
 7770TIP3   OH247504   2.983   0.131   2.528  0.3702  0.2650  0.0737
 7770TIP3    H147505   2.974   0.220   2.562  0.1222  0.5344 -0.6782
 7770TIP3    H247506   2.948   0.075   2.598  1.7041  0.6418  1.0918
 7771TIP3   OH247507   7.084   0.016   2.506 -0.3276 -0.2684  0.1906
 7771TIP3    H147508   7.129  -0.017   2.429 -1.0170  1.2519 -0.9129
 7771TIP3    H247509   6.993   0.030   2.477 -0.4038  1.1384  0.9900
 7772TIP3   OH247510   5.190   0.319   1.174 -0.0902 -0.1447  0.3962
 7772TIP3    H147511   5.192   0.252   1.243 -1.7423  0.3288  0.9323
 7772TIP3    H247512   5.219   0.399   1.217  0.6167 -0.2212  0.0767
 7773TIP3   OH247513   0.350   2.686   1.421 -0.5200 -0.3866 -0.3448
 7773TIP3    H147514   0.268   2.637   1.432  0.0216 -1.2614 -0.0887
 7773TIP3    H247515   0.333   2.770   1.462 -1.6577 -0.1422 -1.2825
 7774TIP3   OH247516   3.441   3.010   2.877 -0.1393  0.8665  0.0090
 7774TIP3    H147517   3.470   3.043   2.962  0.3912  0.5450 -0.0371
 7774TIP3    H247518   3.522   3.004   2.825 -0.2315 -0.3497 -0.0244
 7775TIP3   OH247519   4.595   0.042   1.297 -0.2579  0.3151 -0.0518
 7775TIP3    H147520   4.507   0.048   1.333 -0.7031  0.2748 -1.0898
 7775TIP3    H247521   4.615   0.130   1.266 -0.7144 -0.0599 -1.5201
 7776TIP3   OH247522   3.815   1.772   2.158 -0.1667 -0.4070 -0.5682
 7776TIP3    H147523   3.770   1.856   2.153 -0.6187 -0.5576  0.6230
 7776TIP3    H247524   3.748   1.711   2.189  0.8229 -0.6580  1.1761
 7777TIP3   OH247525   2.581   7.165   1.953 -0.4307  0.6594  0.1947
 7777TIP3    H147526   2.569   7.259   1.968 -1.2956  0.5315  0.3836
 7777TIP3    H247527   2.492   7.131   1.946 -0.1562 -0.3299  1.2365
 7778TIP3   OH247528   3.112   6.657   1.562  0.8067 -0.3942  0.3675
 7778TIP3    H147529   3.193   6.636   1.517  1.4932 -1.1342  1.8858
 7778TIP3    H247530   3.064   6.574   1.566 -0.5955  0.2509 -1.5202
 7779TIP3   OH247531   1.910   3.025   2.505  0.6244  0.5229 -0.3954
 7779TIP3    H147532   1.968   2.959   2.541  0.3477  1.3378  1.6508
 7779TIP3    H247533   1.901   3.091   2.574 -1.0977  1.4476 -1.4069
 7780TIP3   OH247534   5.960   3.061   0.454 -0.4213  0.8605 -0.4245
 7780TIP3    H147535   5.877   3.107   0.449 -0.0972  1.4311 -0.6239
 7780TIP3    H247536   6.016   3.104   0.389  1.4197  3.3495  2.5171
 7781TIP3   OH247537   5.699   7.566   3.001  0.0407  0.3493  0.7050
 7781TIP3    H147538   5.705   7.476   3.032  0.1666  0.4389  0.9443
 7781TIP3    H247539   5.654   7.559   2.916  1.8189 -0.1566 -0.2560
 7782TIP3   OH247540   7.552   2.991   2.343  0.0429  0.4525  0.0005
 7782TIP3    H147541   7.603   3.050   2.287 -0.4043  1.6146  0.7753
 7782TIP3    H247542   7.545   2.910   2.292  1.5276  0.7052 -0.6818
 7783TIP3   OH247543   5.355   6.426   2.634 -0.0328 -0.0033 -0.0713
 7783TIP3    H147544   5.427   6.375   2.671 -0.9579 -1.9987 -0.8172
 7783TIP3    H247545   5.368   6.514   2.667  1.4283 -0.8091  1.6993
 7784TIP3   OH247546   6.117   3.082   2.057  0.1951 -0.3840  0.5234
 7784TIP3    H147547   6.053   3.046   1.996  0.6729  2.1504 -1.6863
 7784TIP3    H247548   6.066   3.102   2.136 -1.1455 -0.8997 -0.1711
 7785TIP3   OH247549   1.872   3.805   0.572  0.1124  0.0303  0.1935
 7785TIP3    H147550   1.778   3.815   0.582 -0.3829 -2.2229 -1.3601
 7785TIP3    H247551   1.885   3.710   0.562  2.2984  0.4155 -1.3718
 7786TIP3   OH247552   7.206   2.725   2.286 -0.2956  0.1370 -0.1015
 7786TIP3    H147553   7.129   2.716   2.230  0.5985 -1.5014 -1.1373
 7786TIP3    H247554   7.272   2.669   2.245  1.7910  2.2463  0.1848
 7787TIP3   OH247555   3.791   3.258   1.758 -0.8017 -0.0180  0.4322
 7787TIP3    H147556   3.879   3.272   1.793 -0.9316 -0.1363  0.8146
 7787TIP3    H247557   3.746   3.341   1.776 -0.0313  1.0567 -2.1015
 7788TIP3   OH247558   5.348   4.870   1.358 -0.0010  0.1001  0.2996
 7788TIP3    H147559   5.424   4.880   1.301 -0.8756  0.3777 -0.8379
 7788TIP3    H247560   5.330   4.776   1.357 -1.1218  0.2979 -1.3868
 7789TIP3   OH247561   6.540   5.343   1.633 -0.4036 -0.0353 -0.0693
 7789TIP3    H147562   6.597   5.327   1.558  0.2020 -1.1041  0.5871
 7789TIP3    H247563   6.475   5.273   1.629 -0.4747  0.0069  0.2924
 7790TIP3   OH247564   1.239   5.614   1.821  0.2975 -0.1501 -0.0210
 7790TIP3    H147565   1.256   5.569   1.739 -0.1532  1.2248 -0.9141
 7790TIP3    H247566   1.145   5.604   1.835 -0.1522  1.8738 -1.1462
 7791TIP3   OH247567   0.840   5.908   2.177  0.5459  0.1752 -0.4324
 7791TIP3    H147568   0.780   5.863   2.118 -0.7408  1.6956 -0.3465
 7791TIP3    H247569   0.866   5.841   2.240 -1.0119 -0.5497 -0.5112
 7792TIP3   OH247570   6.576   4.630   0.600 -0.2016  0.0211 -0.1497
 7792TIP3    H147571   6.662   4.664   0.576 -0.2302 -0.2837 -0.7058
 7792TIP3    H247572   6.586   4.601   0.690  0.0415  0.7685  0.0713
 7793TIP3   OH247573   3.221   4.366   2.528 -0.3493  0.6881 -0.3117
 7793TIP3    H147574   3.187   4.316   2.453  0.0760 -1.5594  0.9057
 7793TIP3    H247575   3.170   4.336   2.602  1.1137  0.7634  0.7683
 7794TIP3   OH247576   0.263   5.233   1.588 -0.8774  0.3933 -0.1276
 7794TIP3    H147577   0.234   5.251   1.499  1.6232 -1.2694 -1.3805
 7794TIP3    H247578   0.317   5.309   1.611  0.1020 -0.0649 -0.8464
 7795TIP3   OH247579   0.698   6.656   3.314 -0.4571  0.3136  0.5167
 7795TIP3    H147580   0.787   6.620   3.316 -0.5260  0.1356  0.4155
 7795TIP3    H247581   0.645   6.584   3.280 -0.9782 -0.2928  2.4734
 7796TIP3   OH247582   5.660   5.330   2.994 -0.3772  0.2564  0.1877
 7796TIP3    H147583   5.602   5.317   2.919  0.6002 -0.4025 -0.4879
 7796TIP3    H247584   5.748   5.329   2.957  0.0848  1.0814  1.2026
 7797TIP3   OH247585   6.954   2.784   1.338  0.3405  0.0521  0.3716
 7797TIP3    H147586   6.871   2.744   1.362  0.6621 -0.8305  0.0397
 7797TIP3    H247587   6.932   2.844   1.267 -0.2043  0.7744  1.1319
 7798TIP3   OH247588   3.676   4.342   2.858  0.0070  0.2926  0.4594
 7798TIP3    H147589   3.701   4.300   2.940 -0.7637 -0.7418  0.1806
 7798TIP3    H247590   3.756   4.386   2.827  0.2657  0.8115  1.8140
 7799TIP3   OH247591   7.071   7.613   1.281 -0.0520  0.0500  0.0088
 7799TIP3    H147592   7.070   7.581   1.371  0.1360 -0.4377 -0.1568
 7799TIP3    H247593   7.039   7.703   1.287 -0.3082 -0.0692  0.5255
 7800TIP3   OH247594   0.072   2.374   1.475 -0.3018  0.0738 -0.2830
 7800TIP3    H147595  -0.019   2.372   1.505 -0.2905 -0.8988 -0.2906
 7800TIP3    H247596   0.100   2.465   1.490 -0.8029  0.0240  1.0802
 7801TIP3   OH247597   0.410   4.213   1.324  0.1921 -0.5093 -0.7855
 7801TIP3    H147598   0.393   4.168   1.406 -0.1329 -0.4906 -0.8429
 7801TIP3    H247599   0.389   4.149   1.256  0.7862 -0.6406 -0.8538
 7802TIP3   OH247600   1.152   2.792   1.944  0.0660  0.0302  0.3131
 7802TIP3    H147601   1.205   2.774   1.866  0.6321  2.6607 -0.0191
 7802TIP3    H247602   1.075   2.736   1.934 -0.7542  1.4877 -3.1320
 7803TIP3   OH247603   3.273   1.704   2.613  0.1309 -0.1750 -0.2944
 7803TIP3    H147604   3.283   1.638   2.682  0.6397  0.0469 -0.1530
 7803TIP3    H247605   3.179   1.724   2.613 -0.2260 -1.6670 -1.0650
 7804TIP3   OH247606   5.871   4.841   2.073  0.3831  0.1593  0.2222
 7804TIP3    H147607   5.886   4.860   2.166  0.6324  2.4281 -0.2353
 7804TIP3    H247608   5.797   4.780   2.073  0.8959 -0.5293  1.9253
 7805TIP3   OH247609   4.200   3.566   1.897  0.3697 -0.4959 -0.2475
 7805TIP3    H147610   4.160   3.516   1.826 -0.4430 -0.8705  0.4580
 7805TIP3    H247611   4.159   3.532   1.977  2.2833 -1.0774  0.5402
 7806TIP3   OH247612   6.269   3.172   3.328 -0.4043  0.1104 -0.3326
 7806TIP3    H147613   6.351   3.123   3.333 -0.7001 -0.7830 -2.8309
 7806TIP3    H247614   6.201   3.108   3.350 -0.4845  1.0276  2.4639
 7807TIP3   OH247615   2.990   3.478   2.958 -0.0902 -0.0933  0.2859
 7807TIP3    H147616   2.973   3.572   2.962 -0.0387 -0.0794  0.1655
 7807TIP3    H247617   3.082   3.468   2.983 -0.3782 -0.2049  1.3345
 7808TIP3   OH247618   5.010   0.711   1.109  0.8415  0.3108 -0.0665
 7808TIP3    H147619   4.935   0.717   1.051  0.8661  1.9802  0.0073
 7808TIP3    H247620   5.069   0.648   1.067 -0.5419 -0.9633 -0.1539
 7809TIP3   OH247621   4.501   2.883   1.588  0.1583 -0.1237 -0.1266
 7809TIP3    H147622   4.489   2.915   1.677 -0.5155 -2.7269  0.7972
 7809TIP3    H247623   4.591   2.908   1.566  0.8123 -0.5914  1.8242
 7810TIP3   OH247624   5.014   1.909   3.210 -0.5082  0.7317 -0.8088
 7810TIP3    H147625   5.035   1.856   3.133 -3.0294  0.3601 -1.3104
 7810TIP3    H247626   5.083   1.887   3.273  0.0611 -1.0567 -1.9742
 7811TIP3   OH247627   7.315   5.520   2.177  0.3853  0.0150 -0.6665
 7811TIP3    H147628   7.279   5.436   2.150 -1.5452  0.6376 -0.1404
 7811TIP3    H247629   7.241   5.580   2.174  1.0163  1.0336  1.8979
 7812TIP3   OH247630   1.705   4.034   0.514  0.1733 -0.2545 -0.1340
 7812TIP3    H147631   1.705   4.123   0.549 -0.2862 -0.1530 -0.3820
 7812TIP3    H247632   1.798   4.011   0.505  0.3665 -0.7189  2.2304
 7813TIP3   OH247633   6.230   7.089   1.555  0.1193 -0.1212  0.4053
 7813TIP3    H147634   6.220   7.049   1.641 -0.1549  1.3938  1.1093
 7813TIP3    H247635   6.222   7.183   1.571  2.2885  0.3741 -0.9310
 7814TIP3   OH247636   6.815   2.527   1.179  0.1239  0.0448 -0.0016
 7814TIP3    H147637   6.811   2.607   1.232 -0.6092 -0.1409  0.2364
 7814TIP3    H247638   6.748   2.471   1.216  1.1945 -1.0241  0.3758
 7815TIP3   OH247639   5.142   5.076   1.703 -0.0184 -0.1920  0.9580
 7815TIP3    H147640   5.158   5.082   1.609 -1.2049  2.5689  0.8176
 7815TIP3    H247641   5.182   4.994   1.730  2.3710  0.0249 -1.5412
 7816TIP3   OH247642   1.807   0.110   2.183  0.5465 -0.1497 -0.0240
 7816TIP3    H147643   1.899   0.135   2.179  0.4120  0.2368 -2.3246
 7816TIP3    H247644   1.804   0.033   2.240  2.2540 -0.0798  0.1931
 7817TIP3   OH247645   5.183   2.980   1.333  0.3555  0.3681 -0.1352
 7817TIP3    H147646   5.243   2.908   1.313  1.1268  0.3799  1.8486
 7817TIP3    H247647   5.242   3.054   1.351 -0.1233  0.1801  2.6421
 7818TIP3   OH247648   6.763   3.517   1.926 -0.0839  0.0004  0.0709
 7818TIP3    H147649   6.729   3.597   1.887  0.7046  0.2875 -0.0418
 7818TIP3    H247650   6.685   3.466   1.948 -0.5551  0.2237 -1.0475
 7819TIP3   OH247651   7.523   5.772   0.737  0.6637 -0.0897  0.5236
 7819TIP3    H147652   7.530   5.787   0.832  1.3758  0.5512  0.3786
 7819TIP3    H247653   7.508   5.678   0.729  1.5410 -0.3096  1.2395
 7820TIP3   OH247654   4.627   5.076   1.916  0.8185 -0.0012  0.4240
 7820TIP3    H147655   4.615   5.111   2.005 -1.9568 -0.0917  0.1785
 7820TIP3    H247656   4.610   5.150   1.859  0.1555 -0.4958 -0.0357
 7821TIP3   OH247657   5.876   4.529   0.754  0.2574  0.1227 -0.2672
 7821TIP3    H147658   5.797   4.489   0.717  1.3670 -2.3863 -0.1224
 7821TIP3    H247659   5.910   4.584   0.683 -0.5293 -0.3623 -1.0424
 7822TIP3   OH247660   1.437   7.441   1.219 -0.2541 -0.2230 -0.8811
 7822TIP3    H147661   1.517   7.432   1.167  0.0732 -0.4709 -0.3384
 7822TIP3    H247662   1.425   7.355   1.258 -0.4087  0.0134 -0.4095
 7823TIP3   OH247663   2.410   0.352   2.371 -0.0734 -0.3015 -0.0453
 7823TIP3    H147664   2.322   0.354   2.408  0.4484 -0.7153  1.3120
 7823TIP3    H247665   2.440   0.262   2.386  0.8242  0.0181  0.1783
 7824TIP3   OH247666   2.336   6.592   0.986  0.5157  0.4893  0.2034
 7824TIP3    H147667   2.289   6.664   1.028 -0.0246  1.4505 -1.9349
 7824TIP3    H247668   2.286   6.514   1.011  0.3268  0.9716  1.4405
 7825TIP3   OH247669   5.035   7.046   2.105 -0.1447 -0.2917 -0.1918
 7825TIP3    H147670   5.112   7.035   2.049 -0.4695 -1.6185 -0.4045
 7825TIP3    H247671   4.963   7.011   2.052 -0.7112 -0.0893  0.4452
 7826TIP3   OH247672   0.266   4.889   1.213 -0.0855 -0.0457  0.6910
 7826TIP3    H147673   0.179   4.928   1.213 -0.2980 -0.4913 -0.2925
 7826TIP3    H247674   0.326   4.963   1.218 -0.5104  0.3276  0.3187
 7827TIP3   OH247675   0.309   6.193   0.610  0.6494  0.0882 -0.9342
 7827TIP3    H147676   0.250   6.194   0.534  1.1550  2.0824 -1.3642
 7827TIP3    H247677   0.252   6.176   0.685 -0.5070  1.7528 -1.3632
 7828TIP3   OH247678   6.086   4.867   0.698 -0.1063  0.4532 -0.0396
 7828TIP3    H147679   6.161   4.811   0.677  0.1175  0.1250  1.5409
 7828TIP3    H247680   6.062   4.843   0.787 -1.4004  1.3460 -0.1222
 7829TIP3   OH247681   4.016   1.544   2.140  0.4645  0.3622  0.0406
 7829TIP3    H147682   4.085   1.539   2.075  0.4640  0.5404  0.0256
 7829TIP3    H247683   3.962   1.618   2.113  0.6651  0.6572  0.4411
 7830TIP3   OH247684   0.548   3.270   0.863 -0.4012  0.0777 -0.2104
 7830TIP3    H147685   0.519   3.257   0.773  1.2178 -1.7077 -0.5487
 7830TIP3    H247686   0.588   3.186   0.887 -0.2549  0.7200  1.9675
 7831TIP3   OH247687   0.529   6.082   2.972 -0.2999  0.8484 -0.2619
 7831TIP3    H147688   0.490   6.045   3.051 -0.8541  0.9124 -0.5064
 7831TIP3    H247689   0.580   6.157   3.004  0.3805  0.2186  0.1625
 7832TIP3   OH247690   6.746   2.910   0.781 -0.6614 -0.4947 -0.8615
 7832TIP3    H147691   6.657   2.904   0.814 -0.1601 -0.2493  0.6449
 7832TIP3    H247692   6.794   2.843   0.829  0.3734  0.7341 -0.0947
 7833TIP3   OH247693   0.710   4.282   2.084 -0.2020 -0.2311 -0.0334
 7833TIP3    H147694   0.728   4.248   1.996 -0.8316 -1.1177  0.1642
 7833TIP3    H247695   0.622   4.319   2.078 -1.1415 -2.1920  0.7149
 7834TIP3   OH247696   3.162   0.685   2.395 -0.8368  0.5674 -0.1109
 7834TIP3    H147697   3.244   0.674   2.346 -0.2205  1.8543  0.5932
 7834TIP3    H247698   3.104   0.617   2.360  0.5146 -0.3463 -0.6515
 7835TIP3   OH247699   6.207   5.455   0.668 -0.7817 -0.0077 -0.1275
 7835TIP3    H147700   6.203   5.403   0.748 -0.6276 -1.9217 -1.2971
 7835TIP3    H247701   6.167   5.400   0.601  0.3101  0.9715 -1.6582
 7836TIP3   OH247702   3.536   7.477   1.729 -0.1265  0.2463  0.1835
 7836TIP3    H147703   3.566   7.428   1.652  1.3294  1.2404  0.0836
 7836TIP3    H247704   3.550   7.569   1.705 -0.2943  0.5963  1.3806
 7837TIP3   OH247705   7.263   0.177   0.816  0.2133 -0.7906  0.0921
 7837TIP3    H147706   7.175   0.214   0.807  0.1558 -0.8943  0.2243
 7837TIP3    H247707   7.317   0.226   0.754  0.0094 -0.8961 -0.1646
 7838TIP3   OH247708   3.768   1.234   1.072 -0.1324  0.0626 -0.1315
 7838TIP3    H147709   3.802   1.170   1.010  0.9362 -0.8428  1.3314
 7838TIP3    H247710   3.733   1.304   1.017 -0.5788 -1.3698 -1.7597
 7839TIP3   OH247711   0.623   4.025   2.732 -0.0703  0.5828  0.3823
 7839TIP3    H147712   0.589   3.982   2.810 -0.8112  1.2971  0.4627
 7839TIP3    H247713   0.715   3.996   2.726 -0.1767  0.0754  1.1831
 7840TIP3   OH247714   6.627   4.604   2.333 -0.1931  0.1042  0.2186
 7840TIP3    H147715   6.541   4.644   2.339 -0.3972 -0.5123  1.9530
 7840TIP3    H247716   6.655   4.592   2.424  0.6429 -1.9875 -0.2492
 7841TIP3   OH247717   0.717   5.755   2.418  0.1355  0.2627 -0.1978
 7841TIP3    H147718   0.796   5.746   2.365 -0.8302 -1.2327 -1.4738
 7841TIP3    H247719   0.733   5.700   2.495  0.9648  1.2663  0.3573
 7842TIP3   OH247720   6.618   6.469   2.550 -0.2869 -0.4153  0.0982
 7842TIP3    H147721   6.692   6.476   2.489 -0.3932 -0.4636 -0.0374
 7842TIP3    H247722   6.561   6.403   2.510  0.2769 -1.4184  0.9075
 7843TIP3   OH247723   5.630   4.491   2.804  0.2890 -0.1360 -0.0696
 7843TIP3    H147724   5.687   4.418   2.780  0.3270 -0.8202  1.8684
 7843TIP3    H247725   5.640   4.498   2.899  0.1478  2.3188 -0.1792
 7844TIP3   OH247726   5.068   2.079   1.810  0.8588 -0.0447 -0.3101
 7844TIP3    H147727   5.029   2.104   1.894 -0.1209  0.1904 -0.8214
 7844TIP3    H247728   5.094   1.988   1.822  1.2104  0.1432  0.4147
 7845TIP3   OH247729   6.726   6.618   2.045 -0.5140  0.2368  0.1559
 7845TIP3    H147730   6.751   6.667   1.966  0.2185 -0.4135 -0.0319
 7845TIP3    H247731   6.664   6.675   2.090 -0.7659  0.7208 -0.7761
 7846TIP3   OH247732   6.113   3.255   2.300  0.0269  0.3405 -0.3596
 7846TIP3    H147733   6.024   3.251   2.267 -0.2807 -0.8752  0.5415
 7846TIP3    H247734   6.116   3.334   2.354 -0.0395  1.2211 -1.6030
 7847TIP3   OH247735   2.185   5.293   2.185  0.4397  0.0342  0.4902
 7847TIP3    H147736   2.144   5.377   2.165 -0.2187 -0.4336 -0.1762
 7847TIP3    H247737   2.260   5.289   2.124  0.5408  0.1854  0.6026
 7848TIP3   OH247738   7.518   0.074   2.351  0.1262 -0.2626 -0.1777
 7848TIP3    H147739   7.480   0.063   2.264  1.3753  1.0675 -0.9330
 7848TIP3    H247740   7.454   0.126   2.399  0.5546  1.2554 -1.1764
 7849TIP3   OH247741   6.183   6.966   0.454  0.7352 -0.7845  0.1147
 7849TIP3    H147742   6.156   6.882   0.417  0.7082 -0.1715 -1.3248
 7849TIP3    H247743   6.278   6.956   0.469  1.5705  0.1057 -3.6465
 7850TIP3   OH247744   0.421   1.499   1.127  0.8352  0.0295  0.2718
 7850TIP3    H147745   0.484   1.548   1.074 -0.8236  2.0983  0.0586
 7850TIP3    H247746   0.404   1.419   1.078  0.2776  1.3309 -1.7666
 7851TIP3   OH247747   7.504   4.937   1.785 -0.0243 -0.7034 -0.5590
 7851TIP3    H147748   7.419   4.977   1.765 -0.8006 -1.8127  0.4152
 7851TIP3    H247749   7.498   4.848   1.750 -0.1256 -1.5313  1.4536
 7852TIP3   OH247750   5.176   5.966   1.362  0.2931 -0.0298  0.4850
 7852TIP3    H147751   5.145   5.888   1.316  0.4328  0.7198 -0.9561
 7852TIP3    H247752   5.179   5.941   1.454 -1.5245 -1.1096  0.2947
 7853TIP3   OH247753   5.407   3.330   0.967  0.3126  0.1952 -0.0924
 7853TIP3    H147754   5.487   3.332   1.020  0.8245  0.8496 -0.8555
 7853TIP3    H247755   5.422   3.259   0.905  0.3196  0.3481 -0.2655
 7854TIP3   OH247756   3.294   5.822   1.821 -0.4843  0.3336  0.2581
 7854TIP3    H147757   3.346   5.748   1.790 -0.9699  0.0229  0.1784
 7854TIP3    H247758   3.253   5.790   1.901 -0.1251  0.7603  0.6211
 7855TIP3   OH247759   1.356   0.334   1.550 -0.2138 -0.1048 -0.1398
 7855TIP3    H147760   1.331   0.324   1.642 -2.0737  0.2031 -0.5755
 7855TIP3    H247761   1.339   0.248   1.512 -0.5777  0.0988 -0.4395
 7856TIP3   OH247762   5.842   7.312   3.390  0.3430 -0.7240  0.3765
 7856TIP3    H147763   5.870   7.220   3.391  0.9828 -0.5361  0.6013
 7856TIP3    H247764   5.747   7.309   3.382  0.4515 -1.3886 -0.8432
 7857TIP3   OH247765   5.395   4.777   0.782  0.0868  0.1999  0.2840
 7857TIP3    H147766   5.460   4.844   0.804 -0.4480  1.2101 -1.0453
 7857TIP3    H247767   5.313   4.811   0.817 -0.1867  0.2425 -0.3801
 7858TIP3   OH247768   3.829   0.232   1.961  0.3894  0.1581 -0.4206
 7858TIP3    H147769   3.913   0.202   1.995  0.2618 -1.5180 -1.4526
 7858TIP3    H247770   3.849   0.262   1.872  0.2854  2.1087  0.1552
 7859TIP3   OH247771   6.476   5.628   0.911  0.1175 -0.3058  0.1654
 7859TIP3    H147772   6.403   5.656   0.967  0.3610  0.7677 -0.0151
 7859TIP3    H247773   6.434   5.598   0.830 -0.1273  0.9513 -0.2057
 7860TIP3   OH247774   0.400   5.620   2.089 -0.1832  0.4072 -0.0855
 7860TIP3    H147775   0.470   5.665   2.043  0.5456  0.6910  1.2773
 7860TIP3    H247776   0.326   5.681   2.086  0.7321  1.6603  1.5696
 7861TIP3   OH247777   6.726   6.259   1.828  0.2291 -0.3947 -0.5059
 7861TIP3    H147778   6.664   6.306   1.884  0.2603 -2.8451  1.8413
 7861TIP3    H247779   6.776   6.328   1.784 -2.0270  1.6649 -0.0521
 7862TIP3   OH247780   4.898   5.887   2.926 -0.3918  0.3005  0.0153
 7862TIP3    H147781   4.921   5.978   2.910  0.6576 -0.1045 -0.9793
 7862TIP3    H247782   4.870   5.884   3.017  0.1845  1.4931  0.2475
 7863TIP3   OH247783   7.581   7.674   0.688  0.3998  0.1962 -0.0946
 7863TIP3    H147784   7.671   7.665   0.720  0.2430  0.5970  0.4689
 7863TIP3    H247785   7.591   7.704   0.597  0.8409 -0.3357 -0.2234
 7864TIP3   OH247786   1.260   1.809   3.032  0.0803 -0.1074  0.4680
 7864TIP3    H147787   1.285   1.724   2.997  0.9029  0.2428  0.1935
 7864TIP3    H247788   1.179   1.832   2.985  0.3163 -0.3572 -0.0606
 7865TIP3   OH247789   3.819   6.653   1.493 -0.7272 -0.0856 -0.0001
 7865TIP3    H147790   3.740   6.701   1.516 -0.3881  0.4380  0.0909
 7865TIP3    H247791   3.792   6.561   1.493 -0.8215 -0.1094  2.2422
 7866TIP3   OH247792   7.293   4.029   1.568 -0.2268 -0.3570 -0.0341
 7866TIP3    H147793   7.375   4.018   1.617 -0.8857 -1.5904  0.8483
 7866TIP3    H247794   7.286   4.123   1.555  0.7435 -0.1249  0.9415
 7867TIP3   OH247795   0.364   4.639   2.784 -0.4496 -0.0274  0.1968
 7867TIP3    H147796   0.452   4.643   2.821  0.1587  1.2409 -1.2688
 7867TIP3    H247797   0.334   4.550   2.803  1.7253 -0.9782 -0.4704
 7868TIP3   OH247798   6.897   2.329   2.372 -0.2053 -0.0420 -0.4087
 7868TIP3    H147799   6.844   2.289   2.441 -0.0707  1.3931  0.5756
 7868TIP3    H247800   6.976   2.275   2.370 -0.5645 -0.6070 -0.0324
 7869TIP3   OH247801   5.288   0.706   0.979  0.2414 -0.0904  0.2365
 7869TIP3    H147802   5.216   0.698   0.918  0.2482  0.1812  0.1918
 7869TIP3    H247803   5.342   0.628   0.964 -1.3543 -1.6657  2.0090
 7870TIP3   OH247804   3.724   1.370   0.652 -0.3562  0.0914 -0.5328
 7870TIP3    H147805   3.802   1.413   0.618 -0.5396  0.6019 -0.3220
 7870TIP3    H247806   3.657   1.439   0.655  0.2019  0.6585  2.7649
 7871TIP3   OH247807   7.252   6.192   2.305  0.4507 -0.4016  0.3824
 7871TIP3    H147808   7.299   6.162   2.383 -0.3135  0.1436  1.0665
 7871TIP3    H247809   7.319   6.239   2.254  1.1008 -1.2889  0.3996
 7872TIP3   OH247810   3.457   3.798   1.953  0.2872  0.1530  0.4408
 7872TIP3    H147811   3.486   3.852   1.880  0.7219 -0.7385 -0.0649
 7872TIP3    H247812   3.423   3.718   1.912  2.3517 -1.2165  1.2500
 7873TIP3   OH247813   0.567   4.483   1.924 -0.5292 -0.3078 -0.0872
 7873TIP3    H147814   0.549   4.562   1.976 -1.9389 -1.5360  1.4199
 7873TIP3    H247815   0.655   4.496   1.890  0.2812  0.8302  2.2160
 7874TIP3   OH247816   6.478   4.253   1.190 -0.0105 -1.2029  0.0173
 7874TIP3    H147817   6.385   4.260   1.213 -0.0095 -2.5824  0.5523
 7874TIP3    H247818   6.524   4.286   1.267 -0.0117  1.8075 -1.1484
 7875TIP3   OH247819   6.450   4.066   1.809  0.5394  0.7045  0.0519
 7875TIP3    H147820   6.401   4.142   1.840  0.7884  0.3553  1.3992
 7875TIP3    H247821   6.403   3.991   1.846  0.2541  0.1901 -1.3181
 7876TIP3   OH247822   4.265   3.650   2.237 -0.2360 -0.3852  0.7176
 7876TIP3    H147823   4.333   3.595   2.276  0.7839 -0.1841 -0.6819
 7876TIP3    H247824   4.201   3.589   2.202 -0.0814 -0.6208  0.8464
 7877TIP3   OH247825   5.919   7.010   2.184  0.1280 -0.1605 -0.1902
 7877TIP3    H147826   5.896   7.051   2.268  1.4178  0.4826 -0.1213
 7877TIP3    H247827   5.984   6.943   2.207 -0.8932 -1.2742 -0.4754
 7878TIP3   OH247828   5.865   4.181   0.623  0.0386 -0.7445 -0.1618
 7878TIP3    H147829   5.787   4.130   0.643 -0.9617  0.9698  0.5763
 7878TIP3    H247830   5.840   4.272   0.644  1.6303  0.0942 -1.6490
 7879TIP3   OH247831   2.769   2.843   1.327 -0.2361  0.0947 -0.3719
 7879TIP3    H147832   2.856   2.875   1.302  1.1490 -1.4115  2.1443
 7879TIP3    H247833   2.754   2.768   1.270  0.1068  0.3576 -0.8171
 7880TIP3   OH247834   7.037   6.817   0.604 -0.7456  0.3813  0.1724
 7880TIP3    H147835   7.058   6.740   0.551  0.0414  0.6120  0.1433
 7880TIP3    H247836   7.111   6.876   0.591 -0.9777  0.8206  0.8148
 7881TIP3   OH247837   6.044   7.092   2.657 -0.5059  0.2601  0.1983
 7881TIP3    H147838   6.046   7.038   2.736  1.4260  0.4147  0.3035
 7881TIP3    H247839   6.136   7.116   2.642 -0.8636  0.5480 -1.8730
 7882TIP3   OH247840   0.769   6.863   1.148  0.0292  0.8355  0.2001
 7882TIP3    H147841   0.857   6.853   1.111 -0.3579  2.2545 -1.2020
 7882TIP3    H247842   0.710   6.854   1.073 -0.9635  1.0288  0.9402
 7883TIP3   OH247843   0.459   0.761   2.282 -0.3007 -0.4646  0.4124
 7883TIP3    H147844   0.519   0.797   2.217  0.8334 -0.5092  1.3984
 7883TIP3    H247845   0.509   0.691   2.325 -1.5641 -1.4727  0.2920
 7884TIP3   OH247846   6.934   5.365   1.467 -0.4427  0.6216  0.3715
 7884TIP3    H147847   6.972   5.447   1.439  0.7150 -0.1455 -0.3615
 7884TIP3    H247848   6.897   5.326   1.388  0.6839 -0.4205  0.3288
 7885TIP3   OH247849   1.105   1.870   1.020 -0.4516  0.4153  0.6230
 7885TIP3    H147850   1.092   1.805   0.951 -2.0303 -0.7210  1.9200
 7885TIP3    H247851   1.140   1.947   0.974 -0.3198 -0.6908 -1.2363
 7886TIP3   OH247852   7.625   4.378   2.934 -0.2908 -0.0621 -0.0109
 7886TIP3    H147853   7.671   4.423   3.006 -0.3332 -1.8859  1.2105
 7886TIP3    H247854   7.688   4.314   2.902 -0.4799  0.3640 -1.2691
 7887TIP3   OH247855   6.369   6.032   0.523  0.8361  0.2146 -0.0340
 7887TIP3    H147856   6.383   6.117   0.565 -1.6670  0.8945 -0.4518
 7887TIP3    H247857   6.279   6.034   0.492  2.0487 -0.8130 -4.1783
 7888TIP3   OH247858   6.312   3.496   0.586  0.2245 -0.0942 -0.5725
 7888TIP3    H147859   6.255   3.566   0.618  1.4247  1.7228 -2.1768
 7888TIP3    H247860   6.397   3.516   0.626  0.3350 -1.3451 -0.1433
 7889TIP3   OH247861   1.061   0.261   0.638 -0.0053  0.1080  0.1197
 7889TIP3    H147862   1.027   0.327   0.698 -1.4905 -1.3870  0.9998
 7889TIP3    H247863   1.082   0.187   0.694  0.1877 -0.7227 -1.0189
 7890TIP3   OH247864   3.714   3.543   2.087 -0.7732 -0.3929 -0.2669
 7890TIP3    H147865   3.788   3.485   2.104 -0.7208 -0.2977 -0.1679
 7890TIP3    H247866   3.651   3.525   2.157 -0.1660  0.6496  0.5826
 7891TIP3   OH247867   4.465   4.622   2.876 -0.2900 -0.4301  0.5370
 7891TIP3    H147868   4.427   4.682   2.813 -0.8931 -0.7320  0.6038
 7891TIP3    H247869   4.559   4.622   2.856 -0.2634  0.6060  0.6150
 7892TIP3   OH247870   4.989   1.549   2.905 -0.2707  0.7526  0.1116
 7892TIP3    H147871   5.004   1.479   2.968 -2.5527  0.9704  0.9844
 7892TIP3    H247872   4.896   1.542   2.883  0.0250  1.9254 -1.7494
 7893TIP3   OH247873   2.984   1.905   2.234  0.0404 -0.0612 -0.1360
 7893TIP3    H147874   2.995   1.810   2.235 -0.3668 -0.1168 -0.6988
 7893TIP3    H247875   3.031   1.935   2.312  1.3092 -0.5958 -0.6636
 7894TIP3   OH247876   6.615   4.437   2.603 -0.3333 -0.3039  0.0008
 7894TIP3    H147877   6.659   4.522   2.611 -1.3859  0.2262  0.5378
 7894TIP3    H247878   6.665   4.378   2.659  0.5629 -0.1082 -0.5792
 7895TIP3   OH247879   4.706   1.837   2.157  0.0873  0.8978  0.0755
 7895TIP3    H147880   4.704   1.741   2.154  0.9506  0.8903 -0.5362
 7895TIP3    H247881   4.774   1.857   2.222 -0.0375  1.1003  0.1454
 7896TIP3   OH247882   6.561   7.649   1.885 -0.3937  0.2071 -0.3254
 7896TIP3    H147883   6.628   7.665   1.952 -0.5734  0.1274 -0.1259
 7896TIP3    H247884   6.480   7.684   1.923 -0.2671  1.2658 -0.9994
 7897TIP3   OH247885   1.365   0.690   1.755  0.9143 -0.5251 -0.6440
 7897TIP3    H147886   1.292   0.742   1.786  0.7132 -0.6199 -0.9535
 7897TIP3    H247887   1.363   0.699   1.660  0.2278 -1.9293 -0.7971
 7898TIP3   OH247888   3.045   4.394   0.792  0.3616  0.2283  0.6338
 7898TIP3    H147889   2.973   4.413   0.851 -0.3519  1.1717 -0.4909
 7898TIP3    H247890   3.026   4.306   0.758 -0.5151  0.6498  0.0110
 7899TIP3   OH247891   2.567   5.992   1.537 -0.0148  0.3844  0.7247
 7899TIP3    H147892   2.637   6.047   1.502  1.7568 -2.3114 -0.2198
 7899TIP3    H247893   2.596   5.968   1.624 -0.3763  0.2579  0.8150
 7900TIP3   OH247894   4.487   3.272   1.518 -0.1382  0.2177 -0.4829
 7900TIP3    H147895   4.427   3.338   1.483  0.8202  1.3981  0.0494
 7900TIP3    H247896   4.497   3.209   1.446 -1.4488  0.3762 -0.8267
 7901TIP3   OH247897   3.737   6.752   1.224  0.1660 -0.0061 -0.2319
 7901TIP3    H147898   3.764   6.704   1.302 -1.3570 -1.1636 -0.3753
 7901TIP3    H247899   3.705   6.685   1.164 -0.7813  1.0569 -0.9599
 7902TIP3   OH247900   7.047   3.514   1.968  0.3866  0.0515  0.5778
 7902TIP3    H147901   7.068   3.421   1.981  0.5089 -0.1369 -0.7512
 7902TIP3    H247902   6.953   3.515   1.951  0.6479 -0.0849 -1.1243
 7903TIP3   OH247903   6.834   5.684   3.259  0.7013  0.3321  0.1356
 7903TIP3    H147904   6.759   5.703   3.316  0.5507 -0.8618  0.3715
 7903TIP3    H247905   6.889   5.625   3.311  1.3547  0.4869 -0.3723
 7904TIP3   OH247906   7.264   7.261   0.795  0.2303  0.3194 -0.3081
 7904TIP3    H147907   7.289   7.317   0.721 -0.0756  1.4914  0.4463
 7904TIP3    H247908   7.241   7.323   0.865  0.7622 -0.7576  0.8592
 7905TIP3   OH247909   0.645   2.160   0.721 -0.3297 -0.1423  0.4402
 7905TIP3    H147910   0.738   2.171   0.736 -0.1508 -1.0850  0.0936
 7905TIP3    H247911   0.614   2.247   0.695  0.7501 -0.1378 -0.9488
 7906TIP3   OH247912   2.288   1.973   0.567  0.3896  0.4298  0.0410
 7906TIP3    H147913   2.231   2.048   0.587  0.2297  0.7516 -1.5016
 7906TIP3    H247914   2.278   1.915   0.642 -0.6088  1.2884  0.6034
 7907TIP3   OH247915   4.011   4.394   8.164  0.4457 -0.0437 -0.2835
 7907TIP3    H147916   3.961   4.471   8.190 -1.3148 -0.0706 -3.1565
 7907TIP3    H247917   4.090   4.429   8.122  0.6164  0.1171  0.1652
 7908TIP3   OH247918   6.533   0.517   2.235 -0.0387  0.2113 -0.3683
 7908TIP3    H147919   6.600   0.454   2.260 -1.3226 -0.8580  0.5053
 7908TIP3    H247920   6.561   0.549   2.149  0.2616 -2.1347 -1.2015
 7909TIP3   OH247921   3.869   6.349   0.861  0.3511 -0.2372 -0.0891
 7909TIP3    H147922   3.824   6.377   0.941 -0.2566  0.2443 -0.5935
 7909TIP3    H247923   3.933   6.418   0.845  0.1248 -0.0740 -0.2975
 7910TIP3   OH247924   2.356   0.634   0.953 -0.5584 -0.1008 -0.3168
 7910TIP3    H147925   2.452   0.638   0.946 -0.6567  0.2591 -1.7369
 7910TIP3    H247926   2.337   0.541   0.968 -0.1286 -0.7676 -3.3083
 7911TIP3   OH247927   4.922   4.922   1.264 -0.3387  0.3404 -0.1467
 7911TIP3    H147928   4.955   4.878   1.343 -1.8988  0.2311  0.4834
 7911TIP3    H247929   4.830   4.895   1.259 -0.8386  2.0661 -0.7976
 7912TIP3   OH247930   6.561   2.518   3.317 -0.6064 -0.0116 -0.1203
 7912TIP3    H147931   6.548   2.607   3.284  0.6799  0.1007 -0.3815
 7912TIP3    H247932   6.473   2.481   3.322 -1.1205  1.1361 -0.3995
 7913TIP3   OH247933   4.247   5.880   3.244  0.8076  0.0311 -0.1003
 7913TIP3    H147934   4.216   5.970   3.235 -1.8076 -0.8181 -0.4002
 7913TIP3    H247935   4.265   5.870   3.338  0.1046  0.5804  0.1040
 7914TIP3   OH247936   2.239   7.510   2.356 -0.4754 -0.1039  0.4200
 7914TIP3    H147937   2.258   7.584   2.297 -1.3423 -0.4792 -0.3590
 7914TIP3    H247938   2.216   7.438   2.297  2.3745 -1.6793  1.0371
 7915TIP3   OH247939   4.087   7.652   1.072 -0.0049  0.3355  0.0742
 7915TIP3    H147940   4.169   7.688   1.038  0.1463  0.1337  0.2285
 7915TIP3    H247941   4.091   7.559   1.050  0.2388  0.1399  0.9387
 7916TIP3   OH247942   1.519   5.020   3.113 -0.0821  0.0547  0.0522
 7916TIP3    H147943   1.554   5.048   3.197 -0.9519  0.3849  0.3162
 7916TIP3    H247944   1.593   4.977   3.069  0.1347 -0.9642  1.3567
 7917TIP3   OH247945   6.176   5.005   0.956 -0.4010  0.5276  0.6175
 7917TIP3    H147946   6.202   5.077   0.898  2.8037 -1.1009 -0.1730
 7917TIP3    H247947   6.090   4.978   0.922 -0.1530  1.7949 -1.2248
 7918TIP3   OH247948   0.755   1.952   2.377 -0.7013  0.2458 -0.4088
 7918TIP3    H147949   0.801   2.035   2.386  0.0729 -0.1010 -1.0856
 7918TIP3    H247950   0.690   1.953   2.447 -0.5529  1.3188 -0.2673
 7919TIP3   OH247951   2.271   1.967   0.985 -0.5538 -0.2589  0.3891
 7919TIP3    H147952   2.355   1.969   1.031 -0.4394 -0.1410  0.1804
 7919TIP3    H247953   2.206   1.979   1.054 -0.3224  1.4050  0.3807
 7920TIP3   OH247954   7.635   4.482   0.659 -0.2045 -0.3820 -0.2074
 7920TIP3    H147955   7.565   4.542   0.631 -1.0468 -1.3682 -0.3084
 7920TIP3    H247956   7.597   4.395   0.647  1.0245 -0.9441 -0.1662
 7921TIP3   OH247957   2.160   4.247   2.695  0.0383 -0.3216  0.5179
 7921TIP3    H147958   2.243   4.261   2.650 -0.7034  0.1952 -0.7780
 7921TIP3    H247959   2.118   4.176   2.647 -0.4605 -0.2745  0.8738
 7922TIP3   OH247960   6.675   4.730   2.923  0.8721 -0.5845  0.6774
 7922TIP3    H147961   6.738   4.659   2.909 -0.0175 -1.4311  0.8082
 7922TIP3    H247962   6.727   4.804   2.954  1.7966 -1.2527  0.7454
 7923TIP3   OH247963   6.848   0.691   1.322 -0.2170  0.3553  0.1900
 7923TIP3    H147964   6.767   0.652   1.353 -0.8281  0.0760 -1.6131
 7923TIP3    H247965   6.831   0.785   1.319  0.1080  0.4661  1.3491
 7924TIP3   OH247966   1.495   6.201   1.711 -0.3413  0.4448 -0.0867
 7924TIP3    H147967   1.512   6.192   1.805  0.7903 -0.1981 -0.3191
 7924TIP3    H247968   1.411   6.157   1.697 -0.4065  0.3479  0.5887
 7925TIP3   OH247969   3.274   4.375   0.645  0.0707  0.0483  0.3647
 7925TIP3    H147970   3.186   4.402   0.669 -1.0924 -1.4149 -1.9360
 7925TIP3    H247971   3.277   4.383   0.549  2.9120  1.2898  0.4252
 7926TIP3   OH247972   4.626   2.448   1.517  0.4177  0.2365  0.7379
 7926TIP3    H147973   4.629   2.543   1.505 -1.1323  0.1532 -0.7012
 7926TIP3    H247974   4.535   2.430   1.539  0.6045 -0.9738  0.5824
 7927TIP3   OH247975   1.308   7.059   1.834  0.0307  0.3058  0.6519
 7927TIP3    H147976   1.331   7.103   1.916  0.2798 -0.5388  1.0515
 7927TIP3    H247977   1.314   6.966   1.855  1.8474  0.0341 -0.7969
 7928TIP3   OH247978   4.371   6.861   1.983 -1.0774  0.6684 -0.5798
 7928TIP3    H147979   4.455   6.898   1.959 -1.1996  2.3411  1.3256
 7928TIP3    H247980   4.377   6.847   2.077 -2.2045 -1.2163 -0.7403
 7929TIP3   OH247981   5.161   6.340   3.013  0.0468 -0.7298  0.0517
 7929TIP3    H147982   5.103   6.334   3.089  0.1798  0.3326  0.2527
 7929TIP3    H247983   5.143   6.427   2.976  1.0437 -0.6394 -0.2545
 7930TIP3   OH247984   0.996   0.437   0.836 -0.2449  0.3499  0.1257
 7930TIP3    H147985   1.003   0.531   0.856  2.6035  0.0409  0.9764
 7930TIP3    H247986   0.923   0.407   0.891  0.6310  1.5614  2.0663
 7931TIP3   OH247987   3.132   0.437   0.964  0.2495  0.2191  0.1173
 7931TIP3    H147988   3.168   0.379   1.031 -1.2191  1.2943  1.9184
 7931TIP3    H247989   3.160   0.525   0.991  1.0463  0.5517 -1.6472
 7932TIP3   OH247990   2.325   7.670   1.379  0.0835 -0.4899 -0.0852
 7932TIP3    H147991   2.411   7.661   1.420  0.2699 -1.9562 -0.7508
 7932TIP3    H247992   2.263   7.670   1.451  0.4769 -2.0567  0.2799
 7933TIP3   OH247993   5.375   7.042   2.429 -0.5290  0.3007  0.3982
 7933TIP3    H147994   5.293   6.993   2.421 -1.1399  0.7511  3.0574
 7933TIP3    H247995   5.384   7.088   2.346 -0.4175 -3.4328 -1.9252
 7934TIP3   OH247996   3.156   4.957   2.645 -0.3209 -0.5342 -0.6164
 7934TIP3    H147997   3.185   4.978   2.556  0.1588 -1.4806 -0.6892
 7934TIP3    H247998   3.194   4.871   2.663  1.3272  0.5138  1.2737
 7935TIP3   OH247999   5.150   5.855   1.079  0.2721 -0.4281 -0.3564
 7935TIP3    H148000   5.131   5.949   1.074 -0.1724 -0.4976 -0.0440
 7935TIP3    H248001   5.242   5.848   1.054 -0.0981 -0.0742 -1.9434
 7936TIP3   OH248002   0.192   2.805   2.906  0.1729  0.3685  0.2134
 7936TIP3    H148003   0.271   2.842   2.946  1.1321 -1.2537 -0.1122
 7936TIP3    H248004   0.122   2.829   2.967  0.8558  2.0218  0.4030
 7937TIP3   OH248005   4.090   6.593   2.294 -0.1202  0.0781  0.6693
 7937TIP3    H148006   4.061   6.516   2.245  0.0157  1.6698 -2.1601
 7937TIP3    H248007   4.104   6.562   2.383 -3.1014 -2.4206  0.4020
 7938TIP3   OH248008   6.279   4.839   2.091  0.3247 -0.2475  0.3826
 7938TIP3    H148009   6.290   4.863   1.999  1.6795  1.3577  0.9182
 7938TIP3    H248010   6.224   4.909   2.128 -1.9443 -1.9391  0.4013
 7939TIP3   OH248011   0.255   2.614   0.906  0.0390 -0.2847 -0.0492
 7939TIP3    H148012   0.160   2.603   0.894  0.2209 -0.2055 -1.8087
 7939TIP3    H248013   0.262   2.690   0.964 -0.9785  0.7669 -1.2322
 7940TIP3   OH248014   1.708   4.306   0.567 -0.0314 -0.1250  0.0161
 7940TIP3    H148015   1.699   4.388   0.519  0.0942  1.9674  3.2768
 7940TIP3    H248016   1.654   4.318   0.645 -0.5189 -3.4646  0.3350
 7941TIP3   OH248017   7.599   0.626   1.766 -0.5660 -0.3093 -0.0060
 7941TIP3    H148018   7.677   0.645   1.713 -0.9704  1.0962 -0.1294
 7941TIP3    H248019   7.633   0.583   1.845  0.4556  1.1886  0.4087
 7942TIP3   OH248020   6.055   6.458   3.376  0.4120 -0.5237  0.2622
 7942TIP3    H148021   6.088   6.498   3.296  0.9918 -0.3509  0.5825
 7942TIP3    H248022   6.061   6.363   3.360  2.2385 -0.5184  0.7722
 7943TIP3   OH248023   0.462   4.361   2.604  0.0485  0.2858 -0.1516
 7943TIP3    H148024   0.372   4.386   2.581 -0.1270  1.4667  1.6346
 7943TIP3    H248025   0.478   4.405   2.687  2.3329  0.1661 -0.4791
 7944TIP3   OH248026   2.364   0.280   0.536 -0.4110  0.2935 -0.4866
 7944TIP3    H148027   2.300   0.254   0.469  1.1562 -0.6351 -1.6864
 7944TIP3    H248028   2.364   0.208   0.599 -1.0716  0.6478 -0.0694
 7945TIP3   OH248029   3.296   4.082   1.714 -0.5513  0.2829 -0.0320
 7945TIP3    H148030   3.270   4.037   1.794 -1.9011  1.7982  0.4193
 7945TIP3    H248031   3.388   4.056   1.701 -0.7869 -1.2568  1.0800
 7946TIP3   OH248032   2.279   1.619   1.897  0.6725  0.0659 -0.0165
 7946TIP3    H148033   2.248   1.681   1.831 -0.6163  0.7340  1.1779
 7946TIP3    H248034   2.283   1.670   1.978  0.7043 -1.1201  0.7462
 7947TIP3   OH248035   5.532   1.197   1.942 -0.5721  0.2005  0.2134
 7947TIP3    H148036   5.561   1.199   1.851  2.2441 -1.0409  0.9429
 7947TIP3    H248037   5.569   1.276   1.981 -0.8464  0.1919  0.4936
 7948TIP3   OH248038   2.232   5.539   2.806 -0.1985  0.2063 -0.5836
 7948TIP3    H148039   2.221   5.542   2.711 -1.8750  0.7848 -0.3895
 7948TIP3    H248040   2.272   5.453   2.822 -0.0645  0.0253 -1.7772
 7949TIP3   OH248041   5.132   6.568   1.690 -0.8501  0.4243 -0.5674
 7949TIP3    H148042   5.223   6.568   1.658 -0.5549 -1.2170  0.1701
 7949TIP3    H248043   5.079   6.566   1.610 -0.2843  1.7126 -1.0187
 7950TIP3   OH248044   3.078   3.279   3.231 -0.1581 -0.4133 -0.2595
 7950TIP3    H148045   3.111   3.226   3.159 -0.5489 -0.5535 -0.3342
 7950TIP3    H248046   3.043   3.216   3.293  1.1091 -0.3695  0.5417
 7951TIP3   OH248047   4.498   0.041   2.399  0.2178 -0.1655  0.5161
 7951TIP3    H148048   4.424   0.024   2.340 -1.0148  1.1423  1.6311
 7951TIP3    H248049   4.485  -0.019   2.472  0.2609  0.0366  0.6926
 7952TIP3   OH248050   5.437   5.797   1.457  0.0157  0.0789  0.5805
 7952TIP3    H148051   5.474   5.722   1.504  0.3782  0.0826  0.3118
 7952TIP3    H248052   5.374   5.759   1.397  0.2921 -0.0276  0.3535
 7953TIP3   OH248053   0.936   0.798   1.905  0.1135  0.2959  0.3720
 7953TIP3    H148054   0.870   0.728   1.903 -0.8854  1.2024  0.6472
 7953TIP3    H248055   0.964   0.802   1.997 -2.1791  2.3365  1.0717
 7954TIP3   OH248056   7.010   4.078   2.763 -0.0360  0.1917  0.3312
 7954TIP3    H148057   7.088   4.075   2.818  0.2794 -1.1160 -0.1395
 7954TIP3    H248058   6.939   4.053   2.821  0.1287 -0.0922  0.4152
 7955TIP3   OH248059   2.534   3.490   0.623 -0.0028 -0.2840 -0.5379
 7955TIP3    H148060   2.513   3.583   0.621  0.4890 -0.1731 -2.0681
 7955TIP3    H248061   2.465   3.450   0.675  0.1843  1.0239  0.7460
 7956TIP3   OH248062   4.739   2.646   2.320  0.4131 -0.2983  0.4027
 7956TIP3    H148063   4.686   2.678   2.248 -0.7317 -0.6837  1.0483
 7956TIP3    H248064   4.810   2.710   2.328 -0.3001  0.5706 -0.0758
 7957TIP3   OH248065   1.285   2.415   1.573 -0.1360  0.1615 -0.0106
 7957TIP3    H148066   1.377   2.425   1.550 -0.4837 -0.5723 -1.9348
 7957TIP3    H248067   1.281   2.334   1.623  0.0904 -0.6279 -1.2319
 7958TIP3   OH248068   6.782   5.624   2.456 -0.7066  0.3590  0.1154
 7958TIP3    H148069   6.765   5.718   2.447  0.9224  0.5905 -0.8406
 7958TIP3    H248070   6.808   5.613   2.548 -1.9379  0.6310  0.5212
 7959TIP3   OH248071   6.109   6.688   2.023 -0.3049  0.1721 -0.1354
 7959TIP3    H148072   6.022   6.678   1.986 -0.4885  0.3485  0.2447
 7959TIP3    H248073   6.168   6.684   1.947 -0.5219 -1.4066 -0.2479
 7960TIP3   OH248074   1.626   2.495   2.426 -0.6026 -0.1507  0.2217
 7960TIP3    H148075   1.584   2.540   2.352 -1.6705 -0.2646  0.7384
 7960TIP3    H248076   1.553   2.466   2.481  0.0630 -2.3841  0.0094
 7961TIP3   OH248077   3.524   0.878   2.728 -0.3871  0.0166  0.1765
 7961TIP3    H148078   3.514   0.970   2.752 -0.8169 -0.2649  1.1339
 7961TIP3    H248079   3.436   0.849   2.704 -0.0235  0.1935 -1.4388
 7962TIP3   OH248080   2.564   6.582   1.537 -0.4791 -0.0562  0.2598
 7962TIP3    H148081   2.618   6.660   1.525  0.5861 -0.7911  0.1319
 7962TIP3    H248082   2.485   6.599   1.485  1.2561 -0.5038 -2.7082
 7963TIP3   OH248083   6.993   1.431   1.163 -0.3035  0.6727 -0.2034
 7963TIP3    H148084   6.933   1.357   1.163 -0.5412  0.8533 -1.1597
 7963TIP3    H248085   7.015   1.444   1.256  0.6476 -1.2945 -0.1083
 7964TIP3   OH248086   3.704   4.596   2.442 -0.4434  0.2377 -0.6696
 7964TIP3    H148087   3.627   4.538   2.438  0.8210 -1.5030 -0.8756
 7964TIP3    H248088   3.750   4.569   2.521 -0.3044  1.6628 -0.2346
 7965TIP3   OH248089   2.969   5.064   1.589  0.5082  0.1158 -0.3322
 7965TIP3    H148090   3.024   5.007   1.536  0.3670 -0.5473  0.2246
 7965TIP3    H248091   3.031   5.113   1.643  0.6014  0.0511 -0.3794
 7966TIP3   OH248092   6.513   3.426   2.010 -0.0145  0.7068  0.6649
 7966TIP3    H148093   6.458   3.350   1.990  1.6294 -0.0547 -1.3726
 7966TIP3    H248094   6.506   3.436   2.105 -1.6236 -0.9145  0.7845
 7967TIP3   OH248095   2.414   4.771   1.406 -0.6782  0.0769 -0.2407
 7967TIP3    H148096   2.493   4.723   1.432 -2.1099 -2.1424  0.3208
 7967TIP3    H248097   2.444   4.831   1.337  1.6057 -0.1317  0.4764
 7968TIP3   OH248098   3.726   5.326   2.500  0.0205 -0.7570  0.3402
 7968TIP3    H148099   3.661   5.257   2.484 -0.6203 -0.6123  2.0997
 7968TIP3    H248100   3.765   5.342   2.414 -0.6646 -2.4548 -0.3417
 7969TIP3   OH248101   2.087   0.293   0.647  0.3936 -0.2913 -0.3632
 7969TIP3    H148102   2.036   0.266   0.723  2.8928 -2.4272  0.7056
 7969TIP3    H248103   2.130   0.374   0.674  0.3895 -0.4360  0.0715
 7970TIP3   OH248104   1.830   4.975   1.012  0.3127 -0.7528  0.3616
 7970TIP3    H148105   1.889   4.900   1.003 -0.8524 -1.6396 -0.0908
 7970TIP3    H248106   1.819   5.008   0.923 -1.4270 -1.8391  0.1330
 7971TIP3   OH248107   7.510   6.396   0.838  0.1229  0.3570 -0.2706
 7971TIP3    H148108   7.539   6.406   0.747 -0.5407 -0.3636 -0.5730
 7971TIP3    H248109   7.591   6.389   0.888  0.5149 -1.8567 -1.1257
 7972TIP3   OH248110   6.771   0.965   0.929 -0.5086 -0.1695  0.3195
 7972TIP3    H148111   6.849   0.935   0.976 -1.8440  0.9203  3.5156
 7972TIP3    H248112   6.724   0.886   0.905  0.7153 -0.7822 -0.1286
 7973TIP3   OH248113   2.363   4.118   1.330 -0.0448 -0.2668  0.1332
 7973TIP3    H148114   2.358   4.075   1.245  0.1579  1.1440 -0.6233
 7973TIP3    H248115   2.303   4.192   1.323  0.4771  0.2544  0.9783
 7974TIP3   OH248116   4.161   5.103   2.181 -0.3031 -0.7187  0.1158
 7974TIP3    H148117   4.227   5.137   2.241  0.6489  0.1315 -1.3350
 7974TIP3    H248118   4.210   5.079   2.102 -1.5915 -1.0974 -0.6035
 7975TIP3   OH248119   5.905   4.659   2.790 -0.5120 -0.0270  0.4609
 7975TIP3    H148120   5.826   4.605   2.790 -0.1158 -0.6827 -1.4447
 7975TIP3    H248121   5.890   4.723   2.720 -0.0290  0.8943  1.1884
 7976TIP3   OH248122   2.991   1.730   1.762  0.4453  0.1003 -0.1294
 7976TIP3    H148123   2.992   1.707   1.855  0.3152  0.3721 -0.0593
 7976TIP3    H248124   2.952   1.817   1.760  0.1769 -0.0251 -0.4669
 7977TIP3   OH248125   1.853   4.144   1.848  0.0319 -0.5072  1.1932
 7977TIP3    H148126   1.797   4.142   1.771  1.5062  0.6304  0.0440
 7977TIP3    H248127   1.874   4.052   1.865 -0.1214 -0.7515  0.1165
 7978TIP3   OH248128   7.096   4.528   2.128 -0.8847  0.6104  0.6051
 7978TIP3    H148129   7.133   4.554   2.044 -0.3832 -0.5434  0.4370
 7978TIP3    H248130   7.057   4.442   2.112  0.9517 -0.5640  1.9462
 7979TIP3   OH248131   2.948   6.314   0.703 -0.4208 -0.0619  0.4550
 7979TIP3    H148132   3.009   6.314   0.777  1.4291  0.3968 -0.9891
 7979TIP3    H248133   2.999   6.280   0.630 -2.4285 -1.2628 -0.4758
 7980TIP3   OH248134   4.844   6.192   0.854  0.1439  0.3386 -0.2793
 7980TIP3    H148135   4.804   6.252   0.791 -0.0674  0.0936 -0.3822
 7980TIP3    H248136   4.938   6.195   0.834  0.3151  1.6338  0.5754
 7981TIP3   OH248137   3.007   5.680   1.482 -0.4234 -0.4026 -0.0339
 7981TIP3    H148138   3.061   5.604   1.504  0.7565 -0.1920 -1.9503
 7981TIP3    H248139   3.015   5.737   1.559  0.9936 -0.9870  0.2965
 7982TIP3   OH248140   6.332   4.697   0.887 -0.5542  0.3357  0.1978
 7982TIP3    H148141   6.400   4.640   0.923 -1.3535 -1.4144 -0.8919
 7982TIP3    H248142   6.250   4.649   0.902 -1.2017  0.9279 -1.2406
 7983TIP3   OH248143   5.400   0.702   2.811 -0.3612  0.6395  0.6554
 7983TIP3    H148144   5.370   0.736   2.895  0.3471  1.1573  0.7144
 7983TIP3    H248145   5.484   0.659   2.831  1.2727  3.2176 -0.1831
 7984TIP3   OH248146   6.624   2.017   1.879 -0.1132  0.2041  0.0014
 7984TIP3    H148147   6.639   1.948   1.943 -0.1134 -0.8001 -1.0484
 7984TIP3    H248148   6.690   2.002   1.811  0.1941  1.5287 -0.0222
 7985TIP3   OH248149   2.404   4.896   2.262  0.2877 -0.4384  0.0053
 7985TIP3    H148150   2.377   4.917   2.173 -0.4123  2.5291  0.8101
 7985TIP3    H248151   2.499   4.909   2.262  0.3048 -0.5667 -0.3355
 7986TIP3   OH248152   3.550   0.543   1.835 -0.0450 -0.4897  0.0778
 7986TIP3    H148153   3.589   0.472   1.783 -0.9554 -0.7067 -0.3252
 7986TIP3    H248154   3.584   0.623   1.795  0.3373 -0.6817  0.0134
 7987TIP3   OH248155   4.942   0.487   1.606  0.0993 -0.6034  0.0702
 7987TIP3    H148156   5.005   0.553   1.635 -2.7865  2.1787  0.4215
 7987TIP3    H248157   4.920   0.511   1.517 -0.8242 -1.2771  0.1037
 7988TIP3   OH248158   0.993   0.119   2.171  0.5079 -0.5068 -0.0916
 7988TIP3    H148159   1.039   0.059   2.113  1.5328  0.4517 -0.3115
 7988TIP3    H248160   0.983   0.070   2.253  0.4741 -1.3058 -0.5625
 7989TIP3   OH248161   0.999   4.883   0.821  0.1101  0.0122  0.3054
 7989TIP3    H148162   0.937   4.953   0.803 -0.0089 -0.3104 -0.6039
 7989TIP3    H248163   0.958   4.804   0.785 -0.2115 -0.7376  2.1570
 7990TIP3   OH248164   5.286   2.844   2.547 -0.5586  0.0610 -0.1044
 7990TIP3    H148165   5.315   2.789   2.474 -1.0509  0.7005 -0.7967
 7990TIP3    H248166   5.211   2.796   2.584 -0.0022 -0.5063  0.3022
 7991TIP3   OH248167   3.121   6.932   1.552  0.1337 -0.0204 -0.3882
 7991TIP3    H148168   3.118   6.838   1.571 -1.9911 -0.2113 -1.4388
 7991TIP3    H248169   3.030   6.960   1.552  0.6854  1.9360 -0.7128
 7992TIP3   OH248170   0.598   4.297   2.870  0.3502 -0.3760  0.2778
 7992TIP3    H148171   0.637   4.243   2.939  3.2033  1.2520  0.1039
 7992TIP3    H248172   0.640   4.267   2.789  1.7254  1.6926  0.1270
 7993TIP3   OH248173   0.773   1.587   2.757 -0.1221  0.3101  0.1470
 7993TIP3    H148174   0.725   1.508   2.732  1.0462 -0.1357 -0.8404
 7993TIP3    H248175   0.849   1.587   2.699  0.6422  1.4093  1.1087
 7994TIP3   OH248176   1.467   3.949   1.923  0.5261 -0.0809  0.0994
 7994TIP3    H148177   1.531   3.906   1.868 -1.0371 -0.4055 -1.5638
 7994TIP3    H248178   1.384   3.904   1.904 -0.5296  1.4416  0.8300
 7995TIP3   OH248179   0.368   4.475   1.291 -0.3639 -0.0160 -0.3652
 7995TIP3    H148180   0.275   4.468   1.313 -0.8875 -0.5589 -2.5071
 7995TIP3    H248181   0.397   4.384   1.280 -0.0186  0.2053 -1.3597
 7996TIP3   OH248182   3.493   5.056   1.304 -0.2059 -0.5318 -0.0141
 7996TIP3    H148183   3.484   5.148   1.331  0.9240 -0.8332  1.4887
 7996TIP3    H248184   3.496   5.007   1.386  0.2523 -1.8114 -0.7709
 7997TIP3   OH248185   5.964   5.102   3.554  0.6950  0.3175  0.1298
 7997TIP3    H148186   5.912   5.138   3.482  1.1916 -1.4401 -1.1525
 7997TIP3    H248187   5.900   5.059   3.610  0.3094  1.6712  0.7774
 7998TIP3   OH248188   2.480   0.899   0.928 -0.0053  0.0342  0.1234
 7998TIP3    H148189   2.425   0.976   0.916 -2.1918 -1.7951 -2.8883
 7998TIP3    H248190   2.434   0.847   0.993  0.4351  0.3148  0.6781
 7999TIP3   OH248191   5.261   0.100   1.455  0.1024 -0.6112  0.0655
 7999TIP3    H148192   5.275   0.166   1.523  0.1076  0.7798 -1.2417
 7999TIP3    H248193   5.343   0.099   1.405 -0.0441 -1.3326 -0.1764
 8000TIP3   OH248194   5.691   5.195   2.373 -0.2400 -0.9503 -0.0056
 8000TIP3    H148195   5.743   5.220   2.297  0.1232 -0.9647  0.2353
 8000TIP3    H248196   5.670   5.278   2.416  2.2316 -1.0678  1.6319
 8001TIP3   OH248197   4.128   0.118   1.601  0.2133 -0.6384 -0.1315
 8001TIP3    H148198   4.186   0.141   1.674  0.9651 -1.6569 -0.4061
 8001TIP3    H248199   4.175   0.052   1.551  0.0529  0.5995 -2.0218
 8002TIP3   OH248200   7.416   3.875   1.037 -0.0334  0.2498  0.2593
 8002TIP3    H148201   7.363   3.828   1.101  0.1286 -0.3271 -0.0289
 8002TIP3    H248202   7.493   3.821   1.024  0.5049  0.9457  0.4603
 8003TIP3   OH248203   4.595   5.071   3.269  0.5553  0.2362  0.5352
 8003TIP3    H148204   4.513   5.057   3.317  0.3110  1.4308  0.4989
 8003TIP3    H248205   4.630   4.983   3.255 -1.1236 -0.3609 -0.1490
 8004TIP3   OH248206   2.867   3.661   2.598  0.2052  0.0159 -0.1864
 8004TIP3    H148207   2.829   3.678   2.683  1.2312  0.3187  0.2240
 8004TIP3    H248208   2.794   3.629   2.545 -0.2012 -1.3622  1.1452
 8005TIP3   OH248209   6.448   6.683   2.237  0.2717 -0.0101 -0.0915
 8005TIP3    H148210   6.518   6.725   2.288 -1.0409  1.4608  0.5810
 8005TIP3    H248211   6.441   6.736   2.158 -2.0562  1.8174  1.1951
 8006TIP3   OH248212   0.967   4.202   0.899  0.2171 -0.3730  0.1662
 8006TIP3    H148213   0.984   4.192   0.993  0.9365 -0.7307  0.0013
 8006TIP3    H248214   0.999   4.121   0.860 -0.9284 -0.6251 -0.2881
 8007TIP3   OH248215   0.677   5.096   1.057  0.0481  0.0578 -0.1645
 8007TIP3    H148216   0.749   5.150   1.025  0.0527 -0.6283 -1.3958
 8007TIP3    H248217   0.630   5.070   0.977 -0.2908 -1.2549  0.4406
 8008TIP3   OH248218   4.406   3.732   1.444  0.6596  0.2044  0.0783
 8008TIP3    H148219   4.398   3.826   1.425 -0.7315  0.1161  0.1611
 8008TIP3    H248220   4.397   3.726   1.539 -0.6672 -0.1336 -0.0578
 8009TIP3   OH248221   0.678   6.271   2.319  0.1384 -0.1504 -0.0410
 8009TIP3    H148222   0.663   6.360   2.286 -0.4451  0.2266  1.1490
 8009TIP3    H248223   0.597   6.249   2.364  0.6764 -0.8571  0.5979
 8010TIP3   OH248224   3.858   0.200   1.034  0.1520 -0.1574 -0.5309
 8010TIP3    H148225   3.869   0.133   1.101  2.1886 -0.1738 -0.8300
 8010TIP3    H248226   3.893   0.160   0.954  0.0985  0.7692 -1.0354
 8011TIP3   OH248227   4.619   5.556   1.029  0.2706 -0.2179  0.4070
 8011TIP3    H148228   4.641   5.506   1.107 -0.0141  0.3687  0.8748
 8011TIP3    H248229   4.523   5.560   1.028  0.2914  1.0994  0.9163
 8012TIP3   OH248230   2.219   4.680   2.873  0.2938 -0.2717  0.5730
 8012TIP3    H148231   2.217   4.775   2.876 -0.4924 -0.2653  4.0014
 8012TIP3    H248232   2.128   4.653   2.877  0.4561 -1.2550 -1.1106
 8013TIP3   OH248233   7.064   3.207   3.180 -0.1392  0.2062 -0.4677
 8013TIP3    H148234   7.006   3.132   3.172 -0.3420  0.3205 -0.0885
 8013TIP3    H248235   7.069   3.243   3.091  0.3294 -0.5195 -0.7483
 8014TIP3   OH248236   1.012   4.179   2.516 -0.0493 -0.3839  0.2214
 8014TIP3    H148237   1.009   4.261   2.467 -2.8252  0.0253  0.8971
 8014TIP3    H248238   0.958   4.118   2.465  2.5995 -2.1263 -0.6860
 8015TIP3   OH248239   0.698   3.881   3.435 -0.3563 -0.1246 -0.4509
 8015TIP3    H148240   0.773   3.825   3.415 -1.0575 -2.1115  1.9560
 8015TIP3    H248241   0.736   3.960   3.473  0.6279 -1.6223  1.9549
 8016TIP3   OH248242   4.254   7.029   3.058  0.3946 -0.1374 -0.6961
 8016TIP3    H148243   4.339   7.071   3.046  0.5682 -0.4114 -0.4143
 8016TIP3    H248244   4.273   6.947   3.103 -0.1816  0.5575  0.8941
 8017TIP3   OH248245   5.997   6.858   2.512  0.3120 -0.2024 -0.4520
 8017TIP3    H148246   6.037   6.939   2.542 -0.0788  0.0331 -0.5644
 8017TIP3    H248247   6.071   6.799   2.497  0.4940 -0.5775  1.6293
 8018TIP3   OH248248   3.671   1.709   1.879  0.3750 -0.4330 -0.3854
 8018TIP3    H148249   3.602   1.739   1.938 -0.3841 -0.6881 -1.1204
 8018TIP3    H248250   3.708   1.789   1.842 -1.1777 -0.3246 -1.8148
 8019TIP3   OH248251   6.670   2.284   1.266  0.0378  0.3758  0.0183
 8019TIP3    H148252   6.607   2.300   1.336 -1.8024  0.7814 -1.6649
 8019TIP3    H248253   6.709   2.199   1.288 -1.0551  0.1272  1.1234
 8020TIP3   OH248254   4.889   1.782   0.886 -0.1723 -0.0628 -0.8643
 8020TIP3    H148255   4.818   1.801   0.824 -0.9643  0.5916  0.2010
 8020TIP3    H248256   4.886   1.855   0.948  1.2319 -0.2016 -0.6076
 8021TIP3   OH248257   0.620   6.868   1.366  0.1130  0.3875 -0.2779
 8021TIP3    H148258   0.672   6.885   1.288  1.7918  1.0217  0.9154
 8021TIP3    H248259   0.664   6.918   1.436 -0.6094 -1.0886  1.3171
 8022TIP3   OH248260   1.795   5.721   1.427 -0.1619  0.7937 -0.0748
 8022TIP3    H148261   1.782   5.711   1.522  0.1136  2.6426  0.1866
 8022TIP3    H248262   1.847   5.645   1.402 -0.7790 -0.0653  1.1252
 8023TIP3   OH248263   7.182   1.856   1.687  0.4814 -0.3690 -0.3866
 8023TIP3    H148264   7.149   1.823   1.770  0.9405 -1.2781 -0.5537
 8023TIP3    H248265   7.267   1.894   1.709  1.0696 -1.5177 -0.5852
 8024TIP3   OH248266   6.788   6.579   2.718  0.2215  0.0375 -0.4922
 8024TIP3    H148267   6.775   6.674   2.724  0.2030  0.0296 -0.4051
 8024TIP3    H248268   6.712   6.548   2.668 -0.3192 -0.0571  0.3712
 8025TIP3   OH248269   7.497   5.008   1.447 -0.5225 -0.1269 -0.2842
 8025TIP3    H148270   7.509   5.061   1.368 -1.4131  0.8667  0.2121
 8025TIP3    H248271   7.582   5.009   1.490  0.1800 -1.2872 -1.5644
 8026TIP3   OH248272   1.623   5.157   2.544 -0.1521  0.3345 -0.2242
 8026TIP3    H148273   1.601   5.240   2.503 -0.6986  1.0038  1.3324
 8026TIP3    H248274   1.547   5.101   2.530 -1.2946  1.2978  1.6806
 8027TIP3   OH248275   7.084   4.355   3.316  0.1509  0.0789  0.2054
 8027TIP3    H148276   6.993   4.349   3.344  0.3305 -1.0163  0.6226
 8027TIP3    H248277   7.129   4.286   3.364  1.1973  0.5565 -0.0427
 8028TIP3   OH248278   3.180   5.818   0.608  0.4092 -0.5187 -0.2594
 8028TIP3    H148279   3.260   5.865   0.632  0.5538 -0.2884 -1.1624
 8028TIP3    H248280   3.180   5.817   0.513  0.2686 -2.1324 -0.2758
 8029TIP3   OH248281   2.246   4.768   2.514  0.0293 -0.6146  0.1437
 8029TIP3    H148282   2.287   4.814   2.440 -0.8825 -0.6223 -0.3909
 8029TIP3    H248283   2.175   4.827   2.542 -1.2158 -1.6958 -0.6076
 8030TIP3   OH248284   7.458   6.727   2.800 -0.0172  0.5730 -0.5574
 8030TIP3    H148285   7.381   6.768   2.759  0.3548  0.8544 -0.9789
 8030TIP3    H248286   7.427   6.641   2.827 -0.0987  0.1374 -2.0050
 8031TIP3   OH248287   6.036   2.607   1.845 -0.0248 -0.6208  0.0689
 8031TIP3    H148288   5.959   2.574   1.798  0.2732 -0.3687 -0.6077
 8031TIP3    H248289   6.102   2.620   1.776  0.5942 -0.7550  0.6333
 8032TIP3   OH248290   1.556   2.547   3.345  0.2933  0.2122  0.1242
 8032TIP3    H148291   1.476   2.595   3.364  0.5536  0.0809  1.6701
 8032TIP3    H248292   1.554   2.471   3.404  2.1257  0.8757  1.1250
 8033TIP3   OH248293   6.853   0.913   1.622  0.1175  0.4278 -0.2046
 8033TIP3    H148294   6.870   0.847   1.690  0.4351  0.5246 -0.1897
 8033TIP3    H248295   6.871   0.867   1.540 -2.2336 -0.3415 -0.3820
 8034TIP3   OH248296   7.246   4.531   2.339 -0.3664 -0.1965 -0.4581
 8034TIP3    H148297   7.184   4.536   2.266  0.3388  1.2332 -0.9981
 8034TIP3    H248298   7.256   4.622   2.368  1.7970 -0.3149 -0.6864
 8035TIP3   OH248299   6.249   0.510   0.722 -0.3849  0.3786 -0.1872
 8035TIP3    H148300   6.267   0.429   0.771 -1.4233 -0.7137 -1.5552
 8035TIP3    H248301   6.336   0.547   0.707 -0.0017  0.8133  2.4697
 8036TIP3   OH248302   6.868   7.038   3.057  0.1811  0.3736  0.5607
 8036TIP3    H148303   6.868   7.047   3.152 -1.8185 -0.5071  0.6980
 8036TIP3    H248304   6.821   6.956   3.040  0.6775  0.4020 -1.1802
 8037TIP3   OH248305   1.085   4.649   1.055 -0.3610  0.2169 -0.2009
 8037TIP3    H148306   1.113   4.741   1.049  0.2277  0.0097 -0.7332
 8037TIP3    H248307   0.999   4.648   1.012  0.9385 -0.0128 -3.0029
 8038TIP3   OH248308   2.680   2.318   0.854  0.8625  0.0929  0.2699
 8038TIP3    H148309   2.628   2.292   0.930 -0.9499 -0.3570 -1.0566
 8038TIP3    H248310   2.752   2.369   0.891  0.2323 -0.3953  2.3082
 8039TIP3   OH248311   1.380   7.038   1.105  0.1598 -0.0625  0.0824
 8039TIP3    H148312   1.443   7.097   1.064 -0.6378  1.5824  1.0863
 8039TIP3    H248313   1.349   6.982   1.034  0.7160  0.9482 -0.9918
 8040TIP3   OH248314   7.049   2.871   1.858 -0.0527 -0.5112  0.2349
 8040TIP3    H148315   6.966   2.870   1.811  0.0740  2.6935 -0.2848
 8040TIP3    H248316   7.027   2.899   1.947  0.3791 -0.0936  0.2191
 8041TIP3   OH248317   0.115   3.713   1.609  0.3555 -0.0611  0.3602
 8041TIP3    H148318   0.102   3.803   1.580 -0.5506 -0.5571 -0.8315
 8041TIP3    H248319   0.113   3.661   1.529  1.1419 -1.1245  1.0040
 8042TIP3   OH248320   6.177   2.703   1.338  0.3964  0.4057  0.8610
 8042TIP3    H148321   6.123   2.685   1.262  0.6168  0.3423  0.7182
 8042TIP3    H248322   6.267   2.685   1.309  0.4736  0.3061  1.1566
 8043TIP3   OH248323   2.781   6.131   1.718  0.6597 -0.0982  0.0533
 8043TIP3    H148324   2.875   6.146   1.703  0.6083  0.2459  0.0745
 8043TIP3    H248325   2.740   6.215   1.699  0.4741  0.0445  1.0588
 8044TIP3   OH248326   7.166   6.539   1.093 -0.5126 -0.2614 -0.1250
 8044TIP3    H148327   7.243   6.560   1.145 -0.1303  0.4295 -0.9568
 8044TIP3    H248328   7.122   6.623   1.079  0.1079 -0.1982 -2.0198
 8045TIP3   OH248329   3.273   2.186   2.237 -0.5608 -0.1752  0.1145
 8045TIP3    H148330   3.243   2.225   2.319 -0.9787  1.1020 -0.6155
 8045TIP3    H248331   3.198   2.193   2.178 -0.1014 -0.6036 -0.5342
 8046TIP3   OH248332   3.300   0.419   1.865 -0.1799 -0.6729  0.2485
 8046TIP3    H148333   3.278   0.401   1.957  0.1019 -1.6532  0.1263
 8046TIP3    H248334   3.395   0.425   1.864 -0.2521  0.9683  0.3003
 8047TIP3   OH248335   6.767   2.705   1.954  0.5243  0.0755 -0.2935
 8047TIP3    H148336   6.805   2.692   1.867 -1.4836 -1.4775 -1.0278
 8047TIP3    H248337   6.718   2.786   1.947 -1.2064 -0.9874 -1.2968
 8048TIP3   OH248338   3.844   1.121   1.748  0.4103  0.7579 -0.0380
 8048TIP3    H148339   3.877   1.192   1.804  0.2264  0.7830  0.0367
 8048TIP3    H248340   3.881   1.042   1.787 -1.1522  0.5951  1.1819
 8049TIP3   OH248341   4.990   6.372   1.115 -0.5273  0.2750 -0.3634
 8049TIP3    H148342   4.917   6.410   1.067  0.1874 -0.8334 -2.4424
 8049TIP3    H248343   5.068   6.415   1.080 -0.0538  0.3298  0.7079
 8050TIP3   OH248344   1.317   3.097   2.173  0.0072  0.4659 -0.1366
 8050TIP3    H148345   1.264   3.176   2.166  0.6654  0.8708 -0.7395
 8050TIP3    H248346   1.256   3.025   2.159 -0.5909  0.8698  0.3906
 8051TIP3   OH248347   2.595   1.218   1.836  0.3643  0.8487 -0.1470
 8051TIP3    H148348   2.539   1.282   1.880  0.2293  2.4652 -2.4633
 8051TIP3    H248349   2.540   1.140   1.825  0.6379  0.0751  3.0363
 8052TIP3   OH248350   4.523   5.430   1.282 -0.1317  0.2815 -0.3702
 8052TIP3    H148351   4.451   5.388   1.236 -1.3354  2.4073 -0.5869
 8052TIP3    H248352   4.483   5.508   1.322  2.0010  1.4628 -0.3895
 8053TIP3   OH248353   0.666   5.272   2.510 -0.8640  0.4128  0.2335
 8053TIP3    H148354   0.734   5.250   2.574 -1.4131 -0.5428  0.5120
 8053TIP3    H248355   0.707   5.254   2.425 -0.9155 -0.6307  0.4183
 8054TIP3   OH248356   1.877   0.123   3.167 -0.0421  0.7773  0.2597
 8054TIP3    H148357   1.896   0.086   3.080  1.2844  1.2379  0.3441
 8054TIP3    H248358   1.945   0.188   3.181  0.1231  0.2878  1.9174
 8055TIP3   OH248359   7.019   4.019   1.740 -0.0648  0.1941 -0.0786
 8055TIP3    H148360   6.991   3.955   1.806 -2.3120  2.6703  1.5592
 8055TIP3    H248361   7.115   4.011   1.740 -0.1340 -1.6507  1.6332
 8056TIP3   OH248362   3.340   6.072   1.243  0.0022  0.9286  0.0589
 8056TIP3    H148363   3.402   6.017   1.291 -0.3757 -0.7043 -1.2144
 8056TIP3    H248364   3.382   6.158   1.238  0.6672  0.7539  2.0277
 8057TIP3   OH248365   2.265   0.866   1.519 -0.4995  0.1317 -0.4777
 8057TIP3    H148366   2.214   0.840   1.442  0.9741 -1.6042 -0.9353
 8057TIP3    H248367   2.200   0.901   1.580 -2.0479 -0.7231 -1.5623
 8058TIP3   OH248368   5.034   4.120   1.128 -0.2545 -0.2445  0.0635
 8058TIP3    H148369   5.053   4.043   1.182  0.8009  0.1626  0.2930
 8058TIP3    H248370   5.041   4.087   1.038 -0.7608 -0.6297  0.1579
 8059TIP3   OH248371   6.609   6.670   0.438 -0.1557 -0.4370  0.1400
 8059TIP3    H148372   6.639   6.637   0.353 -0.0291  1.6765 -0.7120
 8059TIP3    H248373   6.679   6.728   0.467 -0.5353 -0.5502  1.3437
 8060TIP3   OH248374   0.887   3.708   3.306  0.2334  0.1367 -0.1439
 8060TIP3    H148375   0.845   3.622   3.306 -0.3247  0.3957 -0.6953
 8060TIP3    H248376   0.980   3.690   3.310  0.1265 -0.5051 -0.3981
 8061TIP3   OH248377   7.355   2.620   2.078  0.2341  0.2720 -0.3397
 8061TIP3    H148378   7.414   2.550   2.051 -0.7688 -0.7778  0.1265
 8061TIP3    H248379   7.333   2.665   1.996 -0.1531 -0.7956 -0.8395
 8062TIP3   OH248380   2.774   5.553   2.455  0.1240 -0.2215  0.2847
 8062TIP3    H148381   2.804   5.644   2.461 -0.0013 -0.2617  2.0104
 8062TIP3    H248382   2.694   5.550   2.507  0.0054 -1.2807  0.0696
 8063TIP3   OH248383   7.377   6.395   1.714 -0.4102 -1.2156  0.6449
 8063TIP3    H148384   7.340   6.328   1.772 -0.8170 -0.2946  1.4844
 8063TIP3    H248385   7.353   6.478   1.756  0.4541 -0.5528 -0.1409
 8064TIP3   OH248386   1.636   1.127   0.990 -0.3115 -0.6386  0.5627
 8064TIP3    H148387   1.580   1.079   0.928  0.7262 -3.2084  1.4948
 8064TIP3    H248388   1.585   1.130   1.071  0.3119 -1.7739  1.0149
 8065TIP3   OH248389   1.441   6.245   2.288  0.2525 -0.2495 -0.4714
 8065TIP3    H148390   1.520   6.299   2.278  0.8692 -1.4178 -2.4078
 8065TIP3    H248391   1.448   6.210   2.377  1.4213  0.4235 -0.2702
 8066TIP3   OH248392   6.859   6.260   0.692  0.2842 -0.4375  0.1126
 8066TIP3    H148393   6.798   6.272   0.619  0.2064  1.9779  0.5002
 8066TIP3    H248394   6.835   6.175   0.729 -1.0702 -0.7582 -1.3890
 8067TIP3   OH248395   0.374   2.877   3.075 -0.1475  0.0209 -0.8020
 8067TIP3    H148396   0.436   2.827   3.022 -0.2897  0.4471 -1.3735
 8067TIP3    H248397   0.429   2.939   3.123 -0.2494  1.7790 -2.8013
 8068TIP3   OH248398   5.972   5.143   2.507 -0.2483  0.0757 -0.2785
 8068TIP3    H148399   5.961   5.236   2.491  0.7617  0.2681  0.0547
 8068TIP3    H248400   5.923   5.100   2.436  1.6948  0.8793 -2.2529
 8069TIP3   OH248401   1.896   5.264   3.174  0.0916 -0.0351  0.0947
 8069TIP3    H148402   1.835   5.216   3.231 -0.4396  0.3785 -0.1194
 8069TIP3    H248403   1.852   5.347   3.157  0.6977  0.2421 -0.1114
 8070TIP3   OH248404   5.725   4.142   1.024  0.7658 -0.2152  0.5109
 8070TIP3    H148405   5.818   4.136   1.004  0.9245  1.0066  0.8063
 8070TIP3    H248406   5.696   4.222   0.980  0.1828  0.1896  1.5977
 8071TIP3   OH248407   2.737   4.352   2.674  0.7234 -0.1679  0.2149
 8071TIP3    H148408   2.772   4.264   2.660  1.6930  0.3134 -0.4842
 8071TIP3    H248409   2.682   4.368   2.598  1.6774  0.3603 -0.3828
 8072TIP3   OH248410   6.588   0.765   2.399 -0.5508 -0.8506  0.0933
 8072TIP3    H148411   6.671   0.719   2.407 -0.2354 -0.6514 -1.5915
 8072TIP3    H248412   6.554   0.738   2.313 -0.7730  1.3132 -0.5724
 8073TIP3   OH248413   5.159   3.888   1.233  0.2103 -0.0173 -0.5800
 8073TIP3    H148414   5.149   3.823   1.163 -0.9416  0.7489 -1.1403
 8073TIP3    H248415   5.252   3.913   1.228  0.7106 -1.6744 -0.2765
 8074TIP3   OH248416   2.796   4.764   1.162 -0.3541  0.1274 -0.0734
 8074TIP3    H148417   2.790   4.738   1.070  2.6973 -0.7521 -0.1261
 8074TIP3    H248418   2.821   4.685   1.208  1.3390  1.1999  0.9713
 8075TIP3   OH248419   2.861   7.040   1.503 -0.1489 -0.1121  0.4187
 8075TIP3    H148420   2.823   7.060   1.418 -1.5592 -2.1242  0.5172
 8075TIP3    H248421   2.797   7.072   1.567 -0.8734 -1.8151  0.6131
 8076TIP3   OH248422   3.918   1.223   2.029  0.3968 -0.2797  0.0400
 8076TIP3    H148423   3.919   1.291   2.097  0.8927  1.2516 -1.4192
 8076TIP3    H248424   3.826   1.198   2.022 -0.2563  2.1524 -1.1319
 8077TIP3   OH248425   1.557   3.255   1.695 -0.1924  0.5642  0.2672
 8077TIP3    H148426   1.631   3.211   1.736  1.1081  1.2965 -1.1803
 8077TIP3    H248427   1.491   3.186   1.682  1.8372 -1.0854 -2.1038
 8078TIP3   OH248428   5.765   3.523   1.693  0.2885  0.0649 -0.1006
 8078TIP3    H148429   5.821   3.595   1.664 -0.2480 -0.3003 -2.1886
 8078TIP3    H248430   5.686   3.566   1.726 -0.4790  0.4723 -2.3134
 8079TIP3   OH248431   5.964   5.475   2.359 -0.4355  0.2461  1.0218
 8079TIP3    H148432   6.059   5.480   2.355 -0.4532 -0.3330 -0.5895
 8079TIP3    H248433   5.933   5.543   2.298 -1.0684  0.4032  1.4942
 8080TIP3   OH248434   3.818   7.408   2.381  0.0978  0.1105  0.3204
 8080TIP3    H148435   3.726   7.400   2.356  0.4003 -0.3670 -0.6983
 8080TIP3    H248436   3.816   7.452   2.466 -1.1183 -0.8518  0.8183
 8081TIP3   OH248437   4.775   1.843   2.847  0.4599  0.0305 -0.8123
 8081TIP3    H148438   4.683   1.840   2.820  0.3175 -1.3788 -0.2402
 8081TIP3    H248439   4.819   1.784   2.786  0.3742 -2.0400  0.9909
 8082TIP3   OH248440   5.655   5.829   1.281 -0.6644  0.0926  0.0635
 8082TIP3    H148441   5.593   5.761   1.255  2.4622 -2.6300 -1.0706
 8082TIP3    H248442   5.655   5.827   1.376  0.1846 -2.5345  0.0944
 8083TIP3   OH248443   0.789   5.637   2.663  0.2110  0.1238 -0.4832
 8083TIP3    H148444   0.832   5.567   2.712  0.7074 -0.6545 -1.9470
 8083TIP3    H248445   0.858   5.703   2.649 -0.2101  0.8507  0.7453
 8084TIP3   OH248446   0.517   5.325   2.828  0.0865  0.3072  0.1240
 8084TIP3    H148447   0.500   5.419   2.819 -0.4424  0.3210  1.1568
 8084TIP3    H248448   0.463   5.298   2.902 -0.4955 -1.0169 -0.7542
 8085TIP3   OH248449   4.071   2.486   1.661 -0.2047 -0.0190 -0.0009
 8085TIP3    H148450   4.001   2.494   1.596 -0.5993  0.2633  0.4468
 8085TIP3    H248451   4.049   2.406   1.709 -0.7266  0.5375  0.7151
 8086TIP3   OH248452   0.865   1.065   1.472 -0.3208 -0.4709  0.1057
 8086TIP3    H148453   0.927   1.121   1.519  0.3519 -0.7182 -0.4649
 8086TIP3    H248454   0.779   1.100   1.496 -0.0335 -0.8583  1.8331
 8087TIP3   OH248455   6.588   5.080   1.788  0.1156  0.2694 -0.0861
 8087TIP3    H148456   6.657   5.107   1.728  1.1859 -0.6629  0.6680
 8087TIP3    H248457   6.627   5.089   1.875 -1.1417  0.8762  0.4365
 8088TIP3   OH248458   0.845   2.067   1.115 -0.1387  0.1872 -1.1395
 8088TIP3    H148459   0.803   2.147   1.081 -1.0081  0.6583  0.8719
 8088TIP3    H248460   0.825   2.068   1.208  3.8276  0.0540 -0.1130
 8089TIP3   OH248461   3.837   6.759   2.676 -0.1300  0.4557  0.2452
 8089TIP3    H148462   3.884   6.763   2.593 -1.4671  0.0311 -0.5715
 8089TIP3    H248463   3.761   6.704   2.657 -1.4855  1.9139  1.2423
 8090TIP3   OH248464   7.307   0.576   3.150 -1.0310 -0.5345 -0.6163
 8090TIP3    H148465   7.310   0.502   3.089  0.0866  0.8311 -2.3646
 8090TIP3    H248466   7.224   0.619   3.131 -1.2420 -0.8034 -0.2970
 8091TIP3   OH248467   5.731   0.573   1.312  0.2844 -0.0926  0.1102
 8091TIP3    H148468   5.761   0.537   1.395  0.6341 -0.3712 -0.1336
 8091TIP3    H248469   5.782   0.654   1.302 -1.1755  1.0058  1.1144
 8092TIP3   OH248470   1.187   5.114   2.665 -0.2020 -0.3315  0.1856
 8092TIP3    H148471   1.215   5.184   2.605 -0.3388 -0.6346 -0.2331
 8092TIP3    H248472   1.269   5.081   2.701 -0.2028  1.1309  1.6413
 8093TIP3   OH248473   5.691   7.310   3.068  0.6362  0.2365 -0.9754
 8093TIP3    H148474   5.630   7.307   2.994 -1.1726  0.8775  0.4055
 8093TIP3    H248475   5.666   7.235   3.121 -0.4952  1.7230  0.7047
 8094TIP3   OH248476   6.295   0.073   1.965 -0.0149 -0.4005  0.1117
 8094TIP3    H148477   6.229   0.030   2.019 -1.6598  2.3816  0.5279
 8094TIP3    H248478   6.357   0.110   2.028 -0.6416  0.8352  0.0513
 8095TIP3   OH248479   0.722   1.699   1.400  0.0066  0.5761  0.2251
 8095TIP3    H148480   0.645   1.750   1.424  1.0309  3.0292 -1.3351
 8095TIP3    H248481   0.795   1.741   1.446  0.7310 -0.2686 -0.1144
 8096TIP3   OH248482   0.431   1.066   2.013 -0.3632  0.2890  0.5791
 8096TIP3    H148483   0.500   1.127   2.039  0.7426 -0.6665 -0.0216
 8096TIP3    H248484   0.353   1.120   2.005  0.5783  1.6302  0.0999
 8097TIP3   OH248485   0.788   4.749   2.211 -0.1266  0.2435  0.1030
 8097TIP3    H148486   0.863   4.751   2.151 -0.5423  0.0230 -0.4291
 8097TIP3    H248487   0.777   4.656   2.231  0.5209  0.3810  1.1821
 8098TIP3   OH248488   1.318   0.689   0.508 -0.4702 -0.9384  0.0582
 8098TIP3    H148489   1.328   0.697   0.413 -4.8302  0.8352 -0.4596
 8098TIP3    H248490   1.260   0.613   0.519 -0.9747 -0.3994  1.2164
 8099TIP3   OH248491   4.439   6.751   1.236 -0.0978 -0.4567  0.6549
 8099TIP3    H148492   4.528   6.719   1.227  0.2847  0.4310  1.1894
 8099TIP3    H248493   4.430   6.817   1.167 -0.5503 -0.9720  0.2063
 8100TIP3   OH248494   1.567   2.352   1.321 -0.0662  0.4311 -0.4340
 8100TIP3    H148495   1.527   2.438   1.333  0.0988  0.3644  0.7399
 8100TIP3    H248496   1.594   2.326   1.409 -0.3712 -0.9502 -0.7319
 8101TIP3   OH248497   2.671   5.579   1.756 -0.0116  0.1912 -0.1720
 8101TIP3    H148498   2.715   5.605   1.675  0.4270  1.2956  0.3961
 8101TIP3    H248499   2.731   5.605   1.825 -0.7744  0.0824  0.5496
 8102TIP3   OH248500   4.780   2.533   1.109  0.0782 -0.3635  0.2912
 8102TIP3    H148501   4.785   2.460   1.171  2.5628 -0.7612 -0.2988
 8102TIP3    H248502   4.863   2.530   1.061 -0.2909  2.0930 -0.6216
 8103TIP3   OH248503   7.107   1.166   1.374 -0.4535 -0.0445 -0.2037
 8103TIP3    H148504   7.030   1.216   1.400  0.0177  0.6393 -0.1150
 8103TIP3    H248505   7.148   1.140   1.457  0.2992  0.9767 -0.2436
 8104TIP3   OH248506   4.166   1.239   1.426 -0.0793  0.3983 -0.8028
 8104TIP3    H148507   4.148   1.327   1.459  0.6017  0.3920 -0.3965
 8104TIP3    H248508   4.081   1.207   1.395 -0.5716  0.7182  0.1832
 8105TIP3   OH248509   4.614   6.819   1.834 -0.1902 -0.1305  0.1369
 8105TIP3    H148510   4.671   6.756   1.791 -0.2667 -1.1208  1.4050
 8105TIP3    H248511   4.526   6.783   1.823 -0.2760 -0.0490  0.5320
 8106TIP3   OH248512   5.615   2.989   1.280  0.0192 -0.2159 -0.1945
 8106TIP3    H148513   5.524   3.011   1.300  0.2168 -0.6970  1.4129
 8106TIP3    H248514   5.623   2.897   1.304  0.2795 -0.9723 -2.8767
 8107TIP3   OH248515   2.696   2.376   1.198  0.5517 -0.0962  0.1919
 8107TIP3    H148516   2.735   2.291   1.216  0.8015  0.1754  0.9757
 8107TIP3    H248517   2.760   2.439   1.232  0.5297  0.4137 -0.6934
 8108TIP3   OH248518   2.292   2.596   0.392  0.8711 -0.6786  0.0364
 8108TIP3    H148519   2.336   2.534   0.333 -0.6696  0.4087 -2.4258
 8108TIP3    H248520   2.222   2.546   0.432  0.2500 -0.8268 -1.1836
 8109TIP3   OH248521   2.169   1.667   0.573  0.0392 -0.1035  0.3088
 8109TIP3    H148522   2.213   1.711   0.646 -0.1549  2.1013 -0.8177
 8109TIP3    H248523   2.231   1.600   0.545  1.5336  1.1461  0.4790
 8110TIP3   OH248524   6.153   0.156   1.220 -0.7254  0.1677  0.1573
 8110TIP3    H148525   6.213   0.230   1.209 -0.5678  0.3057  1.7121
 8110TIP3    H248526   6.066   0.195   1.220 -0.7073  0.2057 -0.2219
 8111TIP3   OH248527   5.864   2.232   2.692  0.0149 -0.0124 -1.3520
 8111TIP3    H148528   5.881   2.157   2.748 -0.2252  0.6972 -0.2886
 8111TIP3    H248529   5.948   2.277   2.685 -0.4912  1.3460  0.6626
 8112TIP3   OH248530   7.490   2.671   2.590  0.1793 -0.4579  0.6408
 8112TIP3    H148531   7.464   2.719   2.669  0.9267  0.9990  0.0362
 8112TIP3    H248532   7.407   2.648   2.549 -0.2109  0.8571  0.6496
 8113TIP3   OH248533   6.973   5.601   1.877  0.2927 -0.5465 -0.1221
 8113TIP3    H148534   6.964   5.515   1.834 -0.0580 -0.6142  0.0880
 8113TIP3    H248535   6.884   5.635   1.882  0.5002  0.1069 -0.7566
 8114TIP3   OH248536   1.385   0.482   1.308  0.2237 -0.9588  0.3156
 8114TIP3    H148537   1.315   0.433   1.265  1.5781 -0.9893 -2.0108
 8114TIP3    H248538   1.382   0.452   1.399 -0.9152 -3.1255 -0.3571
 8115TIP3   OH248539   0.575   1.680   0.980 -0.1687 -0.3604 -0.1039
 8115TIP3    H148540   0.554   1.766   1.017 -0.4288 -0.7692  0.7371
 8115TIP3    H248541   0.546   1.685   0.889 -0.8762  0.1986  0.1437
 8116TIP3   OH248542   4.418   0.298   1.997  0.3087 -0.0041 -0.2909
 8116TIP3    H148543   4.386   0.273   2.083  3.6849 -0.0535  1.1008
 8116TIP3    H248544   4.482   0.367   2.014 -0.9243  2.0512 -3.0709
 8117TIP3   OH248545   1.034   3.332   1.371 -0.1397  0.3711  0.1173
 8117TIP3    H148546   1.000   3.417   1.343 -0.8357 -0.1760 -0.7530
 8117TIP3    H248547   1.088   3.352   1.448 -1.2254  1.4623  0.6388
 8118TIP3   OH248548   2.913   3.605   0.865  0.3800  0.1489 -0.2841
 8118TIP3    H148549   2.824   3.570   0.868  0.5584 -0.2340  0.4907
 8118TIP3    H248550   2.909   3.671   0.795 -0.2655 -0.5285 -0.9078
 8119TIP3   OH248551   6.482   0.829   1.059  0.4065 -0.2115 -0.6912
 8119TIP3    H148552   6.565   0.804   1.018  0.0384  0.8037 -2.1231
 8119TIP3    H248553   6.502   0.834   1.153  2.0742  0.4376 -1.0489
 8120TIP3   OH248554   5.113   6.566   2.884 -0.1839  0.0976 -0.3969
 8120TIP3    H148555   5.052   6.570   2.810  0.5711  2.5439 -1.0046
 8120TIP3    H248556   5.177   6.635   2.865  0.8537 -0.1679  1.8569
 8121TIP3   OH248557   2.518   1.783   2.677  0.9052  0.2883 -0.3633
 8121TIP3    H148558   2.496   1.771   2.769  1.3216 -1.8330 -0.4810
 8121TIP3    H248559   2.441   1.753   2.629 -0.0772  3.1624 -0.7780
 8122TIP3   OH248560   7.583   0.841   9.464  0.2736 -0.0816  0.1263
 8122TIP3    H148561   7.567   0.930   9.493  0.4385 -0.3620  1.1051
 8122TIP3    H248562   7.666   0.845   9.416 -1.0906  0.8098 -2.3483
 8123TIP3   OH248563   4.753   2.976   1.221  0.1369  0.6875  0.4304
 8123TIP3    H148564   4.772   2.953   1.130 -2.3144 -0.2007  0.0734
 8123TIP3    H248565   4.831   2.947   1.269  0.9984  0.1174 -1.2282
 8124TIP3   OH248566   7.246   4.869   0.576  0.4134 -0.6610 -0.1141
 8124TIP3    H148567   7.250   4.941   0.640  1.0946 -0.9455  0.1632
 8124TIP3    H248568   7.152   4.850   0.568  0.2244  0.2508 -0.1848
 8125TIP3   OH248569   2.886   2.195   2.690  0.1470 -0.1356 -0.4613
 8125TIP3    H148570   2.805   2.153   2.719  0.6729 -0.7559  0.1331
 8125TIP3    H248571   2.950   2.173   2.757  0.9450 -0.1005 -1.1994
 8126TIP3   OH248572   5.595   2.326   1.729  0.1853 -0.2936  0.5049
 8126TIP3    H148573   5.588   2.260   1.660  0.0912 -0.6877  0.8795
 8126TIP3    H248574   5.507   2.363   1.736  0.6852  1.3449 -1.0982
 8127TIP3   OH248575   3.050   4.880   2.378  0.2893  0.1229  0.0543
 8127TIP3    H148576   2.986   4.825   2.423  0.1126  0.4397  0.1970
 8127TIP3    H248577   3.016   4.969   2.387  1.2659  0.4245  1.0279
 8128TIP3   OH248578   1.123   0.511   1.988 -0.7324  0.2527 -0.4308
 8128TIP3    H148579   1.103   0.559   2.068  2.0610 -0.1674  0.6431
 8128TIP3    H248580   1.176   0.437   2.018  1.5011  0.7858 -2.7625
 8129TIP3   OH248581   5.419   3.111   1.951 -0.0562  0.0998  1.0028
 8129TIP3    H148582   5.446   3.082   2.039  1.2435 -0.1882  0.5402
 8129TIP3    H248583   5.412   3.029   1.901 -0.6166  0.2769  0.7870
 8130TIP3   OH248584   4.806   5.384   2.581 -0.0061 -0.0059  0.7234
 8130TIP3    H148585   4.738   5.438   2.622 -1.2862 -1.2880  0.3732
 8130TIP3    H248586   4.784   5.294   2.607  1.1785 -0.5072  0.0588
 8131TIP3   OH248587   7.575   2.107   3.093  0.2723 -0.4588  0.4485
 8131TIP3    H148588   7.661   2.145   3.113  0.6147 -0.3072 -1.2267
 8131TIP3    H248589   7.544   2.075   3.178  1.2419  0.9534  1.3941
 8132TIP3   OH248590   1.743   5.412   0.968 -0.3197  0.1653 -0.2364
 8132TIP3    H148591   1.756   5.476   1.038  2.9510 -0.2644 -0.2926
 8132TIP3    H248592   1.648   5.400   0.963 -0.8479  2.7276  1.7949
 8133TIP3   OH248593   6.229   6.665   0.784  0.8852 -0.1710 -0.2143
 8133TIP3    H148594   6.323   6.674   0.774  0.8002 -1.3246 -3.2456
 8133TIP3    H248595   6.193   6.746   0.747  0.6525 -0.0505  0.2628
 8134TIP3   OH248596   2.311   6.362   9.425  0.4475 -0.1367  0.1398
 8134TIP3    H148597   2.404   6.377   9.406  0.2076  1.4340  0.1003
 8134TIP3    H248598   2.274   6.450   9.435 -1.0169 -0.7446  0.2628
 8135TIP3   OH248599   4.974   3.615   2.025  0.3376 -0.2657  0.1276
 8135TIP3    H148600   4.996   3.532   2.067  0.3549  0.6279  2.0295
 8135TIP3    H248601   4.910   3.592   1.958  1.1438 -1.9225 -0.1157
 8136TIP3   OH248602   1.247   2.519   0.534 -0.5403  0.0922  0.4251
 8136TIP3    H148603   1.187   2.447   0.553 -1.1645 -0.3159 -2.6051
 8136TIP3    H248604   1.190   2.594   0.517 -0.0299  0.5386  0.6591
 8137TIP3   OH248605   0.065   3.783   2.360 -0.1725  0.2077  0.5202
 8137TIP3    H148606   0.133   3.716   2.354  0.0190  0.5044 -1.1004
 8137TIP3    H248607   0.073   3.832   2.278 -2.3723  0.2208  0.2630
 8138TIP3   OH248608   7.061   4.698   2.660  0.5794  0.2490 -0.0934
 8138TIP3    H148609   7.020   4.641   2.595  1.3600  1.0313 -1.3254
 8138TIP3    H248610   7.095   4.638   2.727  1.4036 -0.7546 -1.3624
 8139TIP3   OH248611   4.427   3.413   2.677 -0.4828  0.1964 -0.3472
 8139TIP3    H148612   4.508   3.385   2.635  0.1991  0.4906  0.7154
 8139TIP3    H248613   4.426   3.366   2.761 -1.7335 -0.2804 -0.6108
 8140TIP3   OH248614   1.710   6.113   2.620 -0.0238 -0.2523 -0.4126
 8140TIP3    H148615   1.772   6.147   2.556 -0.1042 -0.1769 -0.4507
 8140TIP3    H248616   1.628   6.160   2.601 -0.0933 -0.3558 -0.3669
 8141TIP3   OH248617   3.456   3.912   2.219  0.7573 -0.5968  0.3203
 8141TIP3    H148618   3.447   3.848   2.148  1.4017 -0.0326 -0.2816
 8141TIP3    H248619   3.529   3.878   2.271  0.3775 -0.9340  0.6444
 8142TIP3   OH248620   3.259   6.674   1.902 -1.2088 -0.5874  0.3976
 8142TIP3    H148621   3.192   6.618   1.941 -0.2564 -0.1168  2.8633
 8142TIP3    H248622   3.242   6.761   1.936  0.4507 -0.4071  0.8688
 8143TIP3   OH248623   0.880   0.325   2.436 -0.5727  0.3700  0.5609
 8143TIP3    H148624   0.795   0.336   2.480 -1.6590 -2.9576 -0.3220
 8143TIP3    H248625   0.917   0.247   2.477  0.9410  0.3886 -0.7090
 8144TIP3   OH248626   1.734   0.214   0.497 -0.3289  0.1069  0.5372
 8144TIP3    H148627   1.796   0.273   0.539  1.6677  0.5139 -2.6389
 8144TIP3    H248628   1.781   0.131   0.489 -1.0087 -0.2333 -0.0504
 8145TIP3   OH248629   5.032   6.132   2.904  0.3856 -0.3875 -0.3203
 8145TIP3    H148630   5.108   6.142   2.847 -0.4685  2.0245 -1.1597
 8145TIP3    H248631   5.051   6.187   2.980 -1.6272  2.8263 -1.9034
 8146TIP3   OH248632   7.674   2.550   0.894  0.0893 -0.3591 -0.0427
 8146TIP3    H148633   7.601   2.487   0.893 -0.2532  0.0226  0.6603
 8146TIP3    H248634   7.665   2.597   0.811  0.2109 -1.0725 -0.4748
 8147TIP3   OH248635   7.367   3.824   1.413 -0.0931  0.1846 -0.3507
 8147TIP3    H148636   7.298   3.789   1.356 -0.2878  0.1946 -0.1227
 8147TIP3    H248637   7.332   3.908   1.444 -0.5155 -0.3626  0.7409
 8148TIP3   OH248638   4.722   2.867   2.567 -0.6724  0.3613  0.3069
 8148TIP3    H148639   4.649   2.815   2.601 -1.1768  0.8213 -0.0482
 8148TIP3    H248640   4.686   2.955   2.557 -0.1345  0.5447 -0.0839
 8149TIP3   OH248641   4.563   2.481   2.477 -0.0153  0.2068  0.0735
 8149TIP3    H148642   4.557   2.541   2.552  2.6360 -0.4133  0.8733
 8149TIP3    H248643   4.608   2.532   2.409 -1.9207  0.5837 -0.9818
 8150TIP3   OH248644   5.164   6.072   1.676  0.4556 -0.4080 -0.1584
 8150TIP3    H148645   5.229   6.010   1.645  0.6598  0.0971 -0.7558
 8150TIP3    H248646   5.214   6.132   1.732  0.3874 -0.3861 -0.1217
 8151TIP3   OH248647   0.482   4.461   3.379  0.4081 -0.5365  0.4244
 8151TIP3    H148648   0.519   4.377   3.404  0.6448 -0.4909  0.2402
 8151TIP3    H248649   0.525   4.482   3.296  0.1630 -0.3544  0.3412
 8152TIP3   OH248650   1.638   0.589   1.536  0.2611  0.4448 -0.6213
 8152TIP3    H148651   1.563   0.647   1.552  1.2764  2.3069 -2.0938
 8152TIP3    H248652   1.686   0.589   1.619 -0.8451 -0.0282  0.0489
 8153TIP3   OH248653   4.625   4.606   1.880 -0.2044 -0.2743 -0.3057
 8153TIP3    H148654   4.664   4.535   1.829  1.6994  1.2310 -1.0658
 8153TIP3    H248655   4.700   4.655   1.914 -1.4507  0.5730  1.3967
 8154TIP3   OH248656   6.667   5.615   3.512  0.1539  0.0694 -0.0397
 8154TIP3    H148657   6.713   5.543   3.468 -1.8684 -1.7147  0.6376
 8154TIP3    H248658   6.574   5.592   3.505 -0.4668  1.9323  1.3999
 8155TIP3   OH248659   3.326   7.245   1.337  0.3234  0.9972 -0.0248
 8155TIP3    H148660   3.333   7.193   1.417  1.4612 -0.9043 -1.3042
 8155TIP3    H248661   3.394   7.313   1.347  1.3621 -0.0283  0.0677
 8156TIP3   OH248662   6.253   2.117   1.177  0.2827  0.2625  0.4908
 8156TIP3    H148663   6.174   2.133   1.126 -0.1768  0.6705  1.3110
 8156TIP3    H248664   6.316   2.182   1.146  0.8260 -1.0215 -1.2253
 8157TIP3   OH248665   1.858   6.446   1.502  0.6757 -0.5200  0.0821
 8157TIP3    H148666   1.770   6.460   1.466  0.5706 -2.3667 -0.4844
 8157TIP3    H248667   1.844   6.412   1.590  0.7913 -1.1791 -0.1453
 8158TIP3   OH248668   5.382   1.384   2.143 -0.0053 -0.0109 -0.0017
 8158TIP3    H148669   5.394   1.295   2.176 -1.0335  0.0592  0.6033
 8158TIP3    H248670   5.297   1.383   2.100  0.8699  0.1730 -1.8317
 8159TIP3   OH248671   7.584   0.264   1.428  0.2375  0.0602 -0.0874
 8159TIP3    H148672   7.571   0.330   1.495 -0.0482  0.2956 -0.3727
 8159TIP3    H248673   7.571   0.310   1.345 -0.0200 -0.3599 -0.2872
 8160TIP3   OH248674   7.427   1.461   2.797 -0.3086 -0.0484  0.1935
 8160TIP3    H148675   7.510   1.497   2.828  0.2685 -0.3031 -1.0198
 8160TIP3    H248676   7.416   1.381   2.847  0.1532  0.0116  0.3996
 8161TIP3   OH248677   5.544   6.046   0.927 -0.5640  0.1054 -0.1851
 8161TIP3    H148678   5.574   6.129   0.965 -1.4544  0.1275  0.4971
 8161TIP3    H248679   5.623   6.008   0.887 -0.3524  1.8179 -1.5496
 8162TIP3   OH248680   1.832   1.199   2.891 -0.2925 -0.5188 -0.3264
 8162TIP3    H148681   1.826   1.280   2.840 -0.8066  0.1668  0.7734
 8162TIP3    H248682   1.779   1.136   2.844  2.3545 -1.1248 -2.7665
 8163TIP3   OH248683   7.635   0.680   1.114  0.0983 -0.0846  0.6017
 8163TIP3    H148684   7.542   0.661   1.116 -0.0495  0.1748 -1.4804
 8163TIP3    H248685   7.641   0.775   1.105  0.4492 -0.2298 -1.2192
 8164TIP3   OH248686   7.007   0.869   1.064 -0.4554 -0.5261 -0.2028
 8164TIP3    H148687   7.054   0.952   1.068 -1.0075 -0.1735 -0.8128
 8164TIP3    H248688   6.992   0.844   1.155  1.6746 -1.0962  0.0323
 8165TIP3   OH248689   0.648   1.826   2.846 -0.1777  0.4650  0.1051
 8165TIP3    H148690   0.730   1.873   2.828 -0.7945  1.8371  0.7252
 8165TIP3    H248691   0.665   1.736   2.817 -0.1677  1.7494 -4.6224
 8166TIP3   OH248692   7.317   0.188   2.512  0.0502 -0.2590 -0.4345
 8166TIP3    H148693   7.311   0.232   2.596  1.5257  2.1224 -1.4683
 8166TIP3    H248694   7.238   0.134   2.507 -0.6953  0.5163  1.9125
 8167TIP3   OH248695   4.171   6.146   3.168 -0.4128 -0.2549 -0.3261
 8167TIP3    H148696   4.151   6.169   3.077  1.4427 -0.8223 -0.9106
 8167TIP3    H248697   4.236   6.211   3.195  0.7385 -1.4205 -0.1840
 8168TIP3   OH248698   4.235   0.933   0.730 -0.0773  0.0701 -0.4697
 8168TIP3    H148699   4.216   0.856   0.784  0.1749  0.2478 -0.1203
 8168TIP3    H248700   4.189   1.005   0.773  0.4535  0.2878 -0.2588
 8169TIP3   OH248701   3.058   7.193   1.243  0.0785  0.4744 -0.1131
 8169TIP3    H148702   3.078   7.100   1.257 -1.1725  0.4891  2.4300
 8169TIP3    H248703   3.138   7.239   1.269  0.3904  0.1639 -0.5031
 8170TIP3   OH248704   3.739   2.262   3.038  0.6092  0.0149 -0.0734
 8170TIP3    H148705   3.650   2.267   3.074  0.5237 -0.8125 -0.1509
 8170TIP3    H248706   3.789   2.214   3.104  0.9129  0.1745 -0.1870
 8171TIP3   OH248707   6.353   2.607   2.015  0.1606  0.4737  0.1874
 8171TIP3    H148708   6.424   2.642   2.069  1.7800 -0.3566 -1.2957
 8171TIP3    H248709   6.331   2.678   1.955  0.3332  0.4518  0.0969
 8172TIP3   OH248710   2.049   7.110   2.130  0.0027 -0.0530  0.1268
 8172TIP3    H148711   1.954   7.102   2.133  0.0125 -1.6980 -1.5469
 8172TIP3    H248712   2.079   7.073   2.214 -0.8290  1.5395  1.1632
 8173TIP3   OH248713   2.105   0.400   1.105  0.0329  0.0797  0.8369
 8173TIP3    H148714   2.057   0.319   1.089 -0.7741  0.9159 -1.3048
 8173TIP3    H248715   2.171   0.403   1.036 -0.9917  1.9747 -0.1314
 8174TIP3   OH248716   2.012   3.549   1.126  0.3679 -0.4814 -0.3478
 8174TIP3    H148717   2.008   3.454   1.110 -0.3769 -0.4886 -0.1755
 8174TIP3    H248718   1.964   3.587   1.052  0.0679 -0.2876 -0.0570
 8175TIP3   OH248719   7.567   7.042   1.453  0.0731  0.1854  0.4711
 8175TIP3    H148720   7.508   7.117   1.448  0.0169  0.0813 -0.6741
 8175TIP3    H248721   7.509   6.966   1.459  0.0107  0.0153 -1.4800
 8176TIP3   OH248722   1.036   4.709   2.073  0.1594 -0.5886 -0.6897
 8176TIP3    H148723   1.088   4.686   1.996  0.8119  0.1814 -0.5009
 8176TIP3    H248724   1.085   4.781   2.113 -0.7579 -0.2349 -0.1801
 8177TIP3   OH248725   5.292   2.559   3.038  0.0699  0.6134 -0.2531
 8177TIP3    H148726   5.294   2.485   3.100  1.0507 -1.1632 -2.2937
 8177TIP3    H248727   5.236   2.529   2.967  3.0868  0.3692 -2.7361
 8178TIP3   OH248728   3.346   1.560   1.128 -0.5851  0.7057 -0.0966
 8178TIP3    H148729   3.277   1.619   1.158  0.1959  2.0966 -0.9079
 8178TIP3    H248730   3.299   1.483   1.095 -1.5504  0.0836  2.5362
 8179TIP3   OH248731   4.710   2.496   1.970  0.5575  0.3299 -0.1960
 8179TIP3    H148732   4.694   2.407   2.001  1.1886  0.6753  1.2534
 8179TIP3    H248733   4.806   2.506   1.974  0.5893  0.7078 -1.4702
 8180TIP3   OH248734   6.129   0.287   1.943 -0.1172 -0.1046  0.2811
 8180TIP3    H148735   6.198   0.224   1.963  0.0803  0.7747  2.6477
 8180TIP3    H248736   6.120   0.339   2.023 -3.4993 -0.1510  0.0465
 8181TIP3   OH248737   2.579   1.275   0.630  0.0214  0.3208  0.1940
 8181TIP3    H148738   2.628   1.307   0.554 -1.1747  3.5818  0.6454
 8181TIP3    H248739   2.643   1.274   0.701  0.0360  2.3646  0.2670
 8182TIP3   OH248740   5.840   5.467   2.612 -0.3289  0.0922  0.3186
 8182TIP3    H148741   5.748   5.464   2.588  0.2816 -0.1627 -2.2973
 8182TIP3    H248742   5.885   5.490   2.531  1.8856  0.7526  1.6416
 8183TIP3   OH248743   6.080   7.265   0.882  0.1072  0.1071  0.1253
 8183TIP3    H148744   6.094   7.188   0.937  0.4959 -0.2040 -0.3987
 8183TIP3    H248745   6.000   7.244   0.833  0.2207  0.0365 -0.0273
 8184TIP3   OH248746   4.652   5.089   1.609  0.2528  0.4912 -0.1044
 8184TIP3    H148747   4.595   5.163   1.587 -1.2918 -0.1285  1.5216
 8184TIP3    H248748   4.696   5.117   1.690 -0.1480 -0.2263  0.3777
 8185TIP3   OH248749   0.749   3.320   2.040  0.6505 -0.6387 -0.4129
 8185TIP3    H148750   0.787   3.263   1.973  1.5222 -1.8793  1.0420
 8185TIP3    H248751   0.715   3.395   1.992  1.9004 -1.1178 -2.1531
 8186TIP3   OH248752   3.538   0.931   2.066 -0.7217  0.0241 -0.6841
 8186TIP3    H148753   3.490   0.957   1.987 -1.5321 -3.9459 -1.7114
 8186TIP3    H248754   3.507   0.843   2.085  0.2914  0.3340  3.4971
 8187TIP3   OH248755   3.157   2.060   0.610 -0.6701  0.2003  0.0192
 8187TIP3    H148756   3.231   2.088   0.663 -1.6324 -1.0262  2.1287
 8187TIP3    H248757   3.105   2.139   0.597  0.4006  0.8432 -0.5616
 8188TIP3   OH248758   3.132   0.530   1.402  0.1237  0.3443  0.0533
 8188TIP3    H148759   3.179   0.451   1.375  1.3183  1.5866 -1.6689
 8188TIP3    H248760   3.180   0.562   1.478  1.4591  0.9917 -1.0290
 8189TIP3   OH248761   6.962   4.387   0.632  0.3222  0.0848  0.0711
 8189TIP3    H148762   7.000   4.299   0.627 -0.3395 -0.3140  1.5178
 8189TIP3    H248763   6.885   4.377   0.687 -0.0983  1.4786 -0.2217
 8190TIP3   OH248764   5.888   3.638   0.879 -0.5094  0.2908  0.0614
 8190TIP3    H148765   5.906   3.580   0.953 -1.2956 -0.1033 -0.0390
 8190TIP3    H248766   5.900   3.726   0.914  2.4224  0.0878 -0.2392
 8191TIP3   OH248767   4.411   2.424   1.200 -0.5236 -0.0723  0.0063
 8191TIP3    H148768   4.430   2.452   1.290 -0.8710  0.4965 -0.0961
 8191TIP3    H248769   4.349   2.352   1.211  0.2525 -0.7301  0.2603
 8192TIP3   OH248770   3.660   3.337   0.716  0.6308  0.2774  0.0603
 8192TIP3    H148771   3.572   3.368   0.737  0.0891  1.1311 -3.0388
 8192TIP3    H248772   3.646   3.250   0.678  0.6807  1.6130 -3.2698
 8193TIP3   OH248773   1.856   0.594   2.092 -0.2359 -0.0740  0.2529
 8193TIP3    H148774   1.843   0.587   2.187 -1.2968  0.5040  0.1646
 8193TIP3    H248775   1.822   0.511   2.058 -1.0792  0.2578  0.2728
 8194TIP3   OH248776   3.016   4.290   1.505  0.3947  0.1536 -0.2888
 8194TIP3    H148777   3.099   4.335   1.494 -0.0115  0.9802 -0.0386
 8194TIP3    H248778   2.957   4.332   1.442  0.0663 -0.1897 -0.2199
 8195TIP3   OH248779   3.431   3.795   3.670  0.7267  0.4222  0.2716
 8195TIP3    H148780   3.468   3.876   3.706  3.1216 -0.9480  1.0675
 8195TIP3    H248781   3.339   3.798   3.696  0.9817  2.4131  1.1401
 8196TIP3   OH248782   3.529   3.739   2.961  0.3681 -0.4850  0.3830
 8196TIP3    H148783   3.559   3.824   2.991 -1.1810 -0.3661  1.7709
 8196TIP3    H248784   3.565   3.677   3.024  2.2665 -1.0452 -1.1370
 8197TIP3   OH248785   2.185   6.259   2.506 -0.4802  0.5070 -0.1970
 8197TIP3    H148786   2.243   6.195   2.463 -0.3124  0.2228  0.4309
 8197TIP3    H248787   2.218   6.263   2.597 -1.2432  0.5923  0.0786
 8198TIP3   OH248788   2.202   6.967   0.889 -0.3576  0.1491  0.4159
 8198TIP3    H148789   2.296   6.953   0.878 -0.0293  1.3353  1.4570
 8198TIP3    H248790   2.166   6.962   0.801  1.1193  2.6744 -0.4182
 8199TIP3   OH248791   7.128   7.138   1.404  1.1101  0.0858  0.2747
 8199TIP3    H148792   7.151   7.054   1.364 -0.0760 -0.9516  1.6301
 8199TIP3    H248793   7.104   7.194   1.330 -0.4009 -1.5500 -0.5652
 8200TIP3   OH248794   5.844   0.111   2.092 -0.3492  0.1241  0.1152
 8200TIP3    H148795   5.880   0.140   2.008  0.5117 -0.1801  0.3671
 8200TIP3    H248796   5.832   0.017   2.082 -0.6261  0.1493  0.2015
 8201TIP3   OH248797   0.279   4.568   1.836  0.0244  0.6216 -0.1347
 8201TIP3    H148798   0.213   4.634   1.855  0.8825  1.2531  0.7589
 8201TIP3    H248799   0.363   4.614   1.844  0.6376 -0.5075  0.2636
 8202TIP3   OH248800   7.374   0.614   1.371 -0.5248  1.0318 -0.2194
 8202TIP3    H148801   7.373   0.554   1.446  1.0137  2.2905  0.8763
 8202TIP3    H248802   7.404   0.561   1.298  0.2256  0.3115  0.5906
 8203TIP3   OH248803   5.600   5.764   2.014 -0.4721 -0.0628 -0.5850
 8203TIP3    H148804   5.507   5.776   1.994 -0.4949  1.6522  0.3777
 8203TIP3    H248805   5.631   5.852   2.036  0.7228 -1.0020  1.7821
 8204TIP3   OH248806   4.544   3.110   1.315 -0.1542  0.4460 -0.0503
 8204TIP3    H148807   4.456   3.079   1.295  0.2130  0.0725 -1.1641
 8204TIP3    H248808   4.599   3.032   1.309  0.1639  0.5269  1.3764
 8205TIP3   OH248809   0.158   3.848   0.530  0.2554  0.2086  0.1023
 8205TIP3    H148810   0.192   3.925   0.576 -0.3633  0.2532  0.4914
 8205TIP3    H248811   0.111   3.799   0.596  0.2042 -0.2437 -0.2643
 8206TIP3   OH248812   4.235   1.985   2.588 -0.3485 -0.8636 -0.1957
 8206TIP3    H148813   4.226   1.909   2.644 -0.4810 -1.2999 -0.7979
 8206TIP3    H248814   4.146   2.004   2.558 -0.2437 -0.7986 -0.4710
 8207TIP3   OH248815   0.181   0.806   1.278 -0.0723 -0.6384 -0.3327
 8207TIP3    H148816   0.188   0.825   1.184 -2.5212  0.0543 -0.4326
 8207TIP3    H248817   0.148   0.716   1.281  0.5543 -0.8645 -0.1061
 8208TIP3   OH248818   6.653   5.899   2.441 -0.3671  0.1696  0.3014
 8208TIP3    H148819   6.576   5.896   2.384  0.1692 -0.2837 -0.4176
 8208TIP3    H248820   6.621   5.940   2.522 -1.1637  0.7384 -0.2782
 8209TIP3   OH248821   7.317   7.531   1.352 -0.0501  0.4765 -0.2583
 8209TIP3    H148822   7.382   7.583   1.305  0.9812 -0.7282 -0.2466
 8209TIP3    H248823   7.233   7.571   1.330  0.5299  0.9246 -1.8470
 8210TIP3   OH248824   2.772   2.236   1.707  0.9757 -0.2060 -0.0046
 8210TIP3    H148825   2.696   2.274   1.663 -0.1745 -1.9146  0.4134
 8210TIP3    H248826   2.827   2.311   1.729 -1.5781  1.3406  1.5655
 8211TIP3   OH248827   5.088   6.429   1.918 -0.6465 -0.1334  0.3090
 8211TIP3    H148828   5.176   6.430   1.956 -0.5860 -0.0099  0.1661
 8211TIP3    H248829   5.093   6.489   1.844 -1.1187  0.6563  0.8997
 8212TIP3   OH248830   6.480   5.681   2.234  0.0246  0.0004  0.1891
 8212TIP3    H148831   6.458   5.627   2.311 -0.8737  1.0913  0.7212
 8212TIP3    H248832   6.559   5.640   2.199  1.3369  0.3212  2.5466
 8213TIP3   OH248833   4.902   6.106   2.663  0.0597 -0.1476 -0.5269
 8213TIP3    H148834   4.935   6.118   2.752  0.7000  1.3571 -0.9254
 8213TIP3    H248835   4.949   6.172   2.612 -1.8971  0.4981 -1.5762
 8214TIP3   OH248836   2.771   5.538   2.796 -0.4968 -0.1456  0.0914
 8214TIP3    H148837   2.851   5.551   2.744  0.1682  1.5820  1.4724
 8214TIP3    H248838   2.777   5.447   2.825  1.7827  0.3290  1.3857
 8215TIP3   OH248839   6.531   2.813   1.685 -0.0522  0.3048 -0.1208
 8215TIP3    H148840   6.463   2.879   1.673  0.3310  0.6075 -0.6982
 8215TIP3    H248841   6.559   2.792   1.596 -0.2941 -0.7745  0.0389
 8216TIP3   OH248842   0.300   1.457   2.000 -0.0680 -0.1526 -0.0666
 8216TIP3    H148843   0.234   1.511   1.957 -0.9232 -0.0286  1.3203
 8216TIP3    H248844   0.380   1.472   1.950 -0.7905  0.7322 -0.9923
 8217TIP3   OH248845   2.718   6.809   1.560  0.3423 -0.0728  0.0032
 8217TIP3    H148846   2.774   6.759   1.620 -0.3731 -2.9624 -1.5959
 8217TIP3    H248847   2.771   6.886   1.538  1.2423  0.3392  3.0353
 8218TIP3   OH248848   3.448   3.153   3.339  0.4036 -0.2088  0.6257
 8218TIP3    H148849   3.471   3.082   3.279 -2.0507 -2.0217  1.6504
 8218TIP3    H248850   3.463   3.115   3.426 -0.4362  0.7263  1.1876
 8219TIP3   OH248851   7.607   3.615   1.929  0.0156  0.4229 -0.0189
 8219TIP3    H148852   7.579   3.699   1.891 -0.8051  0.6156  0.9777
 8219TIP3    H248853   7.529   3.582   1.974 -0.3258 -1.9015 -2.0910
 8220TIP3   OH248854   0.199   6.628   1.318  0.0792 -0.1805  0.1576
 8220TIP3    H148855   0.255   6.705   1.311  0.3209 -0.3423  0.2809
 8220TIP3    H248856   0.183   6.619   1.412 -1.4831  0.8077  0.0205
 8221TIP3   OH248857   5.359   4.875   2.725 -0.1296 -0.4544  0.2540
 8221TIP3    H148858   5.442   4.923   2.737 -0.1756 -0.1216 -0.7174
 8221TIP3    H248859   5.386   4.791   2.689 -0.1368 -0.7813  0.9867
 8222TIP3   OH248860   0.061   3.503   0.712 -0.1811  0.1927  0.4825
 8222TIP3    H148861   0.074   3.529   0.621 -0.0013  1.0810  0.7471
 8222TIP3    H248862  -0.032   3.522   0.729 -0.2162  0.0213  0.4788
 8223TIP3   OH248863   7.297   5.282   2.029  0.1733  0.4428  0.0255
 8223TIP3    H148864   7.386   5.312   2.012  0.2687  1.5113  2.1070
 8223TIP3    H248865   7.306   5.188   2.043  0.4020 -0.1017 -3.0647
 8224TIP3   OH248866   2.471   7.394   1.070 -0.1400  0.4397  0.1803
 8224TIP3    H148867   2.481   7.315   1.017 -0.2063 -0.8045  1.9372
 8224TIP3    H248868   2.429   7.457   1.011  0.5612 -0.5826 -1.4830
 8225TIP3   OH248869   2.157   3.108   0.418  0.3628  0.4660  0.3133
 8225TIP3    H148870   2.175   3.016   0.398  1.5664  0.7681 -0.0765
 8225TIP3    H248871   2.221   3.130   0.486 -0.1253  0.9299  0.6212
 8226TIP3   OH248872   0.597   0.818   2.006 -0.0454  0.0138  0.1250
 8226TIP3    H148873   0.523   0.875   1.986 -0.7933 -0.3582  1.7261
 8226TIP3    H248874   0.628   0.789   1.920  0.3855  2.8081 -0.7723
 8227TIP3   OH248875   4.869   1.267   0.746 -0.1560  0.2163 -0.3696
 8227TIP3    H148876   4.900   1.332   0.683  0.4152 -1.0557 -1.4464
 8227TIP3    H248877   4.914   1.186   0.721 -3.0095 -1.3394 -0.9209
 8228TIP3   OH248878   7.189   6.101   0.469  0.2994 -0.3954  0.1502
 8228TIP3    H148879   7.274   6.113   0.512  0.9579 -1.8341 -0.7113
 8228TIP3    H248880   7.167   6.188   0.436 -0.1469  0.7680  3.1407
 8229TIP3   OH248881   1.978   4.377   1.968  0.4820 -0.2410  0.2485
 8229TIP3    H148882   1.915   4.447   1.982  1.0633  0.9326 -2.4027
 8229TIP3    H248883   1.925   4.303   1.939  0.2104  0.4346 -1.0251
 8230TIP3   OH248884   6.749   3.748   1.560  0.5882 -0.3954  0.2407
 8230TIP3    H148885   6.824   3.710   1.606 -0.7955 -1.6415  1.5689
 8230TIP3    H248886   6.741   3.697   1.480 -0.1440 -1.7671  1.1511
 8231TIP3   OH248887   6.782   3.839   2.518  0.3425  0.3960 -0.0419
 8231TIP3    H148888   6.745   3.866   2.602  0.2656  0.2787 -0.0370
 8231TIP3    H248889   6.707   3.806   2.468  0.2092  1.4032 -0.5451
 8232TIP3   OH248890   3.072   6.963   0.642  0.0485  0.2537  0.1455
 8232TIP3    H148891   3.039   7.052   0.626  1.0045  1.0539  2.2936
 8232TIP3    H248892   2.995   6.907   0.631 -0.5482  1.2904 -1.3755
 8233TIP3   OH248893   0.731   6.339   1.828  0.4221 -0.2142  0.6642
 8233TIP3    H148894   0.739   6.251   1.793  0.7424 -0.1393  0.5478
 8233TIP3    H248895   0.750   6.329   1.922  0.2832 -0.2953  0.6848
 8234TIP3   OH248896   1.003   0.592   2.458 -0.0017 -0.5837 -0.1256
 8234TIP3    H148897   1.071   0.538   2.500 -0.0393 -0.2897  0.3136
 8234TIP3    H248898   0.921   0.545   2.476 -0.0323 -0.3944  0.2433
 8235TIP3   OH248899   5.023   4.875   2.818  0.1593 -0.1109 -0.3677
 8235TIP3    H148900   4.929   4.867   2.829 -0.0203  2.6706  0.9902
 8235TIP3    H248901   5.060   4.840   2.899  0.5372 -2.9782 -1.6411
 8236TIP3   OH248902   1.489   2.703   2.741 -0.2044  0.4734  0.3353
 8236TIP3    H148903   1.411   2.649   2.757  0.5819 -0.8375 -0.1118
 8236TIP3    H248904   1.511   2.685   2.649  1.0798  0.2149  0.6823
 8237TIP3   OH248905   7.651   7.421   2.536  0.3273  0.0379  0.2449
 8237TIP3    H148906   7.587   7.437   2.467  0.7267 -0.1199 -0.1693
 8237TIP3    H248907   7.694   7.339   2.510  0.2950 -0.1629  0.8212
 8238TIP3   OH248908   6.805   1.240   1.123  0.0559 -0.0741 -0.2710
 8238TIP3    H148909   6.710   1.241   1.125  0.0300 -0.9792  1.8076
 8238TIP3    H248910   6.827   1.207   1.036 -1.4226  2.1860 -1.5930
 8239TIP3   OH248911   5.871   1.275   1.043  0.7521  0.2738  0.2296
 8239TIP3    H148912   5.879   1.193   1.091  0.1575  0.4617  0.6622
 8239TIP3    H248913   5.795   1.318   1.082  1.1726  1.1154  0.1445
 8240TIP3   OH248914   6.412   4.748   2.843  0.3272 -0.2877 -0.0894
 8240TIP3    H148915   6.504   4.758   2.865  0.3093 -1.5543  0.6975
 8240TIP3    H248916   6.370   4.826   2.878  1.1243  0.4379 -0.7077
 8241TIP3   OH248917   1.030   1.140   0.844  0.3559 -0.0117  0.2647
 8241TIP3    H148918   0.937   1.161   0.845  0.5934  1.1751 -0.7202
 8241TIP3    H248919   1.040   1.078   0.772  0.3347 -0.1245  0.3584
 8242TIP3   OH248920   5.293   1.902   0.708  0.0498  0.2051  0.7845
 8242TIP3    H148921   5.235   1.829   0.687  0.2521 -0.2791  1.8064
 8242TIP3    H248922   5.238   1.980   0.701 -0.0954 -0.0081 -0.5968
 8243TIP3   OH248923   6.615   3.725   1.798  0.2381 -0.0931 -0.5628
 8243TIP3    H148924   6.639   3.753   1.710  1.7557  3.1412  0.7209
 8243TIP3    H248925   6.542   3.782   1.822  2.7892  2.5059  1.7977
 8244TIP3   OH248926   4.432   2.930   1.862 -0.0736  0.0357  0.4340
 8244TIP3    H148927   4.415   2.987   1.936  0.4373 -0.0961  0.6588
 8244TIP3    H248928   4.393   2.846   1.886  0.2742 -0.0677  0.6499
 8245TIP3   OH248929   5.196   3.255   1.742  0.0074  0.2858 -0.0530
 8245TIP3    H148930   5.188   3.350   1.756  0.5739  0.1331  1.4318
 8245TIP3    H248931   5.139   3.238   1.666 -1.7831  1.4902  0.9207
 8246TIP3   OH248932   1.736   4.039   1.612 -0.1633  0.1916  0.3279
 8246TIP3    H148933   1.679   4.033   1.535 -0.0694  0.9913  0.1966
 8246TIP3    H248934   1.824   4.024   1.578 -0.0815  0.9004  0.2175
 8247TIP3   OH248935   6.687   1.147   3.156 -0.5670 -0.6270 -0.0745
 8247TIP3    H148936   6.623   1.127   3.224 -0.1609 -0.3853  0.3913
 8247TIP3    H248937   6.637   1.189   3.086 -0.9409 -0.6151  0.1995
 8248TIP3   OH248938   1.999   4.387   2.415 -0.4382  0.3690  0.3583
 8248TIP3    H148939   1.931   4.425   2.358 -2.0844 -0.6101  1.5825
 8248TIP3    H248940   1.968   4.403   2.504  1.1274  0.1806  0.9682
 8249TIP3   OH248941   7.678   1.856   1.673  0.0254 -0.1038  0.2834
 8249TIP3    H148942   7.693   1.844   1.767  2.0083  1.2875  0.2260
 8249TIP3    H248943   7.753   1.908   1.644  0.6521 -2.3806 -2.5370
 8250TIP3   OH248944   4.315   5.261   1.153 -0.1026 -0.3414  0.4580
 8250TIP3    H148945   4.219   5.268   1.146 -0.1456 -1.0020  0.3930
 8250TIP3    H248946   4.330   5.183   1.205  0.4178 -0.5873 -0.0488
 8251TIP3   OH248947   7.041   2.435   2.053 -0.0502  0.2939  0.2909
 8251TIP3    H148948   7.031   2.466   1.963 -1.3843 -2.0081 -0.4507
 8251TIP3    H248949   7.013   2.508   2.107 -2.0748  0.8020 -1.2911
 8252TIP3   OH248950   4.188   2.315   2.693 -0.2815 -0.3859  0.3631
 8252TIP3    H148951   4.160   2.274   2.612 -0.0414 -1.6662  0.9024
 8252TIP3    H248952   4.274   2.277   2.711  0.2985  0.9148  0.5160
 8253TIP3   OH248953   1.561   3.952   3.017  0.1285 -0.4163  0.1344
 8253TIP3    H148954   1.611   4.004   2.955 -0.1427  0.1730  0.4022
 8253TIP3    H248955   1.592   3.980   3.103 -2.4581  1.9382  0.4482
 8254TIP3   OH248956   3.058   5.859   1.692 -0.0619 -0.0021  0.1536
 8254TIP3    H148957   3.064   5.951   1.666 -1.1762  0.0778  0.1517
 8254TIP3    H248958   3.142   5.842   1.735  0.2782  0.9273 -0.1022
 8255TIP3   OH248959   3.437   5.139   0.989 -0.0045  0.1212 -0.4180
 8255TIP3    H148960   3.435   5.194   0.911 -0.4228 -0.3865 -0.7749
 8255TIP3    H248961   3.390   5.190   1.055 -1.1659 -0.1636 -0.9950
 8256TIP3   OH248962   0.706   1.495   2.196  0.5889  0.0356  0.2386
 8256TIP3    H148963   0.655   1.566   2.159 -0.6247 -0.6944  0.4461
 8256TIP3    H248964   0.784   1.489   2.141 -0.5387 -0.1676 -1.3991
 8257TIP3   OH248965   1.169   7.290   2.858  0.2709  0.1205 -0.1380
 8257TIP3    H148966   1.205   7.261   2.941 -2.0455  0.5965  1.1115
 8257TIP3    H248967   1.233   7.261   2.792  2.1791 -0.2186  1.7757
 8258TIP3   OH248968   4.133   0.438   2.932 -0.1899  0.4973 -0.1230
 8258TIP3    H148969   4.128   0.533   2.926 -0.4456  0.5235  0.4857
 8258TIP3    H248970   4.058   0.407   2.881  0.8349  0.5632 -1.7406
 8259TIP3   OH248971   5.833   5.133   1.688  0.9988 -0.1509  0.3143
 8259TIP3    H148972   5.917   5.171   1.663  0.5426 -0.0224 -1.1259
 8259TIP3    H248973   5.778   5.145   1.611 -0.5309  0.3028  1.4381
 8260TIP3   OH248974   2.999   5.565   2.649  0.0358 -0.3908  0.0354
 8260TIP3    H148975   3.023   5.542   2.559  0.3436 -0.3529  0.1064
 8260TIP3    H248976   3.083   5.577   2.693 -0.0865  1.5517 -0.1673
 8261TIP3   OH248977   5.808   1.038   3.022 -0.0445  0.2857 -0.3870
 8261TIP3    H148978   5.841   1.097   2.954  0.6200 -1.3942 -1.5828
 8261TIP3    H248979   5.871   0.967   3.026 -1.5363 -1.0928 -0.0027
 8262TIP3   OH248980   1.685   5.448   2.235  0.6213  0.1509 -0.1587
 8262TIP3    H148981   1.721   5.360   2.225  0.6090  0.2096 -0.8090
 8262TIP3    H248982   1.624   5.441   2.308 -0.8383 -0.8794 -1.4012
 8263TIP3   OH248983   5.478   4.470   1.613 -0.0336 -0.3556 -0.2700
 8263TIP3    H148984   5.442   4.530   1.678  1.7900  0.0362  0.4259
 8263TIP3    H248985   5.485   4.386   1.658 -1.4180 -0.8205 -0.8663
 8264TIP3   OH248986   0.468   0.737   1.282  0.7505  0.1278  0.7020
 8264TIP3    H148987   0.375   0.722   1.300  0.1006  1.5742 -1.0940
 8264TIP3    H248988   0.490   0.815   1.333  0.2755  1.2457 -0.7558
 8265TIP3   OH248989   7.571   2.206   1.172  0.0447  0.0383  0.1125
 8265TIP3    H148990   7.590   2.150   1.097  3.5477 -0.0305  0.8934
 8265TIP3    H248991   7.618   2.287   1.153 -0.1950  0.5484  1.5945
 8266TIP3   OH248992   0.263   6.842   0.877  0.2631 -0.1000  0.5011
 8266TIP3    H148993   0.218   6.762   0.849 -0.2505  0.2724  0.2506
 8266TIP3    H248994   0.227   6.860   0.964  0.9667 -0.5801  0.9005
 8267TIP3   OH248995   4.780   6.189   2.191 -0.3847  0.2907  0.0169
 8267TIP3    H148996   4.722   6.201   2.267 -0.9660  2.2157 -0.6822
 8267TIP3    H248997   4.739   6.240   2.121 -0.0993 -1.7897 -1.7697
 8268TIP3   OH248998   2.969   4.985   1.141 -0.3339 -0.8096  0.5220
 8268TIP3    H148999   2.914   4.907   1.144 -0.3600 -0.9396 -1.5740
 8268TIP3    H249000   3.058   4.951   1.140 -0.3457 -0.8605 -0.4140
 8269TIP3   OH249001   7.061   3.926   3.356 -0.0699  0.1187 -0.8220
 8269TIP3    H149002   6.972   3.891   3.346 -0.0892 -0.1856  0.2214
 8269TIP3    H249003   7.113   3.849   3.379  0.6412  0.1468 -2.2822
 8270TIP3   OH249004   0.293   3.421   1.406  0.3830  0.2689 -0.2738
 8270TIP3    H149005   0.245   3.374   1.475 -0.2792  0.9200 -0.2792
 8270TIP3    H249006   0.267   3.377   1.325  2.7183 -1.8261  0.0097
 8271TIP3   OH249007   1.647   3.168   0.623  0.5398  0.1232  0.5630
 8271TIP3    H149008   1.644   3.086   0.575 -1.5633  0.4031  0.0834
 8271TIP3    H249009   1.688   3.230   0.563  0.0922 -0.0857  0.0247
 8272TIP3   OH249010   1.154   6.529   0.994  0.2465 -0.1601  0.3586
 8272TIP3    H149011   1.230   6.475   1.018 -0.4275 -0.0967  3.0177
 8272TIP3    H249012   1.079   6.478   1.023 -0.5833  0.7943 -0.0646
 8273TIP3   OH249013   0.359   4.429   0.730  0.2987  0.4560  0.3838
 8273TIP3    H149014   0.410   4.379   0.793 -1.3926 -2.0501 -0.0755
 8273TIP3    H249015   0.273   4.439   0.772 -0.9518 -1.4930 -1.4724
 8274TIP3   OH249016   3.540   2.845   1.020  0.5018 -0.1121 -0.5117
 8274TIP3    H149017   3.562   2.759   0.982  1.4461  0.3725 -1.1123
 8274TIP3    H249018   3.576   2.908   0.958 -0.3682  0.7305 -0.1770
 8275TIP3   OH249019   6.229   2.128   0.829 -0.6584  0.1167  0.8210
 8275TIP3    H149020   6.291   2.198   0.849 -1.2143  0.4585  1.3800
 8275TIP3    H249021   6.161   2.136   0.896 -0.1180 -1.7290  1.6575
 8276TIP3   OH249022   6.157   1.066   3.019 -0.0682 -0.1364  0.2010
 8276TIP3    H149023   6.208   1.143   3.044  0.5716 -0.3613 -0.3900
 8276TIP3    H249024   6.098   1.052   3.093  1.2087 -0.2982  1.2147
 8277TIP3   OH249025   6.070   6.875   0.708 -0.1422 -0.1651  0.1222
 8277TIP3    H149026   6.140   6.933   0.677 -0.4972  1.2193  1.7401
 8277TIP3    H249027   6.022   6.851   0.629  0.5597  1.0421 -0.7069
 8278TIP3   OH249028   1.156   7.522   2.604  0.4019 -0.9444  0.0790
 8278TIP3    H149029   1.221   7.453   2.596 -1.0386 -2.6096  1.7642
 8278TIP3    H249030   1.082   7.480   2.648 -1.0785  1.3408 -0.0600
 8279TIP3   OH249031   5.744   0.507   0.695 -0.0549 -0.3535 -0.0004
 8279TIP3    H149032   5.813   0.500   0.629 -0.5615  0.8169 -0.6944
 8279TIP3    H249033   5.673   0.554   0.651 -1.0698 -1.0237  0.8733
 8280TIP3   OH249034   6.009   0.591   1.450  0.1727  0.2757 -0.0195
 8280TIP3    H149035   6.056   0.563   1.528 -0.0899 -0.1206  0.0028
 8280TIP3    H249036   6.012   0.687   1.453  1.0352  0.2575 -0.0654
 8281TIP3   OH249037   3.244   2.427   2.418 -0.0018  0.3212 -0.4134
 8281TIP3    H149038   3.285   2.395   2.498 -0.1041  2.0996  0.3984
 8281TIP3    H249039   3.151   2.434   2.439  0.0104  1.0817 -0.5550
 8282TIP3   OH249040   7.043   5.179   1.947  0.5493  0.3531 -0.2653
 8282TIP3    H149041   7.086   5.122   1.883  0.3298  0.3443 -0.4064
 8282TIP3    H249042   7.014   5.255   1.897  0.1532  0.2303 -0.2268
 8283TIP3   OH249043   1.701   3.922   2.570 -0.2855  0.6206  0.0049
 8283TIP3    H149044   1.647   3.993   2.534  0.1881  0.1365 -1.7523
 8283TIP3    H249045   1.726   3.870   2.494 -0.3656 -1.2771  1.2080
 8284TIP3   OH249046   5.822   3.916   1.403  0.3305  0.2250  0.1023
 8284TIP3    H149047   5.818   3.930   1.498  2.8661  0.3986  0.2353
 8284TIP3    H249048   5.902   3.960   1.375 -0.3842  0.2182 -2.1608
 8285TIP3   OH249049   2.169   3.755   1.914  0.1589 -0.1249 -0.3945
 8285TIP3    H149050   2.145   3.776   2.005 -0.8901  0.8148 -0.8673
 8285TIP3    H249051   2.262   3.733   1.918  0.0764 -0.3301  0.9447
 8286TIP3   OH249052   6.286   5.204   1.548  0.6283  0.0732  0.1876
 8286TIP3    H149053   6.255   5.230   1.634 -1.0378 -0.4867 -0.2120
 8286TIP3    H249054   6.255   5.272   1.489  0.4410 -0.3255 -0.1813
 8287TIP3   OH249055   4.703   5.877   1.505  0.0786  1.2088  0.1407
 8287TIP3    H149056   4.750   5.878   1.588 -0.5505  0.4295  0.5229
 8287TIP3    H249057   4.755   5.933   1.447  1.7943 -0.0375  0.3738
 8288TIP3   OH249058   1.917   2.638   1.082 -0.0409  0.0164  0.0409
 8288TIP3    H149059   1.975   2.697   1.032  0.5591 -1.7287 -1.4689
 8288TIP3    H249060   1.865   2.594   1.015 -1.3005 -0.3289  1.2125
 8289TIP3   OH249061   6.761   2.024   1.355  0.1445 -0.0002  0.2457
 8289TIP3    H149062   6.824   1.967   1.400  1.7848  0.4403 -1.3592
 8289TIP3    H249063   6.699   1.963   1.314  0.0280 -0.4799  1.1076
 8290TIP3   OH249064   3.704   2.018   2.105 -0.2357 -0.1917 -0.1324
 8290TIP3    H149065   3.679   2.055   2.020 -2.4904  0.0483  0.5672
 8290TIP3    H249066   3.653   2.068   2.168  2.4918  0.6581  1.5616
 8291TIP3   OH249067   4.805   1.310   1.651  0.0873  0.4436 -0.2449
 8291TIP3    H149068   4.795   1.249   1.724  0.9846  1.7128  1.0091
 8291TIP3    H249069   4.719   1.352   1.643 -0.5189 -0.8828 -1.0827
 8292TIP3   OH249070   1.320   0.863   2.329 -0.1454  0.3459 -0.0547
 8292TIP3    H149071   1.391   0.826   2.380 -2.2365 -0.0993  2.7870
 8292TIP3    H249072   1.270   0.915   2.391 -2.9156 -0.2301 -1.6263
 8293TIP3   OH249073   6.937   3.129   0.809  0.0577  0.6209  0.1293
 8293TIP3    H149074   6.945   3.171   0.724 -1.3566  0.2315 -0.2133
 8293TIP3    H249075   6.879   3.054   0.794 -0.0935  0.4645  1.3948
 8294TIP3   OH249076   4.737   6.486   2.799 -0.6412 -0.0924  0.0838
 8294TIP3    H149077   4.822   6.499   2.757 -1.3544 -0.4261 -1.5488
 8294TIP3    H249078   4.732   6.553   2.866  0.9473 -0.1299  0.2646
 8295TIP3   OH249079   4.555   0.531   1.666 -0.6361  0.3623  0.5309
 8295TIP3    H149080   4.554   0.546   1.572 -1.0219 -0.6967  0.3546
 8295TIP3    H249081   4.622   0.591   1.699  0.9122 -0.6236 -0.6607
 8296TIP3   OH249082   1.843   6.304   1.910  0.5769  0.1816 -0.1364
 8296TIP3    H149083   1.780   6.344   1.850  0.0499 -0.9317 -0.3505
 8296TIP3    H249084   1.897   6.247   1.855 -0.2078 -1.2039  0.4755
 8297TIP3   OH249085   4.488   6.067   1.588  0.6290  0.0687  0.3404
 8297TIP3    H149086   4.544   5.991   1.572 -1.6502 -1.8419  0.8558
 8297TIP3    H249087   4.464   6.060   1.680 -0.5625  0.7308  0.0953
 8298TIP3   OH249088   0.310   4.406   2.902 -0.1463 -0.2037  0.3252
 8298TIP3    H149089   0.255   4.336   2.868 -0.2844 -0.0329  0.1936
 8298TIP3    H249090   0.372   4.362   2.961  1.7439 -0.8973 -2.0158
 8299TIP3   OH249091   4.371   4.853   0.974 -0.4467 -0.0812 -0.1983
 8299TIP3    H149092   4.320   4.891   0.902 -0.4129  0.7126  0.1850
 8299TIP3    H249093   4.441   4.916   0.988 -1.3170  0.5606  1.5322
 8300TIP3   OH249094   4.560   6.072   0.681 -0.2569 -0.0997  0.2058
 8300TIP3    H149095   4.507   5.995   0.662  1.6921 -1.4890  0.0833
 8300TIP3    H249096   4.591   6.103   0.596  1.0504 -0.7719  0.4150
 8301TIP3   OH249097   3.652   2.246   1.344  0.6722 -0.6221  0.1163
 8301TIP3    H149098   3.560   2.220   1.350  0.6042 -0.2054  1.2338
 8301TIP3    H249099   3.701   2.165   1.357  0.4837 -0.9974 -1.3484
 8302TIP3   OH249100   0.053   1.347   2.636  0.6725 -0.5951  0.0074
 8302TIP3    H149101   0.090   1.435   2.631  0.1390 -0.4329 -1.3172
 8302TIP3    H249102   0.079   1.315   2.723  0.4824  1.0275  0.6803
 8303TIP3   OH249103   1.185   0.297   1.213 -0.1254 -0.1933  0.1330
 8303TIP3    H149104   1.177   0.219   1.159  0.7108 -0.0474 -0.2072
 8303TIP3    H249105   1.156   0.269   1.300 -3.5879  0.0763 -0.7658
 8304TIP3   OH249106   4.719   5.632   2.825  0.0960  0.1034 -0.5184
 8304TIP3    H149107   4.653   5.663   2.763  0.9169  1.6428 -0.6840
 8304TIP3    H249108   4.777   5.708   2.837  0.3703 -0.3934  1.5773
 8305TIP3   OH249109   3.265   0.795   2.731  0.6193 -0.8075  0.2401
 8305TIP3    H149110   3.242   0.867   2.672  1.7449 -0.7901 -0.1974
 8305TIP3    H249111   3.256   0.832   2.819 -0.2585 -0.5889  0.0662
 8306TIP3   OH249112   0.379   6.149   2.389 -0.0086  0.1017  0.0095
 8306TIP3    H149113   0.301   6.201   2.410  1.3869  1.9679  0.9013
 8306TIP3    H249114   0.415   6.123   2.474  0.4176 -0.6248 -0.3807
 8307TIP3   OH249115   6.675   3.806   2.070 -0.5581  0.2671 -0.2105
 8307TIP3    H149116   6.639   3.788   1.983 -0.2954 -1.0073 -0.0805
 8307TIP3    H249117   6.616   3.870   2.108 -1.8428 -0.6595 -0.5739
 8308TIP3   OH249118   2.037   2.872   0.580  0.7291  0.2452 -0.1305
 8308TIP3    H149119   2.006   2.796   0.629  2.5740  0.2642  1.1543
 8308TIP3    H249120   2.023   2.849   0.488 -2.1835 -0.0734  0.2911
 8309TIP3   OH249121   1.898   2.622   3.797  0.2056 -0.5668 -0.4302
 8309TIP3    H149122   1.803   2.617   3.789  0.0928 -1.1077  0.9189
 8309TIP3    H249123   1.931   2.609   3.708 -0.9853  0.1405 -0.9987
 8310TIP3   OH249124   6.988   4.052   2.502 -0.5268 -0.1999 -0.4934
 8310TIP3    H149125   6.918   3.990   2.482 -1.1293  0.1327  0.5210
 8310TIP3    H249126   6.994   4.052   2.597  0.4448  0.2277 -0.5442
 8311TIP3   OH249127   1.145   5.151   1.171  0.5682 -0.0724  0.3835
 8311TIP3    H149128   1.142   5.055   1.178  0.6504 -0.0715  0.4214
 8311TIP3    H249129   1.084   5.181   1.238  1.1865 -0.0724  0.9558
 8312TIP3   OH249130   6.279   6.163   1.027  0.4535  0.8678 -0.5210
 8312TIP3    H149131   6.292   6.151   0.932 -1.1507  1.3197 -0.8340
 8312TIP3    H249132   6.367   6.162   1.063  1.0924  0.3655 -1.9842
 8313TIP3   OH249133   6.343   5.268   2.423  0.2978 -0.2234  0.4469
 8313TIP3    H149134   6.279   5.223   2.479 -0.6086  0.3995 -0.0586
 8313TIP3    H249135   6.355   5.208   2.349 -2.5980  1.1864 -1.3614
 8314TIP3   OH249136   2.284   1.801   2.150  0.4469  0.2896 -0.6418
 8314TIP3    H149137   2.193   1.773   2.146  0.3567  0.4486  0.1206
 8314TIP3    H249138   2.292   1.843   2.236  1.8768 -1.9080  0.3811
 8315TIP3   OH249139   3.707   4.518   1.597  0.5117  0.3539  0.3760
 8315TIP3    H149140   3.759   4.505   1.518 -1.3948  0.0852 -0.8958
 8315TIP3    H249141   3.700   4.431   1.636 -0.9950 -0.0605 -0.7826
 8316TIP3   OH249142   2.744   2.960   1.575  0.6572  0.1511  0.3565
 8316TIP3    H149143   2.796   3.028   1.533  0.7231  0.0293  0.2410
 8316TIP3    H249144   2.697   2.918   1.503  0.7424 -0.0331  0.4081
 8317TIP3   OH249145   2.637   4.095   1.334 -0.2378  0.2131  0.3299
 8317TIP3    H149146   2.668   4.007   1.311 -0.8824 -0.1326  0.7573
 8317TIP3    H249147   2.541   4.087   1.334 -0.3187  1.0660 -0.2055
 8318TIP3   OH249148   1.181   5.037   3.182  0.2702 -0.0930 -0.6630
 8318TIP3    H149149   1.234   5.042   3.102 -1.7162  0.1552 -2.0528
 8318TIP3    H249150   1.168   5.128   3.208  1.8359 -0.2081  0.6445
 8319TIP3   OH249151   1.128   0.867   1.730  0.1301 -0.4239  0.4467
 8319TIP3    H149152   1.102   0.847   1.641  1.9867  2.3431 -0.8450
 8319TIP3    H249153   1.049   0.854   1.782 -1.8651  0.8423 -2.0994
 8320TIP3   OH249154   5.648   2.438   1.426  0.9657 -0.9384  0.3687
 8320TIP3    H149155   5.679   2.387   1.351 -0.4946 -1.1281 -0.1404
 8320TIP3    H249156   5.624   2.372   1.490  0.0727 -0.8656  0.1173
 8321TIP3   OH249157   2.350   0.246   1.227  0.2794  0.2052 -0.1933
 8321TIP3    H149158   2.270   0.266   1.178  0.8904  1.9217 -0.5880
 8321TIP3    H249159   2.333   0.162   1.268 -1.9944  0.8411  0.3002
 8322TIP3   OH249160   3.189   3.104   1.284 -0.5632 -0.1598  0.7893
 8322TIP3    H149161   3.266   3.081   1.336  1.8339  0.3014 -2.2319
 8322TIP3    H249162   3.225   3.156   1.211 -3.3846 -1.8410 -2.0523
 8323TIP3   OH249163   2.231   3.451   1.355 -0.0997 -0.0759 -0.1080
 8323TIP3    H149164   2.287   3.393   1.407 -0.3686 -2.2875 -2.1284
 8323TIP3    H249165   2.153   3.400   1.336 -0.7076  1.2266 -1.3322
 8324TIP3   OH249166   2.829   1.546   1.319  0.2047  0.3189 -0.2099
 8324TIP3    H149167   2.869   1.533   1.405  1.8436 -1.6353 -1.1839
 8324TIP3    H249168   2.770   1.471   1.308  1.1193 -0.2633 -1.3423
 8325TIP3   OH249169   2.745   2.642   1.073 -0.2641 -0.4602  0.0983
 8325TIP3    H149170   2.669   2.591   1.101  0.6786 -0.5871  2.7281
 8325TIP3    H249171   2.796   2.581   1.020  0.2374 -1.9754  2.1873
 8326TIP3   OH249172   5.501   0.692   0.548 -0.0037 -0.1596 -0.2413
 8326TIP3    H149173   5.516   0.769   0.602  0.3672  0.2495 -0.9112
 8326TIP3    H249174   5.498   0.725   0.458 -0.2834 -0.8647 -0.5008
 8327TIP3   OH249175   1.330   3.466   1.687 -0.0085  0.0622  0.2672
 8327TIP3    H149176   1.329   3.392   1.748  1.2309 -0.2819 -0.1128
 8327TIP3    H249177   1.238   3.477   1.662 -0.4356 -0.2809  1.5930
 8328TIP3   OH249178   0.883   6.843   3.144 -0.6465  0.4453 -0.0488
 8328TIP3    H149179   0.948   6.897   3.101  0.9725 -0.5165  1.0566
 8328TIP3    H249180   0.877   6.879   3.233  0.7823 -1.3248  0.8433
 8329TIP3   OH249181   7.373   3.210   2.416 -0.0935  0.1461  0.1270
 8329TIP3    H149182   7.451   3.160   2.391 -0.5712 -1.1457  1.1061
 8329TIP3    H249183   7.347   3.255   2.335  1.9127  0.9929 -0.1146
 8330TIP3   OH249184   7.407   3.028   2.075  0.3859 -0.1148 -0.2002
 8330TIP3    H149185   7.436   3.005   2.163  1.3192  0.2787 -0.3908
 8330TIP3    H249186   7.334   3.089   2.089  0.7202  0.1810  0.3116
 8331TIP3   OH249187   7.419   6.135   0.641  0.3667  0.2199  0.1360
 8331TIP3    H149188   7.391   6.134   0.732 -0.9461  0.6986 -0.2347
 8331TIP3    H249189   7.469   6.216   0.632  1.7832 -0.5628  0.7715
 8332TIP3   OH249190   4.572   6.133   1.330 -0.2196 -0.8828  0.2981
 8332TIP3    H149191   4.553   6.154   1.421 -1.8580  0.6722 -0.3330
 8332TIP3    H249192   4.573   6.037   1.326  1.4758 -1.0101  2.2018
 8333TIP3   OH249193   6.817   2.832   2.794 -0.1346  0.0527  0.1278
 8333TIP3    H149194   6.756   2.772   2.837 -1.9801  1.5445 -0.3236
 8333TIP3    H249195   6.885   2.848   2.860  0.0096 -1.8912  0.5180
 8334TIP3   OH249196   3.158   3.619   0.751  0.1291 -0.0470 -0.0971
 8334TIP3    H149197   3.072   3.594   0.785  0.0173  1.7911  1.0839
 8334TIP3    H249198   3.140   3.651   0.662 -0.3956  0.1636  0.0820
 8335TIP3   OH249199   1.892   2.467   2.203  0.6824 -0.0437 -0.1799
 8335TIP3    H149200   1.839   2.511   2.270  0.1581  0.0034 -0.6151
 8335TIP3    H249201   1.843   2.387   2.183  0.4797  0.2759 -0.9958
 8336TIP3   OH249202   6.246   3.222   7.050  0.7049  0.8792  0.1518
 8336TIP3    H149203   6.264   3.128   7.040 -0.6549  0.4753  1.2550
 8336TIP3    H249204   6.324   3.265   7.015  0.4629 -0.5844 -2.4411
 8337TIP3   OH249205   5.703   0.196   1.508  0.2315  0.2364 -0.2310
 8337TIP3    H149206   5.651   0.140   1.566 -0.4892  0.4529 -0.6545
 8337TIP3    H249207   5.638   0.243   1.455  0.8116  1.5900  0.2073
 8338TIP3   OH249208   0.176   5.657   0.953  0.2825 -0.4149 -0.0601
 8338TIP3    H149209   0.231   5.727   0.918  1.7931 -1.5960 -0.1565
 8338TIP3    H249210   0.103   5.650   0.890  1.9295 -1.2153 -1.9909
 8339TIP3   OH249211   3.547   7.260   2.756 -0.0778  0.6908  0.8089
 8339TIP3    H149212   3.498   7.221   2.828  1.5410 -0.2521  1.4472
 8339TIP3    H249213   3.619   7.307   2.798  0.0651  1.3555 -0.1413
 8340TIP3   OH249214   3.270   7.409   2.918 -0.4584  0.7396 -0.1853
 8340TIP3    H149215   3.305   7.461   2.991 -0.0620  1.4318 -0.8466
 8340TIP3    H249216   3.296   7.319   2.938 -0.9149  0.8224  0.8421
 8341TIP3   OH249217   1.611   3.228   2.511 -0.2655 -0.0153 -0.7015
 8341TIP3    H149218   1.581   3.240   2.421 -2.7458  1.6690  0.2275
 8341TIP3    H249219   1.541   3.177   2.553  1.1247 -1.2841  0.1667
 8342TIP3   OH249220   4.311   6.941   0.900 -0.2431  0.3903  0.0937
 8342TIP3    H149221   4.343   6.910   0.816 -0.8362  1.4076 -0.5183
 8342TIP3    H249222   4.274   6.862   0.941  1.4515 -0.4433  0.1067
 8343TIP3   OH249223   6.356   6.980   0.837  0.1219  0.1731  0.0409
 8343TIP3    H149224   6.412   6.923   0.784  3.1463  2.6740  0.3055
 8343TIP3    H249225   6.340   6.929   0.916  0.1287 -1.4702 -0.9639
 8344TIP3   OH249226   1.073   0.681   1.524  0.6353 -0.1239 -0.5505
 8344TIP3    H149227   1.079   0.624   1.601 -2.8989 -1.0677 -0.8042
 8344TIP3    H249228   1.103   0.626   1.451  0.2269 -0.5782 -0.3784
 8345TIP3   OH249229   1.963   0.177   0.875 -0.7940 -0.1545  0.5174
 8345TIP3    H149230   1.958   0.143   0.965 -0.3013 -1.0648  0.2108
 8345TIP3    H249231   1.994   0.103   0.823 -1.0109  0.3833 -0.4012
 8346TIP3   OH249232   2.099   1.508   3.172  0.0451  0.5041  0.3774
 8346TIP3    H149233   2.139   1.436   3.221 -0.6164 -0.6338 -0.6875
 8346TIP3    H249234   2.062   1.466   3.094  0.6797  2.1732 -0.8928
 8347TIP3   OH249235   2.440   1.364   2.235 -0.0853  0.0940  0.0748
 8347TIP3    H149236   2.407   1.278   2.209 -2.7901  1.4903 -1.5646
 8347TIP3    H249237   2.385   1.391   2.308  2.5298 -0.5706  2.4676
 8348TIP3   OH249238   2.459   6.159   8.388  0.1548 -0.1534  0.0141
 8348TIP3    H149239   2.541   6.203   8.366 -0.1676  1.1582  1.2345
 8348TIP3    H249240   2.459   6.157   8.484 -1.0745 -0.4402  0.0229
 8349TIP3   OH249241   6.841   4.284   3.087 -0.2449 -0.7602  0.3090
 8349TIP3    H149242   6.817   4.328   3.168  2.5102  1.2157  0.1955
 8349TIP3    H249243   6.912   4.225   3.112  2.7854  2.0638 -0.9269
 8350TIP3   OH249244   5.214   7.592   1.176  0.0871  0.6552 -0.0551
 8350TIP3    H149245   5.282   7.623   1.235 -1.3146  3.5533  0.1994
 8350TIP3    H249246   5.236   7.632   1.091  1.7451 -2.9725 -1.5883
 8351TIP3   OH249247   1.672   2.322   1.076  0.2406 -0.1668 -0.2078
 8351TIP3    H149248   1.605   2.271   1.032  1.2574 -1.8684  0.1384
 8351TIP3    H249249   1.649   2.317   1.169  0.2495  0.1927 -0.1813
 8352TIP3   OH249250   1.076   3.495   1.591 -0.0042  0.2695 -0.1823
 8352TIP3    H149251   1.075   3.567   1.528 -1.5359  1.1464  0.7822
 8352TIP3    H249252   1.024   3.527   1.665 -2.8010 -2.6322 -0.6924
 8353TIP3   OH249253   0.980   7.176   1.547  0.4740  0.3518  0.5230
 8353TIP3    H149254   0.944   7.159   1.634  1.3349 -1.6315  0.5217
 8353TIP3    H249255   0.913   7.144   1.486  0.9359 -0.5424  0.4849
 8354TIP3   OH249256   6.563   7.385   2.341 -0.0169 -0.5019  0.0841
 8354TIP3    H149257   6.500   7.450   2.310 -0.0529 -0.8128 -0.5175
 8354TIP3    H249258   6.594   7.342   2.261 -0.2278 -1.4384  0.4957
 8355TIP3   OH249259   2.330   4.552   2.646  0.3909 -0.0106 -0.0718
 8355TIP3    H149260   2.304   4.601   2.723 -0.6299 -1.7132  0.7130
 8355TIP3    H249261   2.300   4.606   2.572 -0.3176  0.7374  0.7396
 8356TIP3   OH249262   6.344   3.812   1.694  0.1242  0.0781 -0.1001
 8356TIP3    H149263   6.320   3.811   1.786 -0.9551 -2.2027 -0.3205
 8356TIP3    H249264   6.260   3.812   1.647  0.5978 -0.8819 -1.0085
 8357TIP3   OH249265   0.377   0.943   1.732  0.8039  0.0506  0.1102
 8357TIP3    H149266   0.329   0.962   1.813  0.2166 -1.5937  0.1764
 8357TIP3    H249267   0.311   0.951   1.663  1.0674  0.4310 -0.1013
 8358TIP3   OH249268   4.513   1.836   2.780 -0.1954 -0.2791  0.5031
 8358TIP3    H149269   4.420   1.817   2.771 -0.1471 -0.7925  0.9756
 8358TIP3    H249270   4.517   1.919   2.828 -0.4118  0.8710 -1.3766
 8359TIP3   OH249271   3.975   1.694   0.604  0.2563 -0.3693  0.2765
 8359TIP3    H149272   3.964   1.599   0.617  0.9274 -0.3505  1.0795
 8359TIP3    H249273   4.067   1.710   0.622  0.0821  0.4862  0.4601
 8360TIP3   OH249274   0.172   1.159   1.883  0.1267  0.0345  0.2534
 8360TIP3    H149275   0.155   1.134   1.792  0.6516 -1.0217  0.4225
 8360TIP3    H249276   0.098   1.122   1.932  0.2809 -0.1388  0.3564
 8361TIP3   OH249277   7.490   5.848   1.950  1.1720 -0.2597 -0.9564
 8361TIP3    H149278   7.540   5.798   2.015 -1.8679  0.9964  2.6960
 8361TIP3    H249279   7.446   5.781   1.897  0.9065 -1.4427  0.6972
 8362TIP3   OH249280   1.043   7.644   1.914 -0.0351  0.4077 -0.4309
 8362TIP3    H149281   1.031   7.568   1.857 -0.2862  0.6996 -0.7753
 8362TIP3    H249282   0.970   7.703   1.891  0.9192  1.3526 -1.1513
 8363TIP3   OH249283   5.267   0.978   1.670 -0.2304 -0.4546  0.1714
 8363TIP3    H149284   5.186   0.947   1.630 -2.5282  2.3064  2.3318
 8363TIP3    H249285   5.273   0.932   1.754  0.4992 -0.6527  0.0242
 8364TIP3   OH249286   0.163   4.868   0.616  0.0038 -0.6860 -0.0352
 8364TIP3    H149287   0.203   4.786   0.587 -0.8992 -0.9038 -0.7040
 8364TIP3    H249288   0.069   4.854   0.605 -0.2859 -0.2373  1.6564
 8365TIP3   OH249289   2.129   3.212   1.611  0.4216  0.7163  0.3407
 8365TIP3    H149290   2.066   3.261   1.664 -0.6068  0.6308 -0.7687
 8365TIP3    H249291   2.212   3.224   1.656 -0.1604  1.8590  1.1617
 8366TIP3   OH249292   7.489   1.446   2.466  0.1426  0.0953 -0.4391
 8366TIP3    H149293   7.526   1.532   2.486 -0.0722  0.3617 -1.1460
 8366TIP3    H249294   7.556   1.383   2.494 -0.3118  0.4038  1.5021
 8367TIP3   OH249295   1.698   5.140   3.318  0.7594  0.0082 -0.4083
 8367TIP3    H149296   1.632   5.192   3.271 -0.9615 -2.7731 -1.3524
 8367TIP3    H249297   1.665   5.136   3.408  1.4997  1.3851 -0.0485
 8368TIP3   OH249298   1.627   1.393   0.987  0.0261  0.1679  0.9730
 8368TIP3    H149299   1.634   1.298   0.981 -1.2154  0.0833  0.7332
 8368TIP3    H249300   1.640   1.424   0.898 -0.3377  0.1670  0.9188
 8369TIP3   OH249301   1.343   5.012   2.016  0.8846  0.2805  0.0512
 8369TIP3    H149302   1.293   5.007   2.097  0.4489 -0.1238 -0.2403
 8369TIP3    H249303   1.387   5.097   2.021 -1.0353  1.3633 -0.3903
 8370TIP3   OH249304   3.034   2.667   1.864  0.1009  0.0717  1.0784
 8370TIP3    H149305   2.961   2.643   1.921 -1.1686 -1.3709 -0.9951
 8370TIP3    H249306   3.007   2.750   1.824  0.4861  0.5145  1.7245
 8371TIP3   OH249307   6.741   6.521   0.831  0.1112 -0.0699 -0.1828
 8371TIP3    H149308   6.762   6.454   0.765  0.2807 -1.2152  0.9893
 8371TIP3    H249309   6.748   6.475   0.914  0.9697  1.6038  0.7182
 8372TIP3   OH249310   2.725   2.862   2.043  0.1254  0.2621  0.7293
 8372TIP3    H149311   2.704   2.947   2.080  1.3736  0.4501  1.0668
 8372TIP3    H249312   2.804   2.835   2.090  0.7928 -0.2515 -0.6391
 8373TIP3   OH249313   1.698   4.286   2.530 -0.0125  0.6824  0.2294
 8373TIP3    H149314   1.738   4.323   2.608 -0.3950  2.0775 -0.2094
 8373TIP3    H249315   1.729   4.341   2.458  1.0296 -1.0785 -0.7675
 8374TIP3   OH249316   0.309   7.040   3.432 -0.1496 -0.2456 -0.5053
 8374TIP3    H149317   0.345   6.952   3.422 -1.1667 -0.7946  0.4122
 8374TIP3    H249318   0.250   7.050   3.358 -2.1435 -1.4719  0.7865
 8375TIP3   OH249319   3.838   2.757   1.983 -0.1976 -0.1969 -0.6959
 8375TIP3    H149320   3.783   2.792   1.913  0.0233  0.9999 -0.3013
 8375TIP3    H249321   3.924   2.744   1.942  1.0743  4.0740  0.0572
 8376TIP3   OH249322   6.422   4.294   2.418  0.1478 -0.3310 -0.0425
 8376TIP3    H149323   6.488   4.336   2.474  2.1672 -3.2355  0.0278
 8376TIP3    H249324   6.418   4.348   2.340  2.9605 -0.1838 -0.1850
 8377TIP3   OH249325   0.435   4.433   2.290 -0.2489 -0.0111  0.0250
 8377TIP3    H149326   0.378   4.463   2.219 -2.1074  2.1190  2.2154
 8377TIP3    H249327   0.384   4.367   2.336 -0.4923  1.0237  1.2911
 8378TIP3   OH249328   5.302   7.040   1.171  0.0071  0.6308 -0.4614
 8378TIP3    H149329   5.312   6.946   1.184 -0.5109  0.6044 -0.2230
 8378TIP3    H249330   5.208   7.053   1.158 -0.0600  1.2257  0.4960
 8379TIP3   OH249331   0.336   0.562   2.061  0.1021  0.2562 -0.1327
 8379TIP3    H149332   0.340   0.487   2.121  0.4611  0.5549  0.2205
 8379TIP3    H249333   0.414   0.552   2.006 -0.9429 -0.7839 -1.4841
 8380TIP3   OH249334   3.071   1.826   0.548  0.2377 -0.3419  0.0257
 8380TIP3    H149335   3.100   1.784   0.629 -0.7745  0.4188  0.8107
 8380TIP3    H249336   3.098   1.917   0.556  0.1338 -0.2573 -0.4942
 8381TIP3   OH249337   0.638   0.305   3.235 -0.6245  0.0911  0.4875
 8381TIP3    H149338   0.567   0.247   3.260 -1.0633  1.0278  1.5048
 8381TIP3    H249339   0.679   0.330   3.317  0.0259  0.6229  0.0131
 8382TIP3   OH249340   2.427   7.232   1.516  0.6726 -0.0942 -0.6481
 8382TIP3    H149341   2.345   7.280   1.520 -0.9502 -2.3668 -3.4750
 8382TIP3    H249342   2.487   7.291   1.470  0.5694  1.3949  1.0220
 8383TIP3   OH249343   6.024   3.672   1.263 -0.2872 -0.0231  0.2102
 8383TIP3    H149344   6.066   3.631   1.187  1.1213  0.5348  0.6635
 8383TIP3    H249345   6.001   3.599   1.321  0.0357 -0.3357 -0.0517
 8384TIP3   OH249346   1.604   3.596   2.801 -0.1977 -0.5758  0.0498
 8384TIP3    H149347   1.582   3.563   2.714  1.6601 -1.3786 -0.1711
 8384TIP3    H249348   1.684   3.647   2.788  0.2474 -0.8977  1.3177
 8385TIP3   OH249349   3.181   4.499   1.390  0.1379 -0.1816 -0.0061
 8385TIP3    H149350   3.252   4.493   1.454  1.2404  1.9022 -0.9200
 8385TIP3    H249351   3.223   4.482   1.306 -0.1381  2.0604 -0.6739
 8386TIP3   OH249352   1.917   7.530   2.260 -0.1031  0.5001 -0.2716
 8386TIP3    H149353   1.987   7.474   2.227 -0.1799 -0.2336  0.7428
 8386TIP3    H249354   1.945   7.552   2.349 -0.8242  0.7949 -0.1151
 8387TIP3   OH249355   1.081   2.022   0.340 -0.1130 -0.1794 -0.3202
 8387TIP3    H149356   1.006   1.962   0.341  0.4520 -0.8973 -0.1120
 8387TIP3    H249357   1.054   2.095   0.395 -0.8456 -0.2078 -0.6370
 8388TIP3   OH249358   6.205   5.254   3.476 -0.2471 -0.5772 -0.0278
 8388TIP3    H149359   6.288   5.208   3.485  1.4646  2.4646  1.0725
 8388TIP3    H249360   6.156   5.232   3.555  0.6763 -0.2519  0.6462
 8389TIP3   OH249361   6.573   7.262   2.108  0.2026 -0.3082  0.6842
 8389TIP3    H149362   6.504   7.300   2.054  0.5431  1.7489  1.6003
 8389TIP3    H249363   6.563   7.168   2.096 -1.8528 -0.0314 -0.3108
 8390TIP3   OH249364   1.553   2.697   2.238  0.1918 -0.1459  0.0624
 8390TIP3    H149365   1.621   2.707   2.304 -0.7905  1.3281  0.8979
 8390TIP3    H249366   1.529   2.787   2.215 -0.6009 -0.6402 -1.1348
 8391TIP3   OH249367   0.061   2.080   1.878  0.0610 -0.2250 -0.5310
 8391TIP3    H149368   0.104   2.145   1.933  2.0843 -1.1328 -0.9569
 8391TIP3    H249369   0.104   2.088   1.793 -1.1548 -0.6827 -1.2141
 8392TIP3   OH249370   3.152   6.606   0.857 -0.2208  0.5870  0.6631
 8392TIP3    H149371   3.209   6.638   0.787 -0.1141  0.1759  0.5585
 8392TIP3    H249372   3.182   6.516   0.874 -1.6663 -0.1060 -0.2833
 8393TIP3   OH249373   4.315   2.098   2.336 -0.3819 -0.0727 -0.0157
 8393TIP3    H149374   4.398   2.146   2.338  0.2292 -0.8373 -2.8239
 8393TIP3    H249375   4.314   2.050   2.419  2.1346 -0.2317  0.0206
 8394TIP3   OH249376   3.563   2.181   1.735  0.2671 -0.1360  0.0472
 8394TIP3    H149377   3.651   2.148   1.717 -0.0473 -0.5396 -0.8278
 8394TIP3    H249378   3.509   2.102   1.741 -0.0776  0.1201  0.3226
 8395TIP3   OH249379   5.952   1.128   0.790  0.0501 -0.4464 -0.5067
 8395TIP3    H149380   6.022   1.188   0.764 -1.0831  1.3680  0.4187
 8395TIP3    H249381   5.923   1.160   0.875 -0.8258 -2.1561 -0.1096
 8396TIP3   OH249382   1.913   5.276   0.348 -0.4840 -0.4152 -0.3701
 8396TIP3    H149383   1.897   5.367   0.324 -0.6689 -1.2611 -3.9923
 8396TIP3    H249384   1.983   5.280   0.413 -0.7172  2.2903 -0.1775
 8397TIP3   OH249385   5.315   0.870   1.916  0.2738 -0.9490 -0.2715
 8397TIP3    H149386   5.281   0.791   1.958  1.0028 -0.6999  0.8400
 8397TIP3    H249387   5.379   0.904   1.978 -0.2734  0.7107 -0.5604
 8398TIP3   OH249388   0.357   7.483   2.753  0.3375  0.3352  0.0375
 8398TIP3    H149389   0.354   7.438   2.837  0.6205  0.4837  0.1276
 8398TIP3    H249390   0.304   7.429   2.695  1.9506 -0.9823 -0.2643
 8399TIP3   OH249391   7.159   6.288   1.943 -0.1062  0.4476  0.2545
 8399TIP3    H149392   7.221   6.309   2.013  2.0904  0.0041 -1.4384
 8399TIP3    H249393   7.194   6.208   1.903  0.4864  2.2014 -3.1698
 8400TIP3   OH249394   1.250   6.802   2.985  0.1257 -0.5450  0.1708
 8400TIP3    H149395   1.337   6.843   2.986  0.7282 -1.7467 -0.3562
 8400TIP3    H249396   1.190   6.873   2.964  1.0513  0.2037  0.0035
 8401TIP3   OH249397   1.996   4.180   2.942 -0.1352 -0.5029  0.3602
 8401TIP3    H149398   2.046   4.153   3.019 -1.3187  0.6183  1.6010
 8401TIP3    H249399   2.055   4.237   2.893  0.6051 -1.1538  0.4727
 8402TIP3   OH249400   1.939   7.008   2.568  0.2534  0.3758  0.1054
 8402TIP3    H149401   1.953   7.093   2.610 -0.7494  0.4884  0.2200
 8402TIP3    H249402   1.937   6.946   2.640 -4.2278  0.8654  0.6693
 8403TIP3   OH249403   2.588   7.482   3.122  0.3417  0.0211  0.2159
 8403TIP3    H149404   2.620   7.400   3.161 -1.2102 -0.2487  1.0026
 8403TIP3    H249405   2.533   7.454   3.049 -0.9512  0.2778  1.0536
 8404TIP3   OH249406   7.384   6.361   2.095 -0.1711  0.6258  0.2145
 8404TIP3    H149407   7.470   6.343   2.058 -0.9687  1.1514 -2.0012
 8404TIP3    H249408   7.399   6.436   2.153  1.6942 -2.0943  3.6918
 8405TIP3   OH249409   0.917   4.437   3.818 -0.0724 -0.0943 -0.2416
 8405TIP3    H149410   0.934   4.492   3.741 -0.5624 -0.3217 -0.5163
 8405TIP3    H249411   0.918   4.348   3.784 -1.0005 -0.1564 -0.1125
 8406TIP3   OH249412   6.311   0.052   0.982  0.0455 -0.2184 -0.2359
 8406TIP3    H149413   6.276   0.079   1.067  0.8968 -0.2888  0.1398
 8406TIP3    H249414   6.283  -0.039   0.972  0.8030 -0.5265  0.4296
 8407TIP3   OH249415   5.976   2.497   0.663  0.0023  0.1849 -0.4430
 8407TIP3    H149416   6.052   2.506   0.721 -0.6803 -1.0366  0.6751
 8407TIP3    H249417   6.013   2.470   0.579  0.9939  1.8796 -0.5967
 8408TIP3   OH249418   5.774   1.107   1.479 -0.0179  0.3724 -0.2021
 8408TIP3    H149419   5.701   1.100   1.417  0.7116  1.1983 -1.2067
 8408TIP3    H249420   5.744   1.061   1.557 -0.6706 -1.4678 -1.4445
 8409TIP3   OH249421   0.212   4.559   2.178 -0.3783 -0.2695 -0.3921
 8409TIP3    H149422   0.256   4.636   2.139 -1.7048  1.0515  0.6041
 8409TIP3    H249423   0.165   4.594   2.254  0.0391 -2.3307  0.8825
 8410TIP3   OH249424   2.589   1.963   0.648  0.1982  0.8887  0.3129
 8410TIP3    H149425   2.608   2.051   0.617 -1.5707  0.6466 -1.7210
 8410TIP3    H249426   2.494   1.957   0.648  0.2567 -1.3252 -0.6994
 8411TIP3   OH249427   3.894   7.088   2.786 -0.1260 -0.0352  0.4413
 8411TIP3    H149428   3.911   7.111   2.878  0.4077 -1.3741  0.7003
 8411TIP3    H249429   3.912   7.169   2.738 -0.3375  0.6724  1.5002
 8412TIP3   OH249430   1.112   1.421   0.915  0.2185 -0.3923 -0.0020
 8412TIP3    H149431   1.070   1.352   0.862  0.7954 -1.1631  0.5205
 8412TIP3    H249432   1.163   1.373   0.980 -1.2275  0.5121  1.9017
 8413TIP3   OH249433   3.472   7.255   2.477  0.0925  0.4967 -0.2884
 8413TIP3    H149434   3.377   7.258   2.466  0.1292  1.9522 -0.4337
 8413TIP3    H249435   3.488   7.284   2.567  0.3869 -0.2259 -0.0974
 8414TIP3   OH249436   1.529   7.519   3.452 -0.2183 -0.1269 -0.6182
 8414TIP3    H149437   1.536   7.425   3.433 -0.4620 -0.3944  0.5534
 8414TIP3    H249438   1.594   7.560   3.394  0.1424 -1.0474 -0.8853
 8415TIP3   OH249439   7.473   4.708   2.052 -0.2263  0.2586  0.3129
 8415TIP3    H149440   7.560   4.690   2.088  0.2333  1.0283 -0.3791
 8415TIP3    H249441   7.438   4.622   2.030  0.5408 -0.0335  0.2001
 8416TIP3   OH249442   3.703   4.289   3.109 -0.0440 -0.5164  0.4795
 8416TIP3    H149443   3.614   4.293   3.144 -0.3752 -0.6713 -0.3346
 8416TIP3    H249444   3.758   4.280   3.187 -0.5710  1.5384  1.1644
 8417TIP3   OH249445   6.588   0.064   0.869  0.5409  0.1749 -0.4747
 8417TIP3    H149446   6.517   0.092   0.927  1.4023 -0.3481  0.9074
 8417TIP3    H249447   6.666   0.105   0.906  1.3228 -1.2823 -0.4285
 8418TIP3   OH249448   6.688   2.631   2.981 -0.3631  0.2503  0.0905
 8418TIP3    H149449   6.754   2.584   3.032  0.5261  1.3651  0.0104
 8418TIP3    H249450   6.681   2.717   3.024 -1.5429  0.2648 -0.0943
 8419TIP3   OH249451   0.092   1.117   2.192 -0.6994  0.3403  0.0850
 8419TIP3    H149452   0.076   1.128   2.285 -0.7075  1.8973 -0.0754
 8419TIP3    H249453   0.162   1.052   2.187 -1.9557 -1.1589  1.0677
 8420TIP3   OH249454   2.027   7.134   1.751  0.6994 -0.3140  0.2543
 8420TIP3    H149455   2.012   7.168   1.663  0.5941 -0.3684  0.2503
 8420TIP3    H249456   1.960   7.176   1.805  0.7401 -0.3092  0.3016
 8421TIP3   OH249457   6.236   3.282   0.415 -0.3286  0.7144 -0.1588
 8421TIP3    H149458   6.174   3.328   0.358 -0.1181  1.1280 -0.0592
 8421TIP3    H249459   6.247   3.340   0.490 -2.4639 -0.8922  1.5259
 8422TIP3   OH249460   3.325   5.620   2.522 -0.1779  0.4190 -0.2060
 8422TIP3    H149461   3.349   5.591   2.610 -0.5031 -0.6433 -0.4532
 8422TIP3    H249462   3.406   5.614   2.472 -0.4811 -1.2360 -0.5439
 8423TIP3   OH249463   4.458   6.609   2.250 -0.3328 -0.3572  0.0432
 8423TIP3    H149464   4.439   6.545   2.318 -1.4648  1.1245  1.1947
 8423TIP3    H249465   4.542   6.648   2.276 -0.5065 -0.1607  0.3155
 8424TIP3   OH249466   1.708   0.463   2.973 -0.0687 -0.4283 -0.1435
 8424TIP3    H149467   1.776   0.404   2.939 -0.2050 -0.1844 -0.8524
 8424TIP3    H249468   1.649   0.477   2.899 -0.6569 -0.2927  0.3458
 8425TIP3   OH249469   0.796   5.872   3.426  0.5585 -0.2227 -0.6504
 8425TIP3    H149470   0.762   5.954   3.462  1.3452 -0.5648  0.9131
 8425TIP3    H249471   0.719   5.816   3.416  0.3191 -0.1222  0.5277
 8426TIP3   OH249472   1.006   4.606   2.857  0.1462 -0.0031 -0.2101
 8426TIP3    H149473   0.912   4.621   2.871  0.3758  0.0207  1.4862
 8426TIP3    H249474   1.047   4.691   2.875  0.6472 -0.4625  0.9151
 8427TIP3   OH249475   6.646   0.793   2.673 -0.1321  0.5657 -0.1547
 8427TIP3    H149476   6.630   0.774   2.581 -0.6754  0.5224 -0.0530
 8427TIP3    H249477   6.655   0.888   2.677  0.5587  0.5187 -0.3486
 8428TIP3   OH249478   7.561   0.684   3.139 -0.0436 -0.5674 -0.0222
 8428TIP3    H149479   7.586   0.746   3.207  2.1645 -1.8396  0.4116
 8428TIP3    H249480   7.470   0.660   3.161 -0.2672  1.0290  0.8956
 8429TIP3   OH249481   1.253   6.650   3.213  0.9397  0.3431  0.4473
 8429TIP3    H149482   1.257   6.690   3.126 -0.4433  0.8165  0.5726
 8429TIP3    H249483   1.247   6.556   3.196 -0.9830  0.5121 -0.0722
 8430TIP3   OH249484   0.619   2.761   0.725  0.8465 -0.0007  0.7097
 8430TIP3    H149485   0.527   2.734   0.728  0.8129  0.1399  1.0037
 8430TIP3    H249486   0.620   2.849   0.761  0.8658  0.6953 -0.9085
 8431TIP3   OH249487   5.717   1.877   1.511  0.5402 -0.7508  0.4109
 8431TIP3    H149488   5.707   1.911   1.422  0.4263  0.5571  0.8985
 8431TIP3    H249489   5.628   1.852   1.538  0.1248  1.2013  1.0257
 8432TIP3   OH249490   3.328   5.959   2.174  0.2669 -0.1991  1.0999
 8432TIP3    H149491   3.289   5.953   2.262  1.2693 -1.3420  1.5024
 8432TIP3    H249492   3.364   5.872   2.158 -0.4388 -0.1958 -0.7384
 8433TIP3   OH249493   2.823   6.001   3.005  0.1054  0.2456 -0.0575
 8433TIP3    H149494   2.794   5.935   3.068 -0.7732  0.4917 -0.1962
 8433TIP3    H249495   2.914   5.978   2.986 -0.4219 -1.3776 -0.6939
 8434TIP3   OH249496   5.427   5.330   3.406  0.4793  0.3567  0.0763
 8434TIP3    H149497   5.502   5.364   3.358  0.2025  1.2519  0.2518
 8434TIP3    H249498   5.356   5.391   3.385 -0.2097 -0.4829 -0.1029
 8435TIP3   OH249499   1.864   7.060   3.073 -0.0792 -0.1963  0.0486
 8435TIP3    H149500   1.889   6.968   3.071 -0.3883 -0.2749 -0.1815
 8435TIP3    H249501   1.933   7.105   3.025 -0.3698 -0.4127 -0.5779
 8436TIP3   OH249502   6.677   1.061   1.982 -0.1112 -0.4879  0.3033
 8436TIP3    H149503   6.636   1.122   2.043 -0.8833 -1.4018  0.7126
 8436TIP3    H249504   6.769   1.087   1.981 -0.0936 -0.3862  1.7934
 8437TIP3   OH249505   0.271   3.404   2.056  0.4075  0.0638  0.2636
 8437TIP3    H149506   0.206   3.415   2.125 -1.3768 -1.0366 -1.1652
 8437TIP3    H249507   0.224   3.420   1.975  1.6812 -1.5662 -0.8828
 8438TIP3   OH249508   6.851   2.829   1.687  0.2251  0.1176 -0.3031
 8438TIP3    H149509   6.905   2.839   1.608 -1.6277 -0.9654 -1.7783
 8438TIP3    H249510   6.763   2.854   1.659 -0.5999 -0.8944  1.2719
 8439TIP3   OH249511   6.759   5.987   1.086 -0.8163  0.7091 -0.2452
 8439TIP3    H149512   6.675   5.951   1.116 -0.1512 -1.2016 -0.5071
 8439TIP3    H249513   6.747   6.001   0.992 -0.8395  0.3607 -0.2982
 8440TIP3   OH249514   5.702   7.300   2.239  0.6082 -0.2591 -0.2795
 8440TIP3    H149515   5.725   7.264   2.153  0.0385 -1.3361  0.0022
 8440TIP3    H249516   5.751   7.246   2.301 -0.4492 -0.7264  0.1666
 8441TIP3   OH249517   5.619   4.685   2.080  0.2248  0.3427 -0.2075
 8441TIP3    H149518   5.560   4.755   2.106  1.1761  0.4198  1.9663
 8441TIP3    H249519   5.562   4.610   2.063 -0.6506  1.0885 -0.6273
 8442TIP3   OH249520   4.833   6.983   1.388  0.3794  0.2476 -0.2863
 8442TIP3    H149521   4.759   6.970   1.448  1.0520  1.0002  0.7442
 8442TIP3    H249522   4.797   7.032   1.315 -0.4042 -0.4588 -0.3853
 8443TIP3   OH249523   6.295   5.994   2.367 -0.3251 -0.2293 -0.3753
 8443TIP3    H149524   6.271   5.902   2.359  1.8655 -0.8737 -0.0599
 8443TIP3    H249525   6.311   6.023   2.277  1.0328 -0.7767 -0.3305
 8444TIP3   OH249526   0.753   0.217   2.066 -0.1124  0.3956  0.3365
 8444TIP3    H149527   0.685   0.152   2.082  1.4106 -1.6962 -1.0157
 8444TIP3    H249528   0.833   0.176   2.100  0.7401  2.0733  0.4385
 8445TIP3   OH249529   6.260   5.462   2.851 -0.0991  0.7326  0.1162
 8445TIP3    H149530   6.215   5.410   2.784 -2.8681  0.9788  1.6848
 8445TIP3    H249531   6.275   5.547   2.809  0.5975  0.0733 -1.0238
 8446TIP3   OH249532   5.050   3.472   2.562 -0.3541 -0.8646 -0.5018
 8446TIP3    H149533   5.138   3.437   2.549 -0.3948 -0.3821 -2.2585
 8446TIP3    H249534   4.992   3.402   2.535 -0.4960 -0.7610 -0.4660
 8447TIP3   OH249535   1.106   6.975   2.260  0.1559 -0.4186 -0.3176
 8447TIP3    H149536   1.119   6.916   2.334 -1.2172 -0.6317 -0.2279
 8447TIP3    H249537   1.129   7.062   2.295  1.8383 -0.8105 -0.3552
 8448TIP3   OH249538   6.673   5.945   2.094 -0.0968 -0.4829 -0.0367
 8448TIP3    H149539   6.719   6.025   2.121 -2.2021  0.5696  0.6474
 8448TIP3    H249540   6.726   5.874   2.130  1.3635  0.6129  0.0870
 8449TIP3   OH249541   6.793   2.142   2.179  0.2352 -0.1532  0.0269
 8449TIP3    H149542   6.841   2.168   2.258 -1.4003  1.1254  0.6297
 8449TIP3    H249543   6.788   2.221   2.126 -1.0030 -0.3246 -0.1307
 8450TIP3   OH249544   1.766   1.940   2.197 -0.4430 -0.1853  0.4446
 8450TIP3    H149545   1.751   1.884   2.121 -0.1836  1.0089 -0.5215
 8450TIP3    H249546   1.687   1.992   2.204  0.7727  2.0976 -1.1588
 8451TIP3   OH249547   7.137   4.790   1.685  0.0779  0.1966  0.1732
 8451TIP3    H149548   7.179   4.742   1.613  1.6951  1.1046  0.4635
 8451TIP3    H249549   7.044   4.772   1.674  0.3795 -0.5954 -1.4853
 8452TIP3   OH249550   0.951   7.250   3.212 -0.7140  0.3587  0.4238
 8452TIP3    H149551   0.953   7.293   3.297  1.5809  0.5847  0.3050
 8452TIP3    H249552   0.948   7.156   3.233  0.1630  0.4024  0.7689
 8453TIP3   OH249553   6.517   4.551   1.648  0.2455 -0.7099 -0.2585
 8453TIP3    H149554   6.525   4.643   1.626 -0.6679 -0.7359 -0.7596
 8453TIP3    H249555   6.569   4.540   1.727  1.0992  0.0437 -0.6995
 8454TIP3   OH249556   2.799   5.305   1.863  0.1186  0.1752  0.3060
 8454TIP3    H149557   2.758   5.218   1.864  0.0500  0.2023  2.0745
 8454TIP3    H249558   2.754   5.352   1.793 -0.2787 -1.0095 -0.2609
 8455TIP3   OH249559   0.298   5.046   1.797 -0.2355  0.3051 -0.0789
 8455TIP3    H149560   0.338   5.106   1.860 -0.4085  0.3304  0.0084
 8455TIP3    H249561   0.287   5.098   1.718  2.9383 -0.5681 -1.2371
 8456TIP3   OH249562   0.497   4.096   3.674 -0.3759  0.5409  0.1743
 8456TIP3    H149563   0.502   4.001   3.670  3.1409  0.6497 -1.8550
 8456TIP3    H249564   0.525   4.118   3.764  0.2651 -0.3137  0.1926
 8457TIP3   OH249565   1.359   0.373   2.036  0.5272  0.0920 -0.2255
 8457TIP3    H149566   1.401   0.440   1.982  1.2993  1.1064  1.5562
 8457TIP3    H249567   1.368   0.405   2.126  0.9533 -2.4308  0.7124
 8458TIP3   OH249568   2.540   4.277   1.761 -0.6124 -0.2932 -0.4089
 8458TIP3    H149569   2.489   4.239   1.690  0.7194 -1.2227 -0.9137
 8458TIP3    H249570   2.479   4.333   1.808 -1.5339  0.2996 -2.2511
 8459TIP3   OH249571   7.179   4.215   0.874  0.2714  0.0769  0.1857
 8459TIP3    H149572   7.112   4.230   0.941  1.6996 -0.0544  1.7097
 8459TIP3    H249573   7.235   4.292   0.879  0.4531  0.0223 -0.8365
 8460TIP3   OH249574   4.829   1.442   1.370 -0.5586  0.0784 -0.1047
 8460TIP3    H149575   4.818   1.534   1.394 -2.6052 -0.5802  1.8428
 8460TIP3    H249576   4.841   1.396   1.454  0.3142 -1.4699 -1.0142
 8461TIP3   OH249577   3.909   7.643   1.868  0.6542  0.3495  0.1154
 8461TIP3    H149578   3.876   7.578   1.930 -0.6177  0.5613 -0.3145
 8461TIP3    H249579   3.859   7.627   1.788  1.7175  0.5904 -0.6190
 8462TIP3   OH249580   5.888   3.354   2.688 -0.3465 -0.1791  0.1809
 8462TIP3    H149581   5.906   3.377   2.778 -0.1658  1.1886 -0.1845
 8462TIP3    H249582   5.818   3.414   2.661  3.3174  3.5378 -2.2520
 8463TIP3   OH249583   7.140   6.773   2.301  0.0694  0.0029  0.3461
 8463TIP3    H149584   7.185   6.691   2.323  1.8781  0.7170 -0.4619
 8463TIP3    H249585   7.061   6.773   2.355 -0.1418 -2.4035  0.1461
 8464TIP3   OH249586   4.877   2.309   2.680  0.3036 -0.3638  0.0539
 8464TIP3    H149587   4.880   2.269   2.766  0.4988  0.4629  0.4463
 8464TIP3    H249588   4.822   2.387   2.691  1.2567  0.3804 -0.2773
 8465TIP3   OH249589   6.206   4.565   1.807  0.5383 -0.3214 -0.1566
 8465TIP3    H149590   6.201   4.565   1.712 -0.2934 -0.3758 -0.1198
 8465TIP3    H249591   6.185   4.654   1.833  2.5632  0.1845 -0.0814
 8466TIP3   OH249592   1.661   3.172   1.167  0.0225  0.4024 -0.5097
 8466TIP3    H149593   1.600   3.154   1.239 -0.5581 -0.8811 -1.2860
 8466TIP3    H249594   1.624   3.126   1.092  3.0888 -2.5296 -0.4803
 8467TIP3   OH249595   7.637   4.955   3.044  0.0100  0.5231 -0.0430
 8467TIP3    H149596   7.692   5.028   3.074  0.7211 -0.3356  0.8204
 8467TIP3    H249597   7.597   4.921   3.124 -0.2512 -0.0832 -0.4289
 8468TIP3   OH249598   2.763   2.734   2.995 -0.3680  0.1136 -0.3908
 8468TIP3    H149599   2.842   2.681   2.981  0.1996  1.1101 -1.1298
 8468TIP3    H249600   2.756   2.787   2.916 -1.6246  0.2561 -0.1952
 8469TIP3   OH249601   3.397   6.738   1.239  0.3935 -0.4717 -0.2292
 8469TIP3    H149602   3.430   6.761   1.152 -0.1759  0.0853 -0.3108
 8469TIP3    H249603   3.324   6.679   1.222  2.3539 -3.1412  0.0088
 8470TIP3   OH249604   6.634   5.670   1.302 -0.1388 -0.9007 -0.0523
 8470TIP3    H149605   6.629   5.618   1.223  1.7813  2.1069 -2.3819
 8470TIP3    H249606   6.723   5.706   1.303 -0.1011 -0.6713  3.4568
 8471TIP3   OH249607   1.049   4.197   3.689  0.2748  0.5740 -0.0871
 8471TIP3    H149608   1.048   4.157   3.601  0.8631 -1.2123  0.6649
 8471TIP3    H249609   1.132   4.244   3.693  1.8280 -2.0272  0.5661
 8472TIP3   OH249610   7.020   0.479   2.209  0.2079 -0.0787  0.8258
 8472TIP3    H149611   6.999   0.439   2.124 -0.3519  0.9728  0.4522
 8472TIP3    H249612   7.075   0.414   2.253  1.8495  0.0179 -0.9798
 8473TIP3   OH249613   6.281   6.187   1.456 -0.2204  0.1380  0.2221
 8473TIP3    H149614   6.248   6.197   1.545 -0.8050 -1.0446  0.1523
 8473TIP3    H249615   6.210   6.218   1.400  0.2879  1.2407  0.1516
 8474TIP3   OH249616   1.367   4.656   1.437 -0.0749  0.0603 -0.1596
 8474TIP3    H149617   1.320   4.738   1.419  0.1234  0.3517  0.5719
 8474TIP3    H249618   1.352   4.601   1.360 -2.8573 -0.4457  0.6502
 8475TIP3   OH249619   1.479   3.391   1.971  0.2495 -0.3534 -0.0371
 8475TIP3    H149620   1.535   3.375   1.895  0.7740 -0.1022  0.2926
 8475TIP3    H249621   1.403   3.334   1.957 -0.5158  0.9829 -1.6406
 8476TIP3   OH249622   3.603   2.691   1.826 -0.1009  0.1094 -0.3159
 8476TIP3    H149623   3.546   2.722   1.756  0.2210 -1.4460 -1.3130
 8476TIP3    H249624   3.557   2.715   1.907 -1.7890 -0.3941 -1.0779
 8477TIP3   OH249625   0.247   0.852   1.015 -0.1630  0.3800 -0.1644
 8477TIP3    H149626   0.245   0.947   1.027 -2.0177  0.2655  0.9213
 8477TIP3    H249627   0.191   0.837   0.938  1.0065  0.2106 -1.0070
 8478TIP3   OH249628   7.162   7.454   0.965  0.2344 -0.2999  0.4112
 8478TIP3    H149629   7.215   7.531   0.943 -0.3237  0.2728  1.0143
 8478TIP3    H249630   7.075   7.490   0.985  0.1237 -1.0272  1.2992
 8479TIP3   OH249631   0.691   4.227   0.842 -0.2175 -0.0746  0.2661
 8479TIP3    H149632   0.666   4.151   0.895 -0.0130  0.0525  0.5494
 8479TIP3    H249633   0.787   4.224   0.841 -0.1007  1.3076  1.9758
 8480TIP3   OH249634   1.432   7.188   2.085  0.1412 -0.0010 -0.1436
 8480TIP3    H149635   1.363   7.251   2.063 -0.2639 -0.4306 -0.1154
 8480TIP3    H249636   1.463   7.215   2.171  0.0445  0.2217 -0.1787
 8481TIP3   OH249637   3.257   5.089   1.986 -0.2572  0.2186  0.3000
 8481TIP3    H149638   3.315   5.141   1.930 -2.8942  2.8321 -0.3038
 8481TIP3    H249639   3.206   5.036   1.925 -2.3913  2.2779  0.1308
 8482TIP3   OH249640   1.949   1.420   2.078  0.2450 -0.0475  0.0221
 8482TIP3    H149641   1.870   1.451   2.033  1.3822  2.5685 -0.3793
 8482TIP3    H249642   2.011   1.402   2.007  1.2670  1.8332  0.3611
 8483TIP3   OH249643   0.769   6.116   0.941  0.6440  0.2906  0.0641
 8483TIP3    H149644   0.694   6.083   0.891  0.2216  0.0190  0.8629
 8483TIP3    H249645   0.738   6.118   1.031  2.1584 -1.4430  0.6522
 8484TIP3   OH249646   5.237   5.370   1.320 -0.3072  0.1818 -0.1382
 8484TIP3    H149647   5.220   5.422   1.398  0.4922  0.9184 -0.4290
 8484TIP3    H249648   5.240   5.279   1.351 -1.7853  0.2826  0.3679
 8485TIP3   OH249649   1.238   2.033   2.062  0.0755 -0.3810  0.3009
 8485TIP3    H149650   1.214   2.001   2.149  0.1571 -1.1089  0.0632
 8485TIP3    H249651   1.184   2.111   2.049  1.5587  0.9959  1.8563
 8486TIP3   OH249652   2.403   0.247   1.747  0.1946 -0.8739  0.5403
 8486TIP3    H149653   2.363   0.318   1.697 -0.3810 -1.0687  0.7026
 8486TIP3    H249654   2.485   0.228   1.703  0.1132 -0.4435  0.2029
 8487TIP3   OH249655   0.301   0.246   0.838 -0.2036  0.3239  0.1492
 8487TIP3    H149656   0.329   0.271   0.750 -1.8075  0.3989 -0.3849
 8487TIP3    H249657   0.355   0.300   0.896 -1.0819  2.4728 -0.8857
 8488TIP3   OH249658   1.245   6.771   1.336 -0.1142  0.2857  0.5452
 8488TIP3    H149659   1.225   6.863   1.350  0.1613  0.1461  1.9259
 8488TIP3    H249660   1.205   6.751   1.251 -0.4424  1.5865  0.3753
 8489TIP3   OH249661   7.308   2.319   1.213 -0.6742 -0.4169 -0.7399
 8489TIP3    H149662   7.315   2.357   1.126  0.5934 -0.5183 -0.7005
 8489TIP3    H249663   7.382   2.259   1.219 -0.7484 -0.4145  0.4046
 8490TIP3   OH249664   0.756   2.753   1.272 -0.1858  0.2933 -0.0765
 8490TIP3    H149665   0.708   2.679   1.309  2.3728 -1.1871  0.5918
 8490TIP3    H249666   0.784   2.723   1.186  2.6053 -0.5080  0.9685
 8491TIP3   OH249667   5.746   3.296   0.578  0.2805  0.0105 -0.6174
 8491TIP3    H149668   5.666   3.276   0.530 -0.6622 -0.0152  0.9015
 8491TIP3    H249669   5.732   3.384   0.613  0.5683 -0.2970  0.3054
 8492TIP3   OH249670   6.769   7.521   1.256 -0.3422 -0.2640 -0.3176
 8492TIP3    H149671   6.744   7.554   1.170 -1.0670 -0.4860 -0.1954
 8492TIP3    H249672   6.860   7.492   1.244 -0.5378 -0.5914 -1.0911
 8493TIP3   OH249673   6.296   4.915   1.540  0.3110  0.1861 -0.7889
 8493TIP3    H149674   6.302   5.007   1.564  0.3088  0.2597 -1.0657
 8493TIP3    H249675   6.214   4.908   1.491 -0.7718 -0.3666  0.9964
 8494TIP3   OH249676   7.179   1.097   2.448 -0.4574  0.0158 -0.2783
 8494TIP3    H149677   7.229   1.135   2.520 -0.1583  0.3502 -0.6544
 8494TIP3    H249678   7.239   1.035   2.407 -1.2250 -1.5105  0.8452
 8495TIP3   OH249679   3.390   2.172   0.767 -0.0652  0.6726 -0.0954
 8495TIP3    H149680   3.460   2.230   0.739  0.3593  0.1344 -0.1684
 8495TIP3    H249681   3.432   2.086   0.777 -0.0036  0.9183  2.8032
 8496TIP3   OH249682   0.458   1.984   0.589  0.6907  0.3292 -0.1337
 8496TIP3    H149683   0.527   1.964   0.526  0.6410 -0.2140 -0.0189
 8496TIP3    H249684   0.504   2.029   0.660  1.1249 -0.9513  0.4257
 8497TIP3   OH249685   2.212   2.732   2.199 -0.2677  0.5118  0.1866
 8497TIP3    H149686   2.188   2.760   2.110  1.0573 -0.0835 -0.3885
 8497TIP3    H249687   2.263   2.804   2.235 -0.8338  0.7672  0.4842
 8498TIP3   OH249688   5.165   7.487   2.108 -0.0614  0.4069  0.1926
 8498TIP3    H149689   5.155   7.430   2.032 -1.2931  1.0600 -0.1635
 8498TIP3    H249690   5.260   7.493   2.121  0.1540 -3.2192  1.4308
 8499TIP3   OH249691   1.311   0.485   2.941 -0.6413 -0.2924  0.0074
 8499TIP3    H149692   1.312   0.445   3.028 -1.5306 -2.1121 -0.7708
 8499TIP3    H249693   1.393   0.459   2.901 -0.7284 -0.3953 -0.1038
 8500TIP3   OH249694   3.369   1.399   0.475 -0.4121  0.5193  0.1237
 8500TIP3    H149695   3.286   1.435   0.505 -0.7085 -0.6784  0.7985
 8500TIP3    H249696   3.435   1.457   0.514 -0.8716  0.2583  1.3411
 8501TIP3   OH249697   5.353   6.405   1.972  0.1504 -0.8263 -0.0923
 8501TIP3    H149698   5.379   6.313   1.966  0.0474 -0.8655  0.0713
 8501TIP3    H249699   5.431   6.453   1.944  0.9172 -0.8826  1.8161
 8502TIP3   OH249700   4.121   4.511   1.961  0.3406  0.0523 -0.0217
 8502TIP3    H149701   4.133   4.579   2.027  1.2048  0.7322 -0.8365
 8502TIP3    H249702   4.034   4.527   1.925  0.2373  0.2613  0.3172
 8503TIP3   OH249703   2.970   5.351   0.792 -0.1374  0.0123  0.1988
 8503TIP3    H149704   2.952   5.263   0.825 -0.2667  0.4401  1.3173
 8503TIP3    H249705   2.887   5.398   0.801 -0.0234  0.3062 -0.2326
 8504TIP3   OH249706   1.703   5.699   1.718  0.2813 -0.3136 -0.2925
 8504TIP3    H149707   1.672   5.706   1.808  1.6004 -2.8219  0.4625
 8504TIP3    H249708   1.739   5.786   1.698  0.2492  0.2059  1.7139
 8505TIP3   OH249709   4.114   6.290   2.316  0.0300  0.1572 -0.0817
 8505TIP3    H149710   4.141   6.351   2.384 -0.0678 -1.8475  1.8864
 8505TIP3    H249711   4.180   6.300   2.247  1.7002  0.4226  1.4702
 8506TIP3   OH249712   4.534   7.004   0.508 -0.3663 -0.4530 -0.3516
 8506TIP3    H149713   4.557   6.992   0.416 -0.9694  0.9101 -0.7120
 8506TIP3    H249714   4.608   7.052   0.546 -1.5376  2.0337 -0.9981
 8507TIP3   OH249715   3.286   0.577   1.640 -0.3252 -0.1792 -0.2004
 8507TIP3    H149716   3.273   0.541   1.728 -1.9952 -0.4238 -0.5118
 8507TIP3    H249717   3.324   0.505   1.590  2.1790  0.4275  0.6437
 8508TIP3   OH249718   3.251   6.014   1.486  0.5663  0.5130  0.5022
 8508TIP3    H149719   3.267   5.921   1.468 -2.3031 -0.1176  0.7091
 8508TIP3    H249720   3.265   6.057   1.402 -1.2539 -0.6732 -0.4980
 8509TIP3   OH249721   4.755   5.131   3.055 -0.0229  0.5681 -0.0904
 8509TIP3    H149722   4.704   5.084   2.989  0.7844 -1.6907  0.7863
 8509TIP3    H249723   4.721   5.100   3.139  2.1285 -0.3879  0.5140
 8510TIP3   OH249724   6.604   0.812   3.128 -0.1689  0.7871  0.3277
 8510TIP3    H149725   6.538   0.773   3.071  1.4618 -0.0692 -1.0568
 8510TIP3    H249726   6.559   0.885   3.171 -2.9656 -1.6800  1.9770
 8511TIP3   OH249727   0.250   1.664   1.404  0.4665  0.1973  0.1683
 8511TIP3    H149728   0.293   1.579   1.402  0.5823  0.2275  1.1325
 8511TIP3    H249729   0.171   1.650   1.455  0.2878  0.5794 -0.0003
 8512TIP3   OH249730   3.367   6.401   0.904  0.3467  0.1867  0.3674
 8512TIP3    H149731   3.434   6.467   0.889  0.2253  0.0068 -1.0903
 8512TIP3    H249732   3.402   6.347   0.976  0.0709  2.2744  2.1696
 8513TIP3   OH249733   3.944   5.723   2.343  0.4175  0.3960 -0.3090
 8513TIP3    H149734   3.994   5.645   2.319 -0.2203  0.1316 -0.8093
 8513TIP3    H249735   4.010   5.786   2.371  0.9768 -0.1647 -0.3409
 8514TIP3   OH249736   0.203   3.811   3.604  0.2941  0.2423 -0.4819
 8514TIP3    H149737   0.296   3.789   3.605 -0.1733 -1.9218  0.5928
 8514TIP3    H249738   0.199   3.902   3.634  2.0943  0.6549 -1.3761
 8515TIP3   OH249739   1.211   5.097   0.696 -0.1885 -0.2208 -0.1461
 8515TIP3    H149740   1.119   5.073   0.702 -0.4171 -0.7010 -3.5653
 8515TIP3    H249741   1.259   5.022   0.732 -1.1078 -1.2325 -0.9884
 8516TIP3   OH249742   4.951   6.664   1.028  0.0609 -0.5820  0.2509
 8516TIP3    H149743   4.899   6.604   0.975  0.5701 -0.4586 -0.4050
 8516TIP3    H249744   5.041   6.650   0.997  0.2469  0.1310  0.4701
 8517TIP3   OH249745   4.264   5.436   3.088  0.2622 -0.5425  0.2775
 8517TIP3    H149746   4.190   5.419   3.146  0.2091 -1.1543  0.0340
 8517TIP3    H249747   4.334   5.381   3.122  1.1159  1.2069  1.4746
 8518TIP3   OH249748   1.254   2.837   1.249  0.0781  0.3137 -0.4345
 8518TIP3    H149749   1.172   2.798   1.279  1.3351 -1.8772  0.3341
 8518TIP3    H249750   1.258   2.922   1.292 -1.2820 -0.0035  0.3556
 8519TIP3   OH249751   5.516   0.409   1.306  0.2609 -0.2079 -0.3019
 8519TIP3    H149752   5.437   0.453   1.339 -0.2786 -0.9439 -0.5714
 8519TIP3    H249753   5.583   0.476   1.307 -0.2539  0.3189  0.3821
 8520TIP3   OH249754   5.666   6.581   1.196  0.2447  0.0149 -0.2957
 8520TIP3    H149755   5.671   6.631   1.114  0.7821  0.4407 -0.0060
 8520TIP3    H249756   5.582   6.535   1.190 -0.9888  2.0951  0.0917
 8521TIP3   OH249757   2.882   0.385   1.538 -0.0851 -0.3743 -0.1201
 8521TIP3    H149758   2.926   0.430   1.466 -0.5290 -1.0307 -0.8146
 8521TIP3    H249759   2.954   0.354   1.594  0.3550 -1.3454 -1.1855
 8522TIP3   OH249760   6.954   1.402   1.470  0.0837  0.6216  0.4822
 8522TIP3    H149761   7.011   1.424   1.543  0.7135  2.5264 -0.5152
 8522TIP3    H249762   6.897   1.332   1.504  2.5301 -0.9136  1.7099
 8523TIP3   OH249763   7.362   4.652   0.937  0.0625 -0.4374  0.0824
 8523TIP3    H149764   7.414   4.699   1.002  0.0856 -1.7110  1.0290
 8523TIP3    H249765   7.410   4.571   0.922 -0.6829 -0.7897 -0.4437
 8524TIP3   OH249766   3.528   4.405   2.499 -0.4779 -0.2114 -0.0544
 8524TIP3    H149767   3.460   4.339   2.509  0.6178 -1.0839  2.4321
 8524TIP3    H249768   3.520   4.459   2.577  1.0524  0.2633 -0.1924
 8525TIP3   OH249769   3.166   3.788   2.196  0.3368  0.5939  0.1183
 8525TIP3    H149770   3.107   3.864   2.201 -0.1110  0.2959 -0.4443
 8525TIP3    H249771   3.113   3.721   2.152  1.3253  0.5306 -1.0085
 8526TIP3   OH249772   0.074   2.829   1.315 -1.0459  0.1112 -0.5028
 8526TIP3    H149773   0.019   2.751   1.323 -1.3378  0.4005  0.4437
 8526TIP3    H249774   0.049   2.883   1.389  0.9454 -0.0069  0.3163
 8527TIP3   OH249775   3.558   6.882   2.119 -0.6401  0.3622 -0.3893
 8527TIP3    H149776   3.564   6.942   2.193 -1.0511  0.4286 -0.4082
 8527TIP3    H249777   3.583   6.797   2.155  1.9193  0.8453 -0.7880
 8528TIP3   OH249778   6.460   2.466   2.980 -0.1999 -0.1825 -0.7677
 8528TIP3    H149779   6.534   2.521   3.005 -0.2483 -0.2720 -0.4250
 8528TIP3    H249780   6.410   2.454   3.061 -0.6153 -0.0858 -1.0013
 8529TIP3   OH249781   0.672   3.315   2.553  0.3997  0.0511 -0.3106
 8529TIP3    H149782   0.666   3.277   2.465 -0.5051 -0.0790 -0.1967
 8529TIP3    H249783   0.653   3.242   2.612 -0.4255  0.4578 -0.0594
 8530TIP3   OH249784   1.058   5.206   2.281 -0.0838 -0.1179 -0.3527
 8530TIP3    H149785   1.090   5.118   2.261  0.5741  0.4226 -1.8057
 8530TIP3    H249786   0.964   5.202   2.265 -0.7858 -1.5005  3.1573
 8531TIP3   OH249787   6.749   7.448   2.561  0.3620 -0.8298 -0.5869
 8531TIP3    H149788   6.719   7.534   2.590  2.5344 -0.4743  0.8921
 8531TIP3    H249789   6.669   7.401   2.538 -1.1416  0.6322  1.2868
 8532TIP3   OH249790   0.544   6.029   0.755  0.0606 -0.4769  0.1569
 8532TIP3    H149791   0.466   6.068   0.714  0.4231  0.0833 -0.0142
 8532TIP3    H249792   0.592   5.990   0.682  0.1519 -0.4487  0.2024
 8533TIP3   OH249793   2.579   7.025   2.673  0.0632  0.2539 -0.2297
 8533TIP3    H149794   2.647   6.960   2.692  1.5032  1.9261  0.6372
 8533TIP3    H249795   2.627   7.105   2.653 -1.6429  1.6065  0.7736
 8534TIP3   OH249796   4.711   0.116   1.900  0.0269 -0.6542 -0.0194
 8534TIP3    H149797   4.682   0.115   1.991 -3.1856  1.9062 -0.8439
 8534TIP3    H249798   4.656   0.051   1.856  1.5329 -1.8467 -0.2343
 8535TIP3   OH249799   3.547   1.462   1.883 -0.0790  0.3953  0.1221
 8535TIP3    H149800   3.581   1.442   1.970 -0.3667  0.2182  0.1953
 8535TIP3    H249801   3.566   1.554   1.870  2.0654 -0.0862 -0.5661
 8536TIP3   OH249802   7.550   4.471   1.937 -0.5050 -0.1216  0.2599
 8536TIP3    H149803   7.562   4.397   1.997  1.1383 -0.6150 -0.6155
 8536TIP3    H249804   7.528   4.431   1.853 -1.8258  0.5161  0.2844
 8537TIP3   OH249805   5.047   2.755   2.652  0.5434  0.1478  0.5380
 8537TIP3    H149806   5.018   2.771   2.741 -0.8343  0.7980  0.0016
 8537TIP3    H249807   5.013   2.668   2.631  0.6031  0.1256  0.5312
 8538TIP3   OH249808   1.547   7.548   2.327  0.3923  0.6702  0.3577
 8538TIP3    H149809   1.518   7.479   2.387  0.0566  0.4199 -0.0884
 8538TIP3    H249810   1.605   7.602   2.380  1.7829 -0.7383  0.3785
 8539TIP3   OH249811   2.216   2.856   0.786 -0.9414  0.6953 -0.0506
 8539TIP3    H149812   2.287   2.795   0.767  0.4278  2.3018 -0.2898
 8539TIP3    H249813   2.173   2.870   0.701 -0.9214  0.4817 -0.0960
 8540TIP3   OH249814   2.244   3.644   0.837 -1.0039  0.1628  0.2155
 8540TIP3    H149815   2.232   3.557   0.874  0.4933  1.1709  3.4889
 8540TIP3    H249816   2.178   3.698   0.881  0.5783  1.3539  1.2283
 8541TIP3   OH249817   2.777   3.366   1.279 -0.6404 -0.3241 -0.1943
 8541TIP3    H149818   2.868   3.396   1.281 -1.2620  1.7174  1.3072
 8541TIP3    H249819   2.757   3.356   1.186  0.8254  0.2108 -0.5967
 8542TIP3   OH249820   0.892   2.744   1.623  0.0369 -0.2824 -0.3077
 8542TIP3    H149821   0.855   2.667   1.665  1.1750 -0.0584  1.1851
 8542TIP3    H249822   0.816   2.789   1.584 -0.8712 -1.2228  0.3335
 8543TIP3   OH249823   6.893   4.545   2.934 -0.0711 -0.7068 -0.3361
 8543TIP3    H149824   6.985   4.523   2.951  0.2452  0.7312 -0.0709
 8543TIP3    H249825   6.861   4.474   2.879  1.6701 -0.4000 -1.8261
 8544TIP3   OH249826   5.903   3.113   2.901 -0.3368 -0.4775  0.4904
 8544TIP3    H149827   5.924   3.162   2.821  0.3456 -1.8953 -0.2378
 8544TIP3    H249828   5.822   3.153   2.932 -1.4156 -0.7834 -1.6966
 8545TIP3   OH249829   6.656   3.775   1.095  0.1427  0.9806  0.3973
 8545TIP3    H149830   6.721   3.782   1.164 -0.6373 -1.7565  1.5377
 8545TIP3    H249831   6.573   3.796   1.139 -0.2609  0.0040  0.1264
 8546TIP3   OH249832   1.367   5.854   0.809  0.1805 -0.1760 -0.3764
 8546TIP3    H149833   1.400   5.925   0.754  0.4536 -0.3686 -0.4621
 8546TIP3    H249834   1.413   5.864   0.892  1.4201 -1.1929 -0.9004
 8547TIP3   OH249835   1.156   0.162   2.982 -0.7598 -0.0579 -0.3622
 8547TIP3    H149836   1.139   0.070   3.003  2.3171 -0.9328 -1.2730
 8547TIP3    H249837   1.126   0.210   3.060  2.0475 -2.3537  2.4006
 8548TIP3   OH249838   1.751   7.321   3.092  0.0586  0.3510  0.0504
 8548TIP3    H149839   1.693   7.275   3.031  0.5860 -0.7419  0.3437
 8548TIP3    H249840   1.826   7.261   3.103  0.8164  1.3361  0.3672
 8549TIP3   OH249841   6.510   1.232   2.959  0.3836  0.0804  0.2404
 8549TIP3    H149842   6.496   1.193   2.872  1.8408 -1.4889  0.6622
 8549TIP3    H249843   6.421   1.244   2.994 -0.1827 -0.4911 -0.9423
 8550TIP3   OH249844   3.552   3.258   7.623 -0.1621 -1.2738 -0.4480
 8550TIP3    H149845   3.608   3.234   7.548  0.4799 -1.1332 -0.0235
 8550TIP3    H249846   3.614   3.286   7.691 -0.7726 -0.7829 -0.0842
 8551TIP3   OH249847   5.986   6.200   3.314  0.3026 -0.3006  0.0415
 8551TIP3    H149848   5.907   6.154   3.287 -0.9811  1.4557  0.6412
 8551TIP3    H249849   6.057   6.143   3.286 -1.0941 -1.1359 -2.0976
 8552TIP3   OH249850   3.950   3.640   1.526  0.5837  0.0810 -0.2704
 8552TIP3    H149851   4.018   3.687   1.478  2.4246 -0.6583  1.5147
 8552TIP3    H249852   3.992   3.560   1.555 -1.6140 -1.2852 -0.6329
 8553TIP3   OH249853   6.859   0.937   2.412 -0.0637 -0.1279  0.0542
 8553TIP3    H149854   6.881   0.845   2.397 -0.7042 -0.3364  0.3455
 8553TIP3    H249855   6.942   0.979   2.434 -0.0048 -0.9463  1.4472
 8554TIP3   OH249856   2.137   2.698   2.864 -0.2164 -0.0424  0.2605
 8554TIP3    H149857   2.232   2.706   2.855 -0.3677 -0.2907 -2.9573
 8554TIP3    H249858   2.123   2.612   2.902  0.8414 -0.4595 -0.2671
 8555TIP3   OH249859   3.537   7.595   2.672  0.4922  0.1398  0.1063
 8555TIP3    H149860   3.624   7.555   2.670 -0.1439 -1.2856 -0.0231
 8555TIP3    H249861   3.491   7.549   2.742 -1.2704 -1.6022 -2.0842
 8556TIP3   OH249862   6.060   3.105   0.693 -0.5770 -0.2159 -0.1088
 8556TIP3    H149863   6.139   3.160   0.685  0.4583 -1.6379 -0.1120
 8556TIP3    H249864   6.018   3.112   0.607  0.5125 -0.8146 -0.7147
 8557TIP3   OH249865   0.331   3.653   0.769 -0.2609 -0.3701 -0.2528
 8557TIP3    H149866   0.308   3.618   0.855  0.3964  2.3834  1.1921
 8557TIP3    H249867   0.256   3.634   0.714 -1.8375 -0.0075  1.6621
 8558TIP3   OH249868   4.106   7.115   0.994  0.1091  0.2430 -0.4292
 8558TIP3    H149869   4.173   7.072   0.941  0.1711 -0.7545  0.4367
 8558TIP3    H249870   4.027   7.062   0.979  0.0822  0.0670  0.3194
 8559TIP3   OH249871   0.467   4.641   0.347 -0.2305  0.1163 -0.0058
 8559TIP3    H149872   0.410   4.626   0.422  0.9695  0.3647  0.9796
 8559TIP3    H249873   0.412   4.622   0.271 -1.0591 -1.5465  0.9534
 8560TIP3   OH249874   6.156   4.287   0.893  0.9054  0.0167 -0.4184
 8560TIP3    H149875   6.133   4.380   0.897  0.7025 -0.0488 -0.1173
 8560TIP3    H249876   6.188   4.275   0.803 -0.8035 -0.0334 -1.0537
 8561TIP3   OH249877   2.940   4.635   1.805  0.6533  0.4263 -0.2820
 8561TIP3    H149878   3.007   4.653   1.871  0.8243  0.4331 -0.4575
 8561TIP3    H249879   2.861   4.679   1.838  0.1311 -1.3778  1.0259
 8562TIP3   OH249880   3.344   0.582   8.457  0.4019  0.0365 -0.1326
 8562TIP3    H149881   3.289   0.589   8.535  1.6579 -4.6843  1.5460
 8562TIP3    H249882   3.428   0.619   8.483  0.1772  0.5278 -0.0899
 8563TIP3   OH249883   0.469   0.252   2.766  0.0170 -0.6959  0.1083
 8563TIP3    H149884   0.495   0.203   2.844  1.8855 -0.0872 -0.0829
 8563TIP3    H249885   0.501   0.341   2.781  1.7413 -0.8814 -1.9113
 8564TIP3   OH249886   0.542   3.015   3.224  0.5286  0.3450 -0.1078
 8564TIP3    H149887   0.606   2.944   3.217  1.7946  1.2970  1.2296
 8564TIP3    H249888   0.593   3.091   3.251 -0.8528  1.7015 -1.1507
 8565TIP3   OH249889   5.396   3.196   1.357 -0.1259 -0.6513  1.0702
 8565TIP3    H149890   5.404   3.245   1.275  1.0204 -2.5957 -0.0421
 8565TIP3    H249891   5.392   3.264   1.424  0.0636  0.9827 -0.4742
 8566TIP3   OH249892   1.879   4.559   1.436  0.0726 -0.0785 -0.3190
 8566TIP3    H149893   1.911   4.526   1.352 -1.2572 -0.2260 -0.7937
 8566TIP3    H249894   1.799   4.509   1.452 -1.8003  2.5635 -0.8388
 8567TIP3   OH249895   0.056   7.153   1.251 -0.6932  0.4283  0.1101
 8567TIP3    H149896   0.029   7.084   1.312 -2.2067  1.2178  0.3556
 8567TIP3    H249897   0.040   7.235   1.298  1.8916  0.9947  0.1602
 8568TIP3   OH249898   4.286   0.517   1.594  0.3761 -0.0051 -0.3753
 8568TIP3    H149899   4.316   0.506   1.504 -0.1857  0.7093 -0.6586
 8568TIP3    H249900   4.365   0.510   1.647  0.5335 -1.9431 -0.7777
 8569TIP3   OH249901   4.479   5.888   1.163  0.3788 -0.2325 -0.6046
 8569TIP3    H149902   4.563   5.895   1.117  1.6030 -2.2359  1.1012
 8569TIP3    H249903   4.435   5.814   1.122  0.1293 -0.1355 -0.5114
 8570TIP3   OH249904   2.869   1.821   2.967  0.7547 -0.0245 -0.1817
 8570TIP3    H149905   2.907   1.812   3.054  0.3692 -0.2805 -0.0397
 8570TIP3    H249906   2.850   1.915   2.959 -0.8377 -0.2387  0.7032
 8571TIP3   OH249907   6.584   2.451   2.290  0.2611 -0.3732  0.0728
 8571TIP3    H149908   6.647   2.479   2.224 -0.0657 -0.1738 -0.1530
 8571TIP3    H249909   6.517   2.520   2.291  0.6911  0.0552  1.2002
 8572TIP3   OH249910   7.380   1.960   1.509 -0.2534 -0.1767 -0.0235
 8572TIP3    H149911   7.415   1.871   1.501  1.5404  0.3817  1.0387
 8572TIP3    H249912   7.445   2.016   1.467 -0.1117  0.8632  1.5056
 8573TIP3   OH249913   1.274   1.321   1.968  0.5792  0.1779  0.1551
 8573TIP3    H149914   1.278   1.233   1.932  0.9602  0.0916  0.3942
 8573TIP3    H249915   1.281   1.379   1.892 -0.9770  0.0202 -0.1397
 8574TIP3   OH249916   1.079   7.540   2.346  0.7541  0.1594  0.4763
 8574TIP3    H149917   1.159   7.562   2.298  1.6757 -1.6011  1.1421
 8574TIP3    H249918   1.103   7.547   2.438 -0.4032  1.3699  0.7259
 8575TIP3   OH249919   6.857   1.959   1.644 -0.3254  0.1113  0.0760
 8575TIP3    H149920   6.836   2.038   1.595 -0.2208 -0.0199 -0.1820
 8575TIP3    H249921   6.944   1.976   1.680 -0.4340  0.2380  0.2788
 8576TIP3   OH249922   7.329   2.498   0.992  0.2867  0.3181 -0.2665
 8576TIP3    H149923   7.236   2.503   1.017 -0.2754 -0.2217 -2.0833
 8576TIP3    H249924   7.360   2.589   0.998 -0.1999  0.4224  0.8831
 8577TIP3   OH249925   0.600   7.587   2.719 -0.0845 -0.4443 -0.2311
 8577TIP3    H149926   0.633   7.621   2.802  0.8336 -0.0285 -0.7531
 8577TIP3    H249927   0.526   7.532   2.743  1.0129 -1.4497  0.9883
 8578TIP3   OH249928   3.864   2.824   2.327 -0.4367  0.3553 -0.0439
 8578TIP3    H149929   3.832   2.914   2.337 -1.8162 -0.1885  0.5999
 8578TIP3    H249930   3.858   2.808   2.233  0.9616  1.3235 -0.3304
 8579TIP3   OH249931   2.333   5.581   0.874  0.0596  1.3839 -0.3298
 8579TIP3    H149932   2.302   5.672   0.882 -1.4446  1.0439 -1.8386
 8579TIP3    H249933   2.340   5.567   0.780  1.4497  0.2775 -0.0899
 8580TIP3   OH249934   0.156   2.831   0.663  0.3967 -0.1721  0.9351
 8580TIP3    H149935   0.115   2.911   0.631  0.9499 -0.2913 -0.1027
 8580TIP3    H249936   0.083   2.771   0.678  0.0975  0.0274  0.2979
 8581TIP3   OH249937   2.888   3.198   1.483 -0.3080  0.4454 -0.1719
 8581TIP3    H149938   2.826   3.248   1.431 -0.2136  2.5468  1.6054
 8581TIP3    H249939   2.972   3.242   1.470  0.3465 -0.8326 -0.5493
 8582TIP3   OH249940   6.535   6.414   1.976 -0.1137 -0.1006  0.0454
 8582TIP3    H149941   6.592   6.490   1.987  1.4819 -1.2440  0.0498
 8582TIP3    H249942   6.507   6.392   2.065  0.0633  0.0006  0.1264
 8583TIP3   OH249943   6.954   5.924   2.327 -0.1902  0.1971 -0.2801
 8583TIP3    H149944   6.967   6.008   2.282  0.4731 -0.7231 -1.9117
 8583TIP3    H249945   6.895   5.944   2.399  1.1752  2.3561  0.3371
 8584TIP3   OH249946   5.183   1.773   2.490 -0.0912  0.0289  0.2343
 8584TIP3    H149947   5.234   1.728   2.422 -2.6821 -0.9465 -1.1796
 8584TIP3    H249948   5.204   1.727   2.571 -1.8816 -3.2244 -0.9965
 8585TIP3   OH249949   6.441   7.499   0.584  0.2585  0.7215  0.3052
 8585TIP3    H149950   6.518   7.515   0.637  0.8273 -0.7885  0.0065
 8585TIP3    H249951   6.398   7.424   0.626 -0.6399  1.0668  0.0390
 8586TIP3   OH249952   2.709   0.022   0.868  0.1990 -0.4071 -0.1652
 8586TIP3    H149953   2.754  -0.051   0.826  2.8777  1.0583 -0.1056
 8586TIP3    H249954   2.734   0.098   0.816  2.3998  1.2698  3.0098
 8587TIP3   OH249955   4.930   1.946   0.542  0.0711  0.0731 -0.2284
 8587TIP3    H149956   4.991   1.940   0.615 -0.1158  1.3984  0.0697
 8587TIP3    H249957   4.859   2.001   0.575 -1.0366 -1.0038 -0.7376
 8588TIP3   OH249958   6.048   0.416   1.251  0.3175 -0.5693  0.5745
 8588TIP3    H149959   6.090   0.472   1.186 -1.1229 -1.2051 -0.9729
 8588TIP3    H249960   6.024   0.476   1.322 -0.0514  0.5722 -0.4745
 8589TIP3   OH249961   7.005   7.080   2.830 -0.3248 -0.7884  0.0153
 8589TIP3    H149962   6.964   7.059   2.914 -0.6901 -0.6362 -0.1254
 8589TIP3    H249963   6.965   7.021   2.767 -0.6462 -0.3464 -0.2008
 8590TIP3   OH249964   4.282   2.163   1.796 -0.1065  0.1214  0.5694
 8590TIP3    H149965   4.349   2.230   1.784  0.2979 -0.1633  1.1661
 8590TIP3    H249966   4.202   2.203   1.762  0.7247 -0.2791 -2.0934
 8591TIP3   OH249967   6.931   1.372   2.556  0.3943  0.6466 -0.2075
 8591TIP3    H149968   6.839   1.359   2.532 -0.8164  4.1422  1.8179
 8591TIP3    H249969   6.955   1.293   2.604 -2.1061  0.2957  0.5910
 8592TIP3   OH249970   2.363   3.084   0.648 -0.5318 -0.0644 -0.6588
 8592TIP3    H149971   2.402   3.096   0.735 -1.7544 -0.7299  0.0090
 8592TIP3    H249972   2.391   2.996   0.622 -1.6357 -0.5920 -0.1253
 8593TIP3   OH249973   5.527   1.731   1.858  0.9010 -0.1757 -0.0473
 8593TIP3    H149974   5.483   1.659   1.812  0.8783  0.1547 -0.5492
 8593TIP3    H249975   5.465   1.756   1.927  0.2180  0.3803 -0.8394
 8594TIP3   OH249976   0.520   0.933   2.528 -0.4779  0.3452 -0.0087
 8594TIP3    H149977   0.539   0.954   2.620  1.3547  0.9685 -0.4903
 8594TIP3    H249978   0.606   0.927   2.486 -1.2818  1.6386 -2.0265
 8595TIP3   OH249979   1.265   3.581   1.985  0.4698 -0.2963  0.2543
 8595TIP3    H149980   1.289   3.573   2.077  2.4367  0.2939 -0.1640
 8595TIP3    H249981   1.331   3.530   1.938 -1.3846 -1.8899 -0.7738
 8596TIP3   OH249982   3.329   3.970   0.565  0.0460 -0.3868  0.4365
 8596TIP3    H149983   3.423   3.988   0.565  0.0395 -0.2201 -0.9361
 8596TIP3    H249984   3.289   4.055   0.549 -0.3688 -0.4046  1.3351
 8597TIP3   OH249985   6.239   1.618   2.130 -0.7600 -0.4854  0.3989
 8597TIP3    H149986   6.146   1.642   2.128 -1.0410 -1.5293  0.5503
 8597TIP3    H249987   6.243   1.542   2.188  0.2881 -0.0812  0.8839
 8598TIP3   OH249988   0.530   2.395   0.685 -0.6052 -0.0960 -0.8971
 8598TIP3    H149989   0.459   2.429   0.631 -1.8264  0.0952  0.7572
 8598TIP3    H249990   0.511   2.427   0.773  0.7341 -1.2645 -0.1394
 8599TIP3   OH249991   6.600   7.080   1.102  0.1559 -0.0038 -0.3555
 8599TIP3    H149992   6.620   6.986   1.099  0.5520  0.0043  1.1280
 8599TIP3    H249993   6.620   7.112   1.014  1.7649 -0.9737 -0.3796
 8600TIP3   OH249994   1.626   1.756   0.864  0.0429 -0.4038  0.3421
 8600TIP3    H149995   1.602   1.671   0.901 -0.0778 -0.4330  0.1967
 8600TIP3    H249996   1.720   1.764   0.880  0.0546 -0.5661  0.3532
 8601TIP3   OH249997   4.784   2.223   2.952  0.0116  0.7413  0.0445
 8601TIP3    H149998   4.818   2.270   3.027  1.0464 -0.8475  0.6180
 8601TIP3    H249999   4.747   2.143   2.988 -0.9639  0.6951 -0.9838
 8602TIP3   OH250000   2.340   0.631   2.468  0.4606 -0.2925 -0.2518
 8602TIP3    H150001   2.430   0.616   2.441  0.4615  0.2349 -0.5635
 8602TIP3    H250002   2.298   0.670   2.391 -0.0657 -0.6404 -0.1525
 8603TIP3   OH250003   6.231   5.057   2.584 -0.0703 -0.1817  0.4618
 8603TIP3    H150004   6.226   4.962   2.590 -1.2974 -0.2118 -0.5432
 8603TIP3    H250005   6.140   5.085   2.568  0.3526  1.0978  0.1601
 8604TIP3   OH250006   2.800   0.014   1.407  0.4493  0.1117  0.7015
 8604TIP3    H150007   2.794   0.013   1.312  0.6749 -0.3645  0.6896
 8604TIP3    H250008   2.821   0.105   1.429 -0.4250  0.3978  0.3559
 8605TIP3   OH250009   4.011   6.024   1.063  0.3648  0.2305 -0.5703
 8605TIP3    H150010   4.039   5.980   1.143 -1.3952 -1.1794 -0.6751
 8605TIP3    H250011   4.090   6.066   1.030  2.0438 -2.3787 -0.1495
 8606TIP3   OH250012   6.480   3.970   3.391  0.1784 -0.3815  0.4865
 8606TIP3    H150013   6.409   3.923   3.435 -0.2229 -1.2072 -1.0047
 8606TIP3    H250014   6.551   3.972   3.456 -0.6834 -0.8246  1.4689
 8607TIP3   OH250015   5.168   0.715   2.662 -0.1114  0.2688  0.5587
 8607TIP3    H150016   5.206   0.698   2.748 -0.9736  1.4796  1.2141
 8607TIP3    H250017   5.236   0.689   2.600  0.5643 -0.5299  1.5934
 8608TIP3   OH250018   0.005   3.458   2.192  0.5344 -0.1592 -0.2994
 8608TIP3    H150019  -0.056   3.491   2.258  1.2521  0.6448 -0.0365
 8608TIP3    H250020  -0.050   3.443   2.115 -0.2779 -0.9399  0.4029
 8609TIP3   OH250021   7.210   5.402   2.819 -0.2396 -0.1128  0.3813
 8609TIP3    H150022   7.284   5.341   2.826 -0.5903 -0.4087  1.6518
 8609TIP3    H250023   7.136   5.347   2.795  0.0516  0.2862 -1.6701
 8610TIP3   OH250024   4.295   5.537   1.469  0.0370  0.0770  0.2383
 8610TIP3    H150025   4.385   5.570   1.463 -0.3223  0.9069 -0.7112
 8610TIP3    H250026   4.253   5.564   1.388 -0.9600 -0.6948  0.4669
 8611TIP3   OH250027   2.423   3.713   1.919  0.4902 -0.0257 -0.0891
 8611TIP3    H150028   2.470   3.663   1.852  2.4001 -1.1169  1.9142
 8611TIP3    H250029   2.475   3.794   1.929  0.3098  0.0584  0.1731
 8612TIP3   OH250030   1.933   4.409   2.681  0.0960 -0.4527  0.0404
 8612TIP3    H150031   2.011   4.354   2.679  1.0706  0.8872  0.3096
 8612TIP3    H250032   1.941   4.460   2.762 -0.6204  0.3070 -0.3525
 8613TIP3   OH250033   7.443   6.026   1.138  0.5149  0.1615 -0.1388
 8613TIP3    H150034   7.365   5.976   1.159  0.3987  0.1136 -0.6573
 8613TIP3    H250035   7.488   6.038   1.221  0.7453 -1.1284 -0.0616
 8614TIP3   OH250036   7.566   6.028   1.399 -0.4290 -0.3545  0.2248
 8614TIP3    H150037   7.575   6.122   1.413 -0.0419 -0.5476  1.4106
 8614TIP3    H250038   7.549   5.992   1.486 -3.8536 -1.0653 -0.5649
 8615TIP3   OH250039   0.412   1.201   2.513 -0.6680  0.3477  0.6967
 8615TIP3    H150040   0.418   1.112   2.478 -0.0093  0.5719  0.1996
 8615TIP3    H250041   0.428   1.192   2.607  1.2771  0.1216  0.3945
 8616TIP3   OH250042   1.440   7.525   0.653 -0.1648  0.2208  0.5164
 8616TIP3    H150043   1.518   7.575   0.627  0.4033 -1.0669 -0.3786
 8616TIP3    H250044   1.370   7.561   0.600  0.0190  0.7419  0.6190
 8617TIP3   OH250045   2.228   0.894   1.876 -0.2921  0.3417 -0.0738
 8617TIP3    H150046   2.175   0.966   1.841  0.0116 -0.0735 -1.4381
 8617TIP3    H250047   2.171   0.818   1.869  0.5789 -0.1844 -1.9265
 8618TIP3   OH250048   6.539   4.017   1.486 -0.0553 -0.1729 -0.7032
 8618TIP3    H150049   6.540   3.976   1.573  1.8953  1.6645  0.2249
 8618TIP3    H250050   6.462   4.074   1.488 -0.1720 -0.3367 -0.3090
 8619TIP3   OH250051   4.470   1.959   1.729 -0.3345 -0.9508  0.4019
 8619TIP3    H150052   4.411   2.035   1.730  1.2664  0.3429  0.8884
 8619TIP3    H250053   4.518   1.967   1.646  3.0283  1.2604  2.3253
 8620TIP3   OH250054   1.570   2.123   0.508 -0.2469  0.4576  0.3657
 8620TIP3    H150055   1.485   2.090   0.479  0.2078  0.4306 -1.0399
 8620TIP3    H250056   1.589   2.074   0.588 -0.4785 -1.3105 -0.5928
 8621TIP3   OH250057   0.244   4.086   3.583 -0.1275 -0.0453 -0.0805
 8621TIP3    H150058   0.221   4.177   3.568 -0.1660 -0.0620 -0.1238
 8621TIP3    H250059   0.338   4.087   3.596  0.0715 -0.1628 -1.4037
 8622TIP3   OH250060   1.466   1.243   2.573 -0.0330  0.3218  0.2631
 8622TIP3    H150061   1.395   1.202   2.524 -1.3863 -0.2286  2.5283
 8622TIP3    H250062   1.423   1.308   2.629  1.3921  0.8049  0.8575
 8623TIP3   OH250063   2.839   6.612   1.010 -0.1484 -0.2164 -0.2717
 8623TIP3    H150064   2.890   6.624   0.930  0.7318  0.7688  0.4079
 8623TIP3    H250065   2.874   6.531   1.049 -0.0799 -0.3038 -0.5134
 8624TIP3   OH250066   2.904   3.861   1.694 -0.1328  0.2090  0.1501
 8624TIP3    H150067   2.828   3.903   1.656 -0.3100 -0.5452 -0.3459
 8624TIP3    H250068   2.979   3.901   1.649 -0.2980  0.0118 -0.3055
 8625TIP3   OH250069   7.020   4.300   1.134  0.0115  0.3408 -0.0142
 8625TIP3    H150070   6.934   4.263   1.113 -0.3561  0.1186  1.7186
 8625TIP3    H250071   7.076   4.223   1.148  0.4295  0.4853 -0.8381
 8626TIP3   OH250072   6.294   1.499   1.019  0.3264  0.1890 -0.2764
 8626TIP3    H150073   6.327   1.467   1.102 -2.4077  0.9983  1.2625
 8626TIP3    H250074   6.356   1.568   0.993  0.3946  1.0251  1.9349
 8627TIP3   OH250075   6.626   0.754   0.824 -0.2429  0.5021 -0.1424
 8627TIP3    H150076   6.565   0.808   0.772 -0.3796  1.0421  0.5549
 8627TIP3    H250077   6.616   0.666   0.789 -1.2175  0.6405 -0.2415
 8628TIP3   OH250078   5.487   6.691   2.343 -0.3990  0.0952  0.0121
 8628TIP3    H150079   5.470   6.649   2.427 -2.4662  0.3422 -0.2233
 8628TIP3    H250080   5.513   6.780   2.365 -2.2550  0.5845  0.4287
 8629TIP3   OH250081   2.099   6.450   2.349  0.2985 -0.5558 -0.3852
 8629TIP3    H150082   2.130   6.391   2.417 -1.0192 -0.5305  0.2713
 8629TIP3    H250083   2.041   6.396   2.294  0.1945 -0.2196 -0.6137
 8630TIP3   OH250084   4.907   0.617   2.623 -1.1727 -0.7187  0.0407
 8630TIP3    H150085   4.823   0.649   2.656 -0.2768  0.3095  1.4156
 8630TIP3    H250086   4.972   0.655   2.682  0.2905 -1.2514 -1.1712
 8631TIP3   OH250087   0.122   2.660   1.588 -0.0276  0.4402 -0.3048
 8631TIP3    H150088   0.189   2.708   1.637 -0.3905 -0.0607  0.7111
 8631TIP3    H250089   0.040   2.678   1.635 -0.4451  0.2057 -0.9200
 8632TIP3   OH250090   7.213   1.840   0.913 -0.2551 -0.2444  0.3523
 8632TIP3    H150091   7.298   1.859   0.875 -0.6067  0.8052  0.0557
 8632TIP3    H250092   7.212   1.888   0.995  0.4929 -2.4800  1.7707
 8633TIP3   OH250093   7.000   4.665   0.606 -0.4299  0.0443  0.2064
 8633TIP3    H150094   6.987   4.573   0.583  0.9323 -0.1328  0.0120
 8633TIP3    H250095   7.028   4.662   0.698  0.0084  0.2186  0.0811
 8634TIP3   OH250096   7.155   4.401   2.671 -0.1916  1.1528  0.1404
 8634TIP3    H150097   7.212   4.429   2.743  2.0910  0.1540 -1.1675
 8634TIP3    H250098   7.201   4.327   2.632 -2.4682  0.2459 -0.9861
 8635TIP3   OH250099   5.335   2.094   1.700  0.1292  0.2511 -0.3352
 8635TIP3    H150100   5.266   2.122   1.640  0.2765  2.3040  0.3706
 8635TIP3    H250101   5.294   2.097   1.786  0.1540 -1.8693 -0.2087
 8636TIP3   OH250102   2.685   3.883   3.298  0.0645  0.2314 -0.2997
 8636TIP3    H150103   2.778   3.891   3.319  0.0319 -1.9391  0.9691
 8636TIP3    H250104   2.640   3.902   3.380 -0.6756  1.6727 -1.0014
 8637TIP3   OH250105   1.760   1.966   1.057  0.0729  0.2789  0.1949
 8637TIP3    H150106   1.754   2.023   0.981 -1.3689 -0.9448 -0.6576
 8637TIP3    H250107   1.811   2.016   1.121  0.3709  1.7669 -1.1616
 8638TIP3   OH250108   0.825   2.468   2.264 -0.3020  0.3804  0.2257
 8638TIP3    H150109   0.786   2.390   2.302  1.6718 -0.7209  0.0952
 8638TIP3    H250110   0.772   2.485   2.185 -1.0531 -0.5116  0.5182
 8639TIP3   OH250111   6.748   5.965   0.454 -0.0701  0.3245 -0.4079
 8639TIP3    H150112   6.741   5.981   0.548  1.4164  0.6676 -0.3312
 8639TIP3    H250113   6.659   5.944   0.426 -0.4577 -0.1672  1.1412
 8640TIP3   OH250114   3.958   4.867   0.931 -0.5784 -0.4287 -0.1801
 8640TIP3    H150115   3.878   4.915   0.954  0.3086  1.0686 -0.0789
 8640TIP3    H250116   3.931   4.807   0.862 -1.7089  0.3605 -0.4535
 8641TIP3   OH250117   2.447   3.551   2.134 -0.0985 -0.5380 -0.3303
 8641TIP3    H150118   2.444   3.593   2.048  1.4042 -2.2493 -1.2981
 8641TIP3    H250119   2.533   3.574   2.170 -0.2055 -0.8586  0.1485
 8642TIP3   OH250120   6.851   2.667   0.919  0.0063 -0.5502  0.0301
 8642TIP3    H150121   6.871   2.609   0.845  1.4372 -1.5601  1.1655
 8642TIP3    H250122   6.838   2.609   0.993 -0.4296  0.4964  0.8042
 8643TIP3   OH250123   6.266   2.335   2.155 -0.2955  0.0154  0.2583
 8643TIP3    H150124   6.314   2.280   2.216 -0.7298 -1.2378 -0.4893
 8643TIP3    H250125   6.314   2.326   2.072 -0.3349  0.8281  0.1334
 8644TIP3   OH250126   1.673   4.390   1.412  0.5848  0.1407 -0.6040
 8644TIP3    H150127   1.586   4.369   1.377  0.0440  1.6200 -0.2092
 8644TIP3    H250128   1.712   4.304   1.430 -1.6179 -0.5974  1.2176
 8645TIP3   OH250129   2.904   6.825   1.161 -0.5473 -0.5421  0.3430
 8645TIP3    H150130   2.904   6.779   1.078 -1.1713  1.0968 -0.6071
 8645TIP3    H250131   2.994   6.817   1.193  0.6767  1.6762 -2.1980
 8646TIP3   OH250132   1.177   7.402   1.999  0.0151  0.1846 -0.1467
 8646TIP3    H150133   1.147   7.492   1.990 -0.1096  0.2413  0.8092
 8646TIP3    H250134   1.105   7.356   2.042  0.2803 -0.2648 -0.1663
 8647TIP3   OH250135   0.941   4.626   0.733 -0.6701  0.0333  0.4664
 8647TIP3    H150136   0.955   4.539   0.695  0.9994  0.5047 -0.1251
 8647TIP3    H250137   0.869   4.663   0.683 -0.5941 -0.5653 -0.0999
 8648TIP3   OH250138   5.120   6.902   2.431  0.2722  0.0455  0.2424
 8648TIP3    H150139   5.156   6.846   2.363 -0.8555  0.8721 -1.0730
 8648TIP3    H250140   5.036   6.862   2.454 -1.8341  2.4117 -2.5618
 8649TIP3   OH250141   0.775   0.734   2.183 -0.4696 -0.3334  0.0333
 8649TIP3    H150142   0.715   0.746   2.109  0.7318 -2.1775 -1.3224
 8649TIP3    H250143   0.783   0.639   2.191  1.4210 -0.1340  0.8731
 8650TIP3   OH250144   0.860   4.146   3.874  0.1818  0.0198 -0.1032
 8650TIP3    H150145   0.935   4.151   3.814 -0.1198  0.0756 -0.4802
 8650TIP3    H250146   0.830   4.056   3.868  1.1589 -0.4375  1.2235
 8651TIP3   OH250147   1.872   5.895   2.670 -0.1491 -0.1506 -0.5014
 8651TIP3    H150148   1.828   5.903   2.755  0.4067 -0.2279 -0.2012
 8651TIP3    H250149   1.841   5.970   2.620  2.8621  2.5364  1.3071
 8652TIP3   OH250150   2.468   0.739   1.659 -0.3060  0.4729  0.1746
 8652TIP3    H150151   2.522   0.719   1.582 -0.5747  1.0110 -0.1540
 8652TIP3    H250152   2.396   0.792   1.625 -0.0039  1.3769  0.9214
 8653TIP3   OH250153   5.714   1.300   0.681  0.2156  0.0525  0.3665
 8653TIP3    H150154   5.795   1.272   0.722  2.5971  3.5141 -1.4873
 8653TIP3    H250155   5.716   1.262   0.594 -0.0078  0.3367  0.2333
 8654TIP3   OH250156   7.401   0.900   1.780 -0.2081 -0.4266 -0.1613
 8654TIP3    H150157   7.377   0.811   1.753  0.9686 -0.7640 -0.1801
 8654TIP3    H250158   7.413   0.892   1.875 -0.4929 -0.1861 -0.1046
 8655TIP3   OH250159   3.574   3.286   1.070  0.0399 -0.4308  0.1622
 8655TIP3    H150160   3.622   3.256   1.147 -0.9740 -0.1236  0.9463
 8655TIP3    H250161   3.573   3.381   1.078  0.3718 -0.3655 -0.5192
 8656TIP3   OH250162   5.104   1.669   0.731  0.5472  0.4127  0.1371
 8656TIP3    H150163   5.054   1.726   0.789  0.0103 -0.7537  0.8613
 8656TIP3    H250164   5.177   1.639   0.784  1.7821  1.7064 -0.7599
 8657TIP3   OH250165   0.020   1.533   2.921 -0.2077  0.3075 -0.0926
 8657TIP3    H150166   0.075   1.555   2.846  0.2401 -0.6371 -0.0478
 8657TIP3    H250167   0.022   1.612   2.976 -0.7104  1.0891 -1.1572
 8658TIP3   OH250168   1.622   4.231   0.871  0.5392  0.2580  0.5369
 8658TIP3    H150169   1.593   4.317   0.902 -0.2856 -0.6703  2.5254
 8658TIP3    H250170   1.555   4.171   0.904  0.5406 -1.0571 -1.6898
 8659TIP3   OH250171   5.047   4.702   0.753 -0.1215  0.0363  0.3016
 8659TIP3    H150172   5.132   4.657   0.751 -0.0143  0.2520 -0.2524
 8659TIP3    H250173   4.989   4.647   0.702  0.2175  0.9113 -1.0860
 8660TIP3   OH250174   1.840   3.745   2.705 -0.3672  0.5616 -0.1273
 8660TIP3    H150175   1.858   3.693   2.627  0.3721  0.9636 -0.2409
 8660TIP3    H250176   1.809   3.829   2.672 -1.1866  0.3294  0.0449
 8661TIP3   OH250177   0.707   7.462   1.654  0.5248 -0.4164  0.1849
 8661TIP3    H150178   0.775   7.521   1.623  0.5552 -0.0404  0.9355
 8661TIP3    H250179   0.681   7.498   1.739 -0.7916 -0.4193 -0.1989
 8662TIP3   OH250180   4.896   1.659   0.447  0.5944 -0.2942 -0.2333
 8662TIP3    H150181   4.911   1.701   0.362  0.9500 -0.0025 -0.0298
 8662TIP3    H250182   4.926   1.724   0.511 -2.4569  0.7640  0.2809
 8663TIP3   OH250183   1.036   3.315   1.941 -0.3642 -0.0990 -0.1587
 8663TIP3    H150184   1.004   3.404   1.928  1.0775  0.1244 -2.8655
 8663TIP3    H250185   0.991   3.264   1.873  0.0438 -1.1101  0.3183
 8664TIP3   OH250186   7.624   2.260   2.242  0.2153  0.1063  0.0996
 8664TIP3    H150187   7.623   2.226   2.331  0.4906  0.2957  0.1765
 8664TIP3    H250188   7.641   2.184   2.187  1.7762  0.2624  0.3394
 8665TIP3   OH250189   6.997   4.980   2.724 -0.4880  0.3008  0.1757
 8665TIP3    H150190   6.999   4.900   2.671 -0.4008  0.3429  0.1154
 8665TIP3    H250191   7.058   5.039   2.681  1.3700 -0.4626  1.5933
 8666TIP3   OH250192   1.471   7.089   1.616 -0.2879  1.2464  0.2051
 8666TIP3    H150193   1.528   7.017   1.592 -0.1447  1.0507  1.1084
 8666TIP3    H250194   1.447   7.073   1.707 -2.8830  0.5926 -0.4916
 8667TIP3   OH250195   3.415   1.871   1.966  0.1345 -0.2279  0.4743
 8667TIP3    H150196   3.396   1.783   1.997 -0.8060 -0.4163 -0.5685
 8667TIP3    H250197   3.338   1.923   1.992 -0.3079 -0.2173 -0.7960
 8668TIP3   OH250198   2.924   7.428   1.148  0.3024 -0.2153  0.6145
 8668TIP3    H150199   2.976   7.355   1.183 -0.5306 -0.2624  1.8032
 8668TIP3    H250200   2.837   7.415   1.185  0.1561  1.4176  0.8781
 8669TIP3   OH250201   0.195   0.908   3.094 -0.0713  0.3305  0.4862
 8669TIP3    H150202   0.141   0.970   3.144 -0.7178  0.7033 -0.6253
 8669TIP3    H250203   0.172   0.926   3.003  0.8866 -0.5050  0.0706
 8670TIP3   OH250204   4.502   2.191   1.528 -0.0622  0.6780 -0.3080
 8670TIP3    H150205   4.478   2.283   1.526  0.9090  0.9421 -0.7155
 8670TIP3    H250206   4.590   2.189   1.490  0.0497 -0.3779 -0.0208
 8671TIP3   OH250207   2.971   0.737   0.913 -0.3390  0.1268 -0.0310
 8671TIP3    H150208   2.966   0.822   0.869  0.0599 -0.0079 -0.3443
 8671TIP3    H250209   2.905   0.683   0.869 -0.2403  0.1222 -0.1739
 8672TIP3   OH250210   3.394   3.066   1.446 -0.1511  0.3760  0.0864
 8672TIP3    H150211   3.461   3.131   1.469 -0.1060 -0.6063  3.0671
 8672TIP3    H250212   3.443   2.994   1.406  0.2102  0.7282 -0.1206
 8673TIP3   OH250213   0.948   4.367   0.616  0.3680 -0.0042 -0.0483
 8673TIP3    H150214   0.855   4.372   0.592  0.7177 -0.0290 -1.4881
 8673TIP3    H250215   0.953   4.294   0.677 -0.5491 -0.0265  0.0156
 8674TIP3   OH250216   3.171   5.443   1.531 -0.4819 -0.0874 -0.3438
 8674TIP3    H150217   3.088   5.438   1.484 -1.3307  0.4428  1.0323
 8674TIP3    H250218   3.163   5.378   1.600  0.7794 -0.9123 -0.9414
 8675TIP3   OH250219   5.625   4.326   2.006  0.0633 -0.4028 -0.6581
 8675TIP3    H150220   5.597   4.298   1.918  0.3878 -0.0591 -0.8728
 8675TIP3    H250221   5.545   4.363   2.045  0.1604  0.4099 -1.2025
 8676TIP3   OH250222   0.568   6.366   0.678  0.1634  0.1832  0.7479
 8676TIP3    H150223   0.573   6.414   0.595 -0.5574 -0.0595  0.5553
 8676TIP3    H250224   0.506   6.295   0.661  1.0403 -0.6891  1.0945
 8677TIP3   OH250225   6.820   3.163   2.644 -0.6031 -0.3396 -0.0213
 8677TIP3    H150226   6.724   3.163   2.643 -0.5987 -0.0786 -0.7284
 8677TIP3    H250227   6.845   3.241   2.595 -0.0257 -0.5702 -0.1029
 8678TIP3   OH250228   2.869   0.290   0.936  0.0391 -0.1474 -0.3328
 8678TIP3    H150229   2.917   0.366   0.969 -0.9704  0.8097 -1.0426
 8678TIP3    H250230   2.937   0.233   0.900  0.6760  1.1687 -1.2934
 8679TIP3   OH250231   6.507   1.349   1.968 -0.3025 -0.1846 -0.4437
 8679TIP3    H150232   6.575   1.315   1.909  1.5584  2.0200  0.2638
 8679TIP3    H250233   6.454   1.407   1.913 -1.0897 -1.2089 -0.7932
 8680TIP3   OH250234   3.466   2.967   1.738 -0.0122  0.1462  0.7096
 8680TIP3    H150235   3.456   3.019   1.817 -0.3196 -0.5467  1.1349
 8680TIP3    H250236   3.380   2.972   1.695 -0.0723 -0.0822  0.8004
 8681TIP3   OH250237   4.199   2.952   1.672  0.2193 -0.0406 -0.2811
 8681TIP3    H150238   4.277   2.952   1.727 -0.9407 -2.5554  1.5477
 8681TIP3    H250239   4.173   2.860   1.667 -3.4438  0.7868  0.4204
 8682TIP3   OH250240   1.588   0.614   0.591 -0.2114  0.0699 -0.8710
 8682TIP3    H150241   1.638   0.690   0.619  0.5463 -0.4380 -0.8093
 8682TIP3    H250242   1.508   0.650   0.553 -1.7065  0.8260  2.5420
 8683TIP3   OH250243   1.710   7.050   1.799  0.2162 -0.0481 -0.5916
 8683TIP3    H150244   1.723   7.045   1.704 -1.7724 -0.2983 -0.8804
 8683TIP3    H250245   1.697   6.959   1.827  3.0237 -0.2683  0.3395
 8684TIP3   OH250246   3.005   5.423   2.414 -0.5621  0.2773  0.6039
 8684TIP3    H150247   2.911   5.438   2.420 -0.3130  1.5023  1.7937
 8684TIP3    H250248   3.036   5.487   2.350 -0.5102 -0.0373  0.3109
 8685TIP3   OH250249   3.299   4.507   3.214  0.2624  0.1960  0.0380
 8685TIP3    H150250   3.220   4.532   3.263 -0.3450 -0.5706 -0.5301
 8685TIP3    H250251   3.281   4.534   3.124 -0.7717 -2.8700 -0.7963
 8686TIP3   OH250252   2.020   7.649   2.510 -0.1348 -0.0988  0.1865
 8686TIP3    H150253   1.986   7.678   2.594 -0.4728 -0.1674  0.0723
 8686TIP3    H250254   2.110   7.681   2.508 -0.5789  1.1670 -0.0481
 8687TIP3   OH250255   3.967   0.463   2.432 -0.5910  0.3247  0.2272
 8687TIP3    H150256   4.006   0.520   2.498 -1.0927 -0.2130  1.0046
 8687TIP3    H250257   3.967   0.376   2.473 -1.0832  0.0206 -0.4058
 8688TIP3   OH250258   5.686   7.392   0.861  0.5647  0.7404 -0.6563
 8688TIP3    H150259   5.606   7.439   0.885 -0.0983 -0.2466 -0.8668
 8688TIP3    H250260   5.739   7.458   0.816  0.3460  1.6897  0.4215
 8689TIP3   OH250261   3.933   3.800   3.440  0.0103 -0.0635  0.7583
 8689TIP3    H150262   3.844   3.825   3.463 -0.8920 -1.9871 -0.4100
 8689TIP3    H250263   3.956   3.733   3.504  0.7671  0.6218  1.2284
 8690TIP3   OH250264   2.330   2.123   2.254  0.5238  0.3241  0.7553
 8690TIP3    H150265   2.317   2.039   2.299  0.9591 -0.5264 -0.6226
 8690TIP3    H250266   2.272   2.184   2.299 -1.6303 -1.2761  0.3171
 8691TIP3   OH250267   2.878   7.515   0.735 -0.2388  0.1901 -0.1460
 8691TIP3    H150268   2.922   7.497   0.651  2.1313  1.2730  0.7761
 8691TIP3    H250269   2.948   7.507   0.800 -1.6379  1.1356  1.5297
 8692TIP3   OH250270   7.603   1.845   1.205  0.3125  0.3184 -0.1678
 8692TIP3    H150271   7.510   1.863   1.220 -0.3044 -2.3345 -0.4033
 8692TIP3    H250272   7.606   1.800   1.121  1.8648  0.6094 -0.3041
 8693TIP3   OH250273   4.458   0.195   1.493 -0.0225 -0.0230  0.3637
 8693TIP3    H150274   4.411   0.177   1.575  1.5053 -0.0416  1.2851
 8693TIP3    H250275   4.549   0.206   1.520  0.2795  1.6204 -1.1406
 8694TIP3   OH250276   5.414   7.202   2.205  0.5276  0.0088 -0.1421
 8694TIP3    H150277   5.491   7.242   2.245 -0.6303  1.8021  0.3776
 8694TIP3    H250278   5.404   7.246   2.121  0.0148 -0.1587 -0.1734
 8695TIP3   OH250279   2.860   1.246   2.797  0.5697  0.1074  0.3786
 8695TIP3    H150280   2.799   1.173   2.796  0.9169 -0.2137  1.4951
 8695TIP3    H250281   2.830   1.303   2.727 -0.5819 -0.3868  0.4516
 8696TIP3   OH250282   3.061   3.957   2.760  0.2376 -0.1774 -0.0312
 8696TIP3    H150283   3.013   3.931   2.839 -0.5334  1.3775  0.0470
 8696TIP3    H250284   3.140   3.901   2.761 -1.2545 -2.4245  0.1157
 8697TIP3   OH250285   4.137   5.513   2.299  0.7194 -0.3420 -0.2002
 8697TIP3    H150286   4.160   5.458   2.374 -1.4308 -1.5853 -0.4056
 8697TIP3    H250287   4.218   5.518   2.248  0.9936 -3.4892 -0.2681
 8698TIP3   OH250288   4.330   1.257   1.729 -0.3952 -0.9004 -0.3374
 8698TIP3    H150289   4.279   1.327   1.690 -1.1560  0.2213  2.4403
 8698TIP3    H250290   4.266   1.203   1.775  0.5343 -1.5131  0.2825
 8699TIP3   OH250291   6.350   7.259   0.773  0.1382 -0.0098 -0.3342
 8699TIP3    H150292   6.326   7.167   0.782  1.6401 -0.5168 -1.2107
 8699TIP3    H250293   6.278   7.307   0.814  0.1050 -1.6190  1.6049
 8700TIP3   OH250294   3.500   0.325   2.167 -0.2881  0.0612 -0.1279
 8700TIP3    H150295   3.541   0.239   2.162 -0.7092 -0.1321 -0.2903
 8700TIP3    H250296   3.552   0.373   2.231  0.5546  0.0223 -0.7604
 8701TIP3   OH250297   7.448   4.208   3.034 -0.4867  0.1233  0.0055
 8701TIP3    H150298   7.516   4.270   3.007 -1.4200  0.4672 -1.6681
 8701TIP3    H250299   7.447   4.215   3.130  1.2564  0.7068  0.0284
 8702TIP3   OH250300   6.871   4.999   1.397 -0.1741 -0.2888 -0.5500
 8702TIP3    H150301   6.831   4.931   1.451 -0.3237 -0.4006 -0.8014
 8702TIP3    H250302   6.828   5.080   1.426  0.0415 -0.2931 -0.2161
 8703TIP3   OH250303   6.212   5.434   1.393 -0.3287 -0.3561  0.1006
 8703TIP3    H150304   6.154   5.466   1.325  1.2094  0.9232 -0.6620
 8703TIP3    H250305   6.267   5.509   1.416 -1.5827 -0.3135  3.7014
 8704TIP3   OH250306   0.326   4.336   2.002  0.2061 -0.1634  0.2328
 8704TIP3    H150307   0.291   4.422   1.979  0.1895  0.1632  1.4485
 8704TIP3    H250308   0.414   4.335   1.963  1.8999  2.0434  3.5305
 8705TIP3   OH250309   5.245   1.282   1.710  0.2428 -0.3251 -0.2797
 8705TIP3    H150310   5.233   1.188   1.721  0.2212 -0.1349  1.6331
 8705TIP3    H250311   5.156   1.317   1.709  0.2398 -0.0859  2.0096
 8706TIP3   OH250312   2.355   5.398   2.407 -0.5942  0.1642  0.0598
 8706TIP3    H150313   2.437   5.364   2.444 -0.4607  1.1540  0.7174
 8706TIP3    H250314   2.334   5.338   2.335 -0.1358 -1.0229  0.8892
 8707TIP3   OH250315   5.301   2.707   2.081  0.2228  0.3718  0.3525
 8707TIP3    H150316   5.257   2.655   2.148  2.2642 -1.9162  0.0550
 8707TIP3    H250317   5.392   2.710   2.109  0.4904  2.3203 -0.5938
 8708TIP3   OH250318   2.956   2.931   2.231  0.6965  0.2866 -0.4410
 8708TIP3    H150319   2.891   2.980   2.282  1.7988  1.1405  0.1837
 8708TIP3    H250320   3.024   2.995   2.212  1.0391 -0.4273 -1.6740
 8709TIP3   OH250321   2.694   4.034   1.622  0.1044  0.1136  0.3188
 8709TIP3    H150322   2.640   4.067   1.693 -0.4693  2.0109 -0.9288
 8709TIP3    H250323   2.676   4.092   1.549  1.3432 -1.2360 -1.1346
 8710TIP3   OH250324   0.359   1.130   0.816  0.3594 -0.2762  0.2993
 8710TIP3    H150325   0.286   1.112   0.756  0.3103 -1.5480  0.7180
 8710TIP3    H250326   0.434   1.084   0.778  1.0549  1.2977 -0.3034
 8711TIP3   OH250327   0.189   3.217   0.738  0.2903 -0.4071 -0.2788
 8711TIP3    H150328   0.221   3.254   0.656 -1.6429  1.2403 -0.3420
 8711TIP3    H250329   0.196   3.289   0.801 -0.8531 -0.7794  0.3007
 8712TIP3   OH250330   6.327   6.591   2.754 -0.1485  0.2526  0.0960
 8712TIP3    H150331   6.282   6.563   2.833  0.2895  0.9981  0.6208
 8712TIP3    H250332   6.404   6.639   2.786  0.3005  0.1391 -0.7778
 8713TIP3   OH250333   4.046   5.329   1.292  0.4706 -0.1607 -0.4425
 8713TIP3    H150334   4.108   5.305   1.361  1.7469 -1.9053 -2.0948
 8713TIP3    H250335   3.994   5.249   1.278  0.2513  0.1609 -1.5065
 8714TIP3   OH250336   2.707   1.672   1.676  0.2327  0.2188 -0.0503
 8714TIP3    H150337   2.642   1.638   1.616  0.5602 -0.9781  0.2370
 8714TIP3    H250338   2.739   1.752   1.636 -1.5880  0.9638 -0.0648
 8715TIP3   OH250339   5.863   5.913   2.324  0.9168 -0.1866 -0.0128
 8715TIP3    H150340   5.937   5.858   2.354  0.9574  0.2611  0.7459
 8715TIP3    H250341   5.792   5.892   2.385  0.4142 -0.5849 -0.7168
 8716TIP3   OH250342   4.946   7.527   1.577 -0.5413  0.0366 -0.0421
 8716TIP3    H150343   4.858   7.551   1.607 -0.7195 -0.3294 -0.2682
 8716TIP3    H250344   4.940   7.434   1.555 -0.0640 -0.0249  0.0621
 8717TIP3   OH250345   0.200   3.869   2.117 -0.2868  0.2756  0.2583
 8717TIP3    H150346   0.125   3.927   2.125 -1.3387 -1.0190  0.1189
 8717TIP3    H250347   0.202   3.843   2.025  0.5155  0.5131  0.1953
 8718TIP3   OH250348   0.849   2.854   0.552 -0.2059  0.4220  0.3127
 8718TIP3    H150349   0.882   2.904   0.627  0.6548 -2.0906  1.7130
 8718TIP3    H250350   0.757   2.838   0.573  0.0011 -0.1685  0.7918
 8719TIP3   OH250351   4.876   2.367   3.178  0.1351 -0.2482 -0.0851
 8719TIP3    H150352   4.889   2.462   3.182  0.2572 -0.2249 -0.9195
 8719TIP3    H250353   4.960   2.330   3.206 -0.1748 -0.1269  1.0670
 8720TIP3   OH250354   5.356   1.825   2.031  0.1137  0.2404  0.5855
 8720TIP3    H150355   5.264   1.806   2.008  0.4336  1.2178 -1.8752
 8720TIP3    H250356   5.352   1.909   2.076 -0.2558 -0.1401  1.2859
 8721TIP3   OH250357   3.823   4.565   0.806  1.0431 -0.0638  0.3544
 8721TIP3    H150358   3.808   4.480   0.764 -1.3663 -0.0284  1.0274
 8721TIP3    H250359   3.853   4.543   0.894  1.4889 -0.1747  0.1811
 8722TIP3   OH250360   6.056   2.009   1.710 -0.4293 -0.0764  0.9224
 8722TIP3    H150361   6.131   2.063   1.736  0.1125 -0.7367  0.7477
 8722TIP3    H250362   5.999   2.069   1.663  0.0768  0.3903  0.8890
 8723TIP3   OH250363   6.965   4.239   2.300  0.1685  0.1855  0.1583
 8723TIP3    H150364   6.979   4.196   2.384  1.3786 -0.5839 -0.4156
 8723TIP3    H250365   7.035   4.206   2.244 -0.7991  0.4221 -1.2538
 8724TIP3   OH250366   4.150   4.557   2.672  0.4280 -0.0092 -0.2297
 8724TIP3    H150367   4.219   4.618   2.700  1.0064 -1.6520  2.3149
 8724TIP3    H250368   4.196   4.474   2.659 -0.6989 -0.4992 -1.1924
 8725TIP3   OH250369   2.476   0.806   1.333  0.4795  0.2903  0.1484
 8725TIP3    H150370   2.497   0.888   1.289 -0.6286  0.5632  0.0870
 8725TIP3    H250371   2.415   0.832   1.403  0.9166 -0.3478  0.7760
 8726TIP3   OH250372   0.159   2.799   2.260 -0.7003  0.0839 -0.3911
 8726TIP3    H150373   0.069   2.772   2.239 -0.4738 -0.2046 -1.0302
 8726TIP3    H250374   0.149   2.883   2.305 -1.2944  0.0182 -0.3895
 8727TIP3   OH250375   6.489   6.625   1.009  0.0606  0.0391 -0.1659
 8727TIP3    H150376   6.439   6.705   1.023 -1.2329 -0.7811  0.0530
 8727TIP3    H250377   6.530   6.608   1.093  1.9760  1.4968 -0.7226
 8728TIP3   OH250378   5.036   1.960   2.799 -0.0746  0.2094 -0.1020
 8728TIP3    H150379   5.052   1.928   2.887  0.3914  0.7821  0.0256
 8728TIP3    H250380   4.941   1.949   2.786 -0.2441  0.6816  0.6940
 8729TIP3   OH250381   4.398   3.950   1.291 -0.4295 -0.7082  0.2623
 8729TIP3    H150382   4.380   4.006   1.366 -0.0814 -0.0113 -0.1628
 8729TIP3    H250383   4.491   3.964   1.272 -0.1610 -1.9564  0.5703
 8730TIP3   OH250384   5.814   4.888   3.166 -0.1619  0.3306 -0.5731
 8730TIP3    H150385   5.881   4.920   3.106 -1.9617  1.1708 -2.2289
 8730TIP3    H250386   5.759   4.830   3.112 -1.1138  0.1206  0.5775
 8731TIP3   OH250387   2.614   6.687   2.049 -0.2437  0.5632  0.5548
 8731TIP3    H150388   2.644   6.599   2.072 -2.3555  0.0126  1.4067
 8731TIP3    H250389   2.524   6.675   2.020  0.4642  2.0349 -2.7201
 8732TIP3   OH250390   7.074   3.490   0.565  0.2173 -0.3158 -0.0129
 8732TIP3    H150391   7.098   3.421   0.504  0.5413  0.0203 -0.2719
 8732TIP3    H250392   6.982   3.475   0.585  0.4404 -1.1871  0.4105
 8733TIP3   OH250393   3.748   5.792   0.708  0.2015  0.0437 -0.1468
 8733TIP3    H150394   3.727   5.867   0.763  2.2253 -1.2644  2.6850
 8733TIP3    H250395   3.838   5.808   0.679  0.4971 -1.0192  0.1326
 8734TIP3   OH250396   1.229   4.298   1.873  0.2437  0.8032 -0.4929
 8734TIP3    H150397   1.262   4.306   1.963  0.2936  1.1406 -0.5402
 8734TIP3    H250398   1.175   4.219   1.875 -0.2091  1.1125 -0.0229
 8735TIP3   OH250399   3.140   3.596   2.670 -0.1473  0.1812  0.0103
 8735TIP3    H150400   3.046   3.607   2.659  0.0435  0.7867 -1.1426
 8735TIP3    H250401   3.172   3.683   2.694  0.2003  0.1156 -0.2043
 8736TIP3   OH250402   6.685   5.232   2.381  0.6743 -0.0133 -0.0781
 8736TIP3    H150403   6.604   5.180   2.376 -0.3088  1.4623  0.0597
 8736TIP3    H250404   6.727   5.202   2.462 -0.9355  0.8466  1.1443
 8737TIP3   OH250405   6.028   5.319   0.520  0.0093  0.2772 -0.1606
 8737TIP3    H150406   6.010   5.295   0.429 -2.8340  1.2191  0.0419
 8737TIP3    H250407   5.944   5.354   0.553  0.9485  0.0634  2.7943
 8738TIP3   OH250408   5.079   2.190   3.216 -0.4085  0.3265 -0.0569
 8738TIP3    H150409   5.060   2.174   3.123 -3.8568 -1.1312  0.7575
 8738TIP3    H250410   5.084   2.103   3.255 -0.4313  0.9463  1.3834
 8739TIP3   OH250411   0.716   3.329   1.576  0.7138  0.7732  0.0581
 8739TIP3    H150412   0.726   3.384   1.653  0.6320 -0.3063  0.8769
 8739TIP3    H250413   0.679   3.386   1.510 -1.3868  1.2138  1.5116
 8740TIP3   OH250414   1.333   7.503   1.490 -0.1109 -0.2343  0.1115
 8740TIP3    H150415   1.363   7.446   1.420  2.1414  0.3381  0.5398
 8740TIP3    H250416   1.293   7.444   1.554 -0.2984 -0.9854 -0.6940
 8741TIP3   OH250417   7.462   1.595   2.242  0.7483 -0.4375 -0.3194
 8741TIP3    H150418   7.553   1.604   2.214  0.7794 -2.0659 -0.8500
 8741TIP3    H250419   7.468   1.547   2.325  0.4594  1.1938  0.6753
 8742TIP3   OH250420   0.068   3.416   1.819  0.3839  0.3604  0.0555
 8742TIP3    H150421   0.026   3.495   1.854  0.5448  0.8431 -0.8003
 8742TIP3    H250422   0.033   3.344   1.872 -0.1801  0.9449  0.4929
 8743TIP3   OH250423   5.558   6.328   2.170  0.2437 -0.3269 -0.1862
 8743TIP3    H150424   5.607   6.405   2.143 -1.5939  0.8878 -0.2593
 8743TIP3    H250425   5.473   6.362   2.200 -0.9501 -2.3608 -0.9830
 8744TIP3   OH250426   6.053   4.198   2.371  0.1508 -0.3634  0.3769
 8744TIP3    H150427   6.071   4.193   2.278 -0.0371  0.4789  0.2821
 8744TIP3    H250428   5.975   4.144   2.384  0.7256 -1.2575  0.2213
 8745TIP3   OH250429   6.574   6.393   2.853  0.1205 -0.5494  0.2862
 8745TIP3    H150430   6.638   6.353   2.912  1.0402  0.2523 -0.1450
 8745TIP3    H250431   6.609   6.377   2.765 -0.5522 -0.5742  0.0147
 8746TIP3   OH250432   4.960   5.546   2.156 -0.2481  0.6344  0.0661
 8746TIP3    H150433   4.917   5.473   2.110  2.7422 -0.0534 -1.8692
 8746TIP3    H250434   4.981   5.509   2.242  0.1102 -0.3862 -0.4398
 8747TIP3   OH250435   0.594   6.486   2.968  0.2045  0.4902  0.2828
 8747TIP3    H150436   0.667   6.546   2.960  1.6479 -1.0870  0.9862
 8747TIP3    H250437   0.537   6.525   3.035  0.8703  1.2728  0.4020
 8748TIP3   OH250438   2.934   2.575   0.668 -0.3672 -0.2837 -0.3055
 8748TIP3    H150439   2.874   2.648   0.679 -0.3883 -0.6608  2.8230
 8748TIP3    H250440   3.000   2.607   0.606 -1.1210  1.8695 -0.0682
 8749TIP3   OH250441   3.034   3.564   1.917 -0.6083 -0.2032  0.5328
 8749TIP3    H150442   3.030   3.481   1.869  3.7415 -0.3805  0.0819
 8749TIP3    H250443   2.983   3.548   1.996 -1.3250 -2.6887 -0.3320
 8750TIP3   OH250444   1.183   7.487   1.128 -0.7966 -0.3305  0.0503
 8750TIP3    H150445   1.266   7.476   1.174 -0.6466  0.2221 -0.0781
 8750TIP3    H250446   1.116   7.465   1.193 -0.7259  2.9571  1.4324
 8751TIP3   OH250447   1.640   6.502   2.864 -0.0241  0.2727 -0.3905
 8751TIP3    H150448   1.720   6.555   2.861  2.2322 -2.6234  2.2067
 8751TIP3    H250449   1.671   6.412   2.858 -3.5098 -0.9495 -2.9035
 8752TIP3   OH250450   7.264   1.354   2.082  0.5277 -0.8651  0.3230
 8752TIP3    H150451   7.188   1.369   2.140 -0.3176 -3.1249 -0.1190
 8752TIP3    H250452   7.314   1.285   2.125  0.5007 -1.7736 -1.0717
 8753TIP3   OH250453   7.617   3.150   1.911  0.5600 -0.4757  0.4006
 8753TIP3    H150454   7.706   3.121   1.892 -0.6189 -3.6804 -0.8736
 8753TIP3    H250455   7.590   3.099   1.987 -1.0561 -1.6440 -0.8803
 8754TIP3   OH250456   0.481   5.749   0.927  0.3087  0.0182  0.4324
 8754TIP3    H150457   0.402   5.797   0.901  0.1878 -0.0562  0.6646
 8754TIP3    H250458   0.551   5.789   0.875 -0.0484 -0.6179 -0.5892
 8755TIP3   OH250459   6.455   1.953   0.819 -0.3669  0.2220 -0.3233
 8755TIP3    H150460   6.383   2.012   0.795 -0.6026  0.3872  0.7473
 8755TIP3    H250461   6.466   1.965   0.913 -0.4290 -1.4448 -0.0718
 8756TIP3   OH250462   2.628   5.534   3.033 -0.5427 -0.6750  0.0104
 8756TIP3    H150463   2.615   5.440   3.049 -0.7801 -0.7995 -0.8525
 8756TIP3    H250464   2.664   5.538   2.944 -0.9024  0.0733 -0.1071
 8757TIP3   OH250465   6.496   6.784   3.324 -0.1455  0.7152 -0.7405
 8757TIP3    H150466   6.500   6.876   3.296  0.4377  0.5612 -1.1821
 8757TIP3    H250467   6.411   6.753   3.294 -0.2076  1.0202 -0.8828
 8758TIP3   OH250468   1.253   4.399   3.398 -0.0189  0.0327 -0.0567
 8758TIP3    H150469   1.159   4.413   3.383  0.2666  0.3088 -1.7905
 8758TIP3    H250470   1.256   4.331   3.466 -1.4709 -0.1670 -0.1487
 8759TIP3   OH250471   6.924   0.162   1.294 -0.2498  0.4436  0.0526
 8759TIP3    H150472   6.913   0.156   1.389 -0.3400 -0.3945 -0.0026
 8759TIP3    H250473   6.944   0.254   1.278  1.2574  0.3215  1.0452
 8760TIP3   OH250474   1.199   6.974   0.889 -0.3338  0.2418  0.4088
 8760TIP3    H150475   1.124   6.963   0.831  0.9470 -2.1825 -0.9550
 8760TIP3    H250476   1.273   6.986   0.830  0.5285  1.6587  1.6970
 8761TIP3   OH250477   3.388   1.509   2.792  0.1002 -0.1660 -0.3668
 8761TIP3    H150478   3.475   1.470   2.807 -0.7799 -1.3697  2.2983
 8761TIP3    H250479   3.327   1.445   2.828 -1.6418  2.2187  1.2182
 8762TIP3   OH250480   0.454   1.999   2.765 -0.2028 -0.1917  0.1595
 8762TIP3    H150481   0.518   1.930   2.783  1.7757  1.4167 -0.4147
 8762TIP3    H250482   0.370   1.952   2.759  1.2650 -2.8695 -2.1805
 8763TIP3   OH250483   7.288   7.182   3.064 -0.4804  0.3419  0.1623
 8763TIP3    H150484   7.358   7.128   3.027 -0.3361  0.3732  0.3834
 8763TIP3    H250485   7.278   7.149   3.154  0.7302  1.7283  0.8599
 8764TIP3   OH250486   0.908   6.156   6.576 -0.7074 -0.1989 -0.5473
 8764TIP3    H150487   0.868   6.233   6.617 -0.6658 -0.2462 -0.4183
 8764TIP3    H250488   0.885   6.164   6.483  2.0074  1.7151 -1.1827
 8765TIP3   OH250489   4.879   5.792   2.231  0.4669  0.4821  0.3190
 8765TIP3    H150490   4.910   5.703   2.212 -0.2667  0.4568 -0.8734
 8765TIP3    H250491   4.787   5.792   2.205  0.5021  1.6329  0.1169
 8766TIP3   OH250492   6.068   5.425   1.631  0.1931 -0.3167 -0.3687
 8766TIP3    H150493   6.067   5.520   1.626  0.9467 -0.2983 -0.1926
 8766TIP3    H250494   6.040   5.396   1.544  0.2375  0.0632 -0.5120
 8767TIP3   OH250495   1.376   5.640   2.334  0.9152 -0.3782 -0.5339
 8767TIP3    H150496   1.286   5.607   2.337  0.6440  0.2640 -1.1324
 8767TIP3    H250497   1.370   5.728   2.371  1.3467 -0.4408 -0.3203
 8768TIP3   OH250498   5.641   6.885   2.407  0.4474  0.0138  0.3430
 8768TIP3    H150499   5.624   6.972   2.442  2.6449  0.4985  0.3459
 8768TIP3    H250500   5.691   6.840   2.475 -0.0003 -1.0000  0.0332
 8769TIP3   OH250501   6.101   1.530   1.311  0.4230  0.3058 -0.2029
 8769TIP3    H150502   6.178   1.485   1.345 -0.4470  0.0266  1.4876
 8769TIP3    H250503   6.039   1.460   1.292 -0.7637  0.6659  2.0037
 8770TIP3   OH250504   2.008   6.665   0.744  0.0060 -0.4398  0.4751
 8770TIP3    H150505   2.001   6.747   0.694  1.0613 -1.4013 -1.3454
 8770TIP3    H250506   1.950   6.678   0.819  0.5770  2.2016  0.5657
 8771TIP3   OH250507   4.666   0.957   1.918 -0.1239  0.5938 -0.5168
 8771TIP3    H150508   4.631   0.871   1.943 -0.4073 -0.9079 -5.0856
 8771TIP3    H250509   4.591   1.016   1.920 -0.3847  0.2429  0.6260
 8772TIP3   OH250510   0.480   5.923   1.181 -0.3741  0.1357  0.2575
 8772TIP3    H150511   0.479   5.914   1.086  0.5855 -0.7753  0.3265
 8772TIP3    H250512   0.530   6.003   1.197 -0.8055  0.4634 -0.0019
 8773TIP3   OH250513   6.465   5.060   0.610  0.3830  0.6560  0.0154
 8773TIP3    H150514   6.371   5.075   0.617  0.2822  0.2378 -0.3531
 8773TIP3    H250515   6.474   4.964   0.605  0.9397  0.5944  1.5385
 8774TIP3   OH250516   4.742   0.561   1.071  0.3478 -0.4847 -0.5194
 8774TIP3    H150517   4.665   0.618   1.077  1.6328  1.3431 -0.7202
 8774TIP3    H250518   4.743   0.531   0.980  0.2761  0.0689 -0.7038
 8775TIP3   OH250519   7.438   7.677   2.101  0.3254 -0.6250 -0.0948
 8775TIP3    H150520   7.431   7.728   2.019 -0.2795  0.0633  0.3675
 8775TIP3    H250521   7.439   7.586   2.072 -3.6966 -0.6389 -0.7681
 8776TIP3   OH250522   6.757   4.981   8.151  0.9045  0.2736  0.0424
 8776TIP3    H150523   6.850   4.994   8.172  0.5889  1.6382  0.7166
 8776TIP3    H250524   6.747   5.021   8.065  1.1207 -0.7212 -0.4601
 8777TIP3   OH250525   1.469   2.216   1.935  0.0816  0.1652 -0.1480
 8777TIP3    H150526   1.409   2.254   1.871 -2.1516 -1.9573  0.5208
 8777TIP3    H250527   1.529   2.163   1.883  1.1257  1.8671 -0.7760
 8778TIP3   OH250528   1.157   0.267   2.715 -0.1987  0.1663  0.3710
 8778TIP3    H150529   1.142   0.362   2.721 -1.5560 -0.0466  0.7140
 8778TIP3    H250530   1.220   0.248   2.784  2.2023  1.1937 -1.4112
 8779TIP3   OH250531   5.102   6.162   0.767 -0.0691  0.6544  0.2820
 8779TIP3    H150532   5.135   6.073   0.756  1.6137  1.3942 -1.2178
 8779TIP3    H250533   5.153   6.196   0.841 -0.0428  0.6589  0.2618
 8780TIP3   OH250534   3.834   7.328   1.676 -0.5907 -0.3032  0.1487
 8780TIP3    H150535   3.804   7.269   1.606  2.2262 -0.0607 -1.4138
 8780TIP3    H250536   3.842   7.413   1.633  0.7509 -0.0367  0.8978
 8781TIP3   OH250537   3.470   1.678   1.577  0.1341 -0.1175  0.5086
 8781TIP3    H150538   3.466   1.639   1.490 -0.0104  2.3931 -0.6944
 8781TIP3    H250539   3.386   1.656   1.617 -0.9444  0.9204 -1.0535
 8782TIP3   OH250540   0.139   5.988   2.130 -0.3771 -1.1911  0.2931
 8782TIP3    H150541   0.099   6.074   2.141 -0.3596 -1.4127  2.4179
 8782TIP3    H250542   0.152   5.980   2.035  0.2136  1.4065  0.0704
 8783TIP3   OH250543   3.311   4.184   1.395  0.2487  0.1121 -0.3328
 8783TIP3    H150544   3.394   4.230   1.386  0.6806 -0.4087  0.8246
 8783TIP3    H250545   3.334   4.100   1.434 -0.6857 -0.5449 -1.1617
 8784TIP3   OH250546   6.308   4.159   1.545 -0.0041  0.1590 -0.6657
 8784TIP3    H150547   6.339   4.216   1.616  0.7665  1.0178 -1.6602
 8784TIP3    H250548   6.217   4.141   1.568 -0.1277  1.4107 -0.0694
 8785TIP3   OH250549   0.888   2.729   2.376  0.2684 -0.3678  0.1637
 8785TIP3    H150550   0.885   2.647   2.326  1.2990 -1.2649  1.4870
 8785TIP3    H250551   0.920   2.703   2.463  0.9878  1.4945  0.5052
 8786TIP3   OH250552   0.864   5.125   2.652 -0.0275  0.4254 -0.5338
 8786TIP3    H150553   0.883   5.035   2.629 -3.5539 -1.2137  1.9163
 8786TIP3    H250554   0.945   5.159   2.690  1.6311 -1.3576 -2.3288
 8787TIP3   OH250555   5.195   3.665   0.721  0.2675  0.5421  0.3627
 8787TIP3    H150556   5.117   3.610   0.714  0.3559  0.5554 -1.2536
 8787TIP3    H250557   5.267   3.602   0.729  0.2027  0.4900  0.5445
 8788TIP3   OH250558   3.457   0.670   2.357 -0.2213 -0.7249  0.0136
 8788TIP3    H150559   3.456   0.674   2.261 -1.8838 -0.7652 -0.0054
 8788TIP3    H250560   3.523   0.604   2.378  0.8156 -0.0745 -1.0533
 8789TIP3   OH250561   6.017   0.569   2.949  0.1145 -0.4115 -0.3163
 8789TIP3    H150562   6.097   0.552   2.901  0.6137  2.2963 -0.6140
 8789TIP3    H250563   6.008   0.495   3.010  2.2634 -1.2623 -0.9733
 8790TIP3   OH250564   2.944   3.191   2.824  0.1313 -0.3508 -0.4200
 8790TIP3    H150565   2.901   3.150   2.900  0.0905  0.6311  0.0963
 8790TIP3    H250566   2.973   3.276   2.856 -2.0944  1.1601 -2.1719
 8791TIP3   OH250567   6.569   3.552   0.681 -0.3779 -0.5555 -0.1669
 8791TIP3    H150568   6.636   3.545   0.748 -2.5320  1.0150  2.3191
 8791TIP3    H250569   6.553   3.646   0.672 -2.6008 -0.8818 -0.2264
 8792TIP3   OH250570   4.712   4.112   1.759 -0.7450  0.4380 -0.3224
 8792TIP3    H150571   4.790   4.062   1.734 -0.7306  0.9263 -1.2910
 8792TIP3    H250572   4.639   4.061   1.724 -0.8366  0.2847  0.0780
 8793TIP3   OH250573   0.184   0.714   2.323  0.2673  0.2334  0.1222
 8793TIP3    H150574   0.272   0.679   2.337  0.2017 -0.0166 -0.0952
 8793TIP3    H250575   0.126   0.651   2.365  0.0443 -0.6697 -1.4586
 8794TIP3   OH250576   7.306   3.943   0.365 -0.3026 -0.0231  0.1140
 8794TIP3    H150577   7.335   3.935   0.274 -0.2855 -1.1900  0.2060
 8794TIP3    H250578   7.281   4.035   0.375  2.0492  0.7370 -0.3674
 8795TIP3   OH250579   2.900   3.704   2.203  0.1666  0.2366 -0.0536
 8795TIP3    H150580   2.898   3.612   2.229  0.2949 -0.0788 -1.1098
 8795TIP3    H250581   2.929   3.750   2.282  0.6889 -0.6950  0.3211
 8796TIP3   OH250582   4.531   5.315   1.521 -0.3325  0.0222 -0.3217
 8796TIP3    H150583   4.582   5.381   1.568 -1.3483  0.2805  0.4567
 8796TIP3    H250584   4.552   5.330   1.429 -0.1033  1.0595 -0.1166
 8797TIP3   OH250585   6.652   0.242   1.259 -0.0786  0.7720  0.7263
 8797TIP3    H150586   6.617   0.250   1.348  1.2877 -1.3269  1.5280
 8797TIP3    H250587   6.746   0.228   1.271  0.3601  1.7204 -1.1520
 8798TIP3   OH250588   1.341   2.816   0.421 -0.0734 -0.1306 -0.5631
 8798TIP3    H150589   1.259   2.856   0.393 -0.4517 -0.8092 -0.4190
 8798TIP3    H250590   1.337   2.817   0.517  0.5911  0.8718 -0.5273
 8799TIP3   OH250591   0.140   7.383   0.710  0.1238 -0.7583  0.1012
 8799TIP3    H150592   0.138   7.478   0.724  0.2558 -0.9595  1.6181
 8799TIP3    H250593   0.232   7.359   0.717 -0.0066 -1.1179  0.6611
 8800TIP3   OH250594   0.327   7.534   1.524  0.0126  0.0579 -0.4690
 8800TIP3    H150595   0.356   7.444   1.541  1.4564  0.2972 -1.4666
 8800TIP3    H250596   0.298   7.533   1.433  0.8814  0.7990 -0.7620
 8801TIP3   OH250597   5.756   5.107   3.362 -0.0676 -0.3338 -0.4075
 8801TIP3    H150598   5.748   5.019   3.324 -1.0980 -0.0086 -0.9733
 8801TIP3    H250599   5.676   5.118   3.414 -0.0748  0.3673 -0.5573
 8802TIP3   OH250600   1.492   1.773   2.163 -0.4584 -0.3803 -0.1171
 8802TIP3    H150601   1.458   1.686   2.144  1.3842 -1.4918  1.2806
 8802TIP3    H250602   1.482   1.783   2.257  1.1484  0.0666  0.0396
 8803TIP3   OH250603   3.944   5.196   1.835  0.1884 -0.2713  0.2543
 8803TIP3    H150604   3.980   5.282   1.856  1.5375 -0.9521  0.8172
 8803TIP3    H250605   3.886   5.212   1.761  0.8746  1.0346 -0.0299
 8804TIP3   OH250606   6.687   2.610   2.615 -0.5651  0.0962  0.3613
 8804TIP3    H150607   6.601   2.568   2.617 -1.0323  0.7046 -2.4664
 8804TIP3    H250608   6.742   2.548   2.566 -0.2638  1.0654 -0.5602
 8805TIP3   OH250609   0.145   4.872   0.926 -0.0989  0.1162  0.5602
 8805TIP3    H150610   0.226   4.861   0.876 -0.5341 -0.8968  0.0613
 8805TIP3    H250611   0.170   4.928   0.999  0.1760  3.2463 -1.7104
 8806TIP3   OH250612   0.830   2.003   2.792 -0.0227  0.1252 -0.4432
 8806TIP3    H150613   0.880   1.988   2.712  0.6900  0.3536 -0.0408
 8806TIP3    H250614   0.853   2.092   2.819 -0.9583  0.3889 -0.4769
 8807TIP3   OH250615   0.809   6.672   0.499 -0.0106  0.1608 -0.0688
 8807TIP3    H150616   0.798   6.659   0.593 -0.9781 -1.3691 -0.3570
 8807TIP3    H250617   0.881   6.613   0.475 -2.2580 -2.4617 -0.8559
 8808TIP3   OH250618   6.033   0.560   2.382  0.3462  0.5814  1.1037
 8808TIP3    H150619   5.944   0.527   2.381  0.6199 -0.1658  1.0072
 8808TIP3    H250620   6.076   0.511   2.452  0.8902  0.3883  0.6342
 8809TIP3   OH250621   3.000   2.288   0.656  0.4647 -0.2526  0.6513
 8809TIP3    H150622   2.986   2.382   0.645  2.0555  0.0379  0.9125
 8809TIP3    H250623   2.918   2.256   0.695 -0.8809  0.6390 -1.2681
 8810TIP3   OH250624   2.157   3.643   1.524 -0.2953  0.1747 -0.5713
 8810TIP3    H150625   2.203   3.578   1.469 -2.4108 -0.4670 -1.6992
 8810TIP3    H250626   2.070   3.649   1.485 -0.8419  2.1342  0.8374
 8811TIP3   OH250627   0.440   5.355   0.456  0.3017 -0.7918 -0.2181
 8811TIP3    H150628   0.390   5.374   0.377 -0.3679 -1.3575  0.0597
 8811TIP3    H250629   0.450   5.441   0.498  0.6700 -0.4884 -0.9090
 8812TIP3   OH250630   5.959   0.804   3.086  0.1862  0.1703 -0.1016
 8812TIP3    H150631   6.005   0.743   3.029 -1.8691 -0.8637 -0.7596
 8812TIP3    H250632   5.899   0.750   3.137 -0.2863  1.4271  0.7495
 8813TIP3   OH250633   0.439   4.483   3.647  0.1298  0.0764  0.0753
 8813TIP3    H150634   0.470   4.454   3.562  0.3608 -0.0154  0.1901
 8813TIP3    H250635   0.390   4.563   3.629  0.0201 -0.0418 -0.1655
 8814TIP3   OH250636   0.651   4.450   3.121  0.2181 -0.0469  0.0570
 8814TIP3    H150637   0.731   4.501   3.113  0.7265 -0.8729 -0.3170
 8814TIP3    H250638   0.641   4.408   3.035  0.0230 -0.8505  0.4590
 8815TIP3   OH250639   0.697   2.284   1.028  0.3253  0.3261 -0.2126
 8815TIP3    H150640   0.765   2.351   1.035  1.0874 -0.5384  1.0192
 8815TIP3    H250641   0.615   2.333   1.038  0.7330  1.3601 -1.5743
 8816TIP3   OH250642   2.239   4.442   2.285  0.4026  0.0627  0.2335
 8816TIP3    H150643   2.181   4.499   2.235  1.5343  1.1966  0.1640
 8816TIP3    H250644   2.185   4.411   2.358 -0.8633 -0.5379 -0.9028
 8817TIP3   OH250645   6.409   2.609   1.192 -0.1570  0.8965 -0.0384
 8817TIP3    H150646   6.482   2.564   1.235 -0.0385 -1.3859 -2.3828
 8817TIP3    H250647   6.447   2.690   1.158  0.9256  0.3810 -0.0838
 8818TIP3   OH250648   0.239   1.255   1.497  0.1358 -0.3050 -0.0324
 8818TIP3    H150649   0.189   1.326   1.538 -0.8917 -0.5454 -0.8342
 8818TIP3    H250650   0.186   1.177   1.511  0.6683 -0.7060 -0.2144
 8819TIP3   OH250651   7.499   5.614   1.797  0.1056 -0.1439  0.5359
 8819TIP3    H150652   7.407   5.636   1.809 -0.3168 -1.7833  0.5269
 8819TIP3    H250653   7.507   5.524   1.829  1.4979 -0.3836 -0.3925
 8820TIP3   OH250654   6.591   0.818   1.800 -0.1748  0.3281 -0.4328
 8820TIP3    H150655   6.620   0.894   1.749  0.1847  0.9084  0.5993
 8820TIP3    H250656   6.572   0.854   1.887  1.4976 -1.0051  0.5481
 8821TIP3   OH250657   4.846   3.879   1.118  0.2225 -0.5261 -0.3051
 8821TIP3    H150658   4.883   3.957   1.078  0.9121 -0.7591 -0.1320
 8821TIP3    H250659   4.905   3.808   1.092 -1.0817 -1.2026 -1.4937
 8822TIP3   OH250660   4.279   3.273   2.166 -0.5513 -0.1297  0.0093
 8822TIP3    H150661   4.278   3.278   2.262 -0.1929  1.6582 -0.0504
 8822TIP3    H250662   4.200   3.321   2.139  0.2336  0.8562 -0.6090
 8823TIP3   OH250663   5.297   3.351   2.513  0.2912  0.6246 -0.3021
 8823TIP3    H150664   5.382   3.394   2.509  0.8031 -0.3840 -0.6485
 8823TIP3    H250665   5.317   3.261   2.538 -0.5561  0.0905 -1.4535
 8824TIP3   OH250666   2.331   1.189   1.357 -0.1944  0.6113 -0.1828
 8824TIP3    H150667   2.403   1.136   1.323  0.6286  1.0782  0.7975
 8824TIP3    H250668   2.257   1.128   1.363  0.5951 -0.3021  0.4340
 8825TIP3   OH250669   5.973   1.750   3.178  0.2526 -0.5491  0.6020
 8825TIP3    H150670   6.029   1.764   3.255  0.4222  0.0539  0.3767
 8825TIP3    H250671   6.011   1.674   3.134  1.8048  0.7267 -0.3437
 8826TIP3   OH250672   0.289   7.565   2.189 -0.6731 -0.5907  0.6549
 8826TIP3    H150673   0.350   7.516   2.245  1.8293  0.2338 -1.1413
 8826TIP3    H250674   0.319   7.656   2.195 -0.7730 -0.3801 -1.4043
 8827TIP3   OH250675   6.313   4.737   1.277  0.7181  0.9395  0.7899
 8827TIP3    H150676   6.346   4.779   1.198  1.1549  1.0896  1.0514
 8827TIP3    H250677   6.360   4.654   1.281 -1.7315 -0.6614 -0.9456
 8828TIP3   OH250678   5.030   6.187   2.036 -0.1900 -0.0273 -0.5574
 8828TIP3    H150679   5.022   6.269   1.987  1.5356  1.0525  0.8198
 8828TIP3    H250680   4.945   6.177   2.080 -1.6712 -0.8755 -3.3739
 8829TIP3   OH250681   0.662   7.653   0.887 -0.7118 -0.7143  0.8969
 8829TIP3    H150682   0.651   7.599   0.809  0.8224 -0.9609  0.8151
 8829TIP3    H250683   0.660   7.743   0.855  2.1366 -0.8134  0.1403
 8830TIP3   OH250684   3.093   5.960   2.965 -0.0957 -0.1859 -0.3423
 8830TIP3    H150685   3.121   6.035   3.017  1.6802  0.5263 -2.1543
 8830TIP3    H250686   3.133   5.885   3.008 -1.3148 -0.0420  1.0952
 8831TIP3   OH250687   0.730   1.035   0.858  0.2965 -0.0004  0.0796
 8831TIP3    H150688   0.711   1.085   0.937  1.6388  0.8766 -0.1224
 8831TIP3    H250689   0.764   0.951   0.889  3.0514  1.1801  0.5236
 8832TIP3   OH250690   1.068   1.525   1.234 -0.6844 -0.3377  0.0391
 8832TIP3    H150691   1.053   1.616   1.209 -0.1521 -0.4749 -0.8432
 8832TIP3    H250692   1.081   1.480   1.150  1.3025 -0.8146  0.5522
 8833TIP3   OH250693   0.230   5.868   2.397 -0.2096 -0.2299 -0.2016
 8833TIP3    H150694   0.313   5.895   2.436 -0.0562  0.2887 -0.8803
 8833TIP3    H250695   0.225   5.917   2.315 -0.9991 -0.5605 -0.3538
 8834TIP3   OH250696   6.202   5.496   2.243 -0.2615 -0.0405  0.5299
 8834TIP3    H150697   6.225   5.498   2.150  2.4310 -0.1643  1.1043
 8834TIP3    H250698   6.240   5.414   2.276  0.6411  0.9292  2.0884
 8835TIP3   OH250699   6.250   4.953   2.964 -0.2561  0.4676 -0.5127
 8835TIP3    H150700   6.283   5.035   2.927  1.9926  0.8184  1.9133
 8835TIP3    H250701   6.249   4.969   3.059 -0.6980 -1.9780 -0.0396
 8836TIP3   OH250702   0.200   2.013   1.300  0.2015 -0.0216  0.3363
 8836TIP3    H150703   0.128   1.955   1.277  0.6350  0.3338 -2.1658
 8836TIP3    H250704   0.182   2.095   1.254  2.6492 -0.2558 -1.2577
 8837TIP3   OH250705   2.580   2.609   1.692  0.3457  0.4838 -0.5919
 8837TIP3    H150706   2.672   2.588   1.710 -0.3462 -3.1245 -0.5309
 8837TIP3    H250707   2.565   2.574   1.605 -0.5377  2.8797 -1.4631
 8838TIP3   OH250708   3.401   5.590   0.655 -0.4126  0.1280  0.0924
 8838TIP3    H150709   3.411   5.674   0.701 -2.0029  0.4044 -0.0193
 8838TIP3    H250710   3.314   5.559   0.681  0.0311 -1.3565 -0.1077
 8839TIP3   OH250711   1.947   2.382   1.210 -0.2162 -0.2121 -0.0644
 8839TIP3    H150712   1.937   2.463   1.159 -2.8139 -1.7278 -2.1611
 8839TIP3    H250713   1.862   2.367   1.250 -0.6841 -3.2510 -1.9124
 8840TIP3   OH250714   3.222   0.362   2.111 -0.5313  0.5981  0.0274
 8840TIP3    H150715   3.305   0.329   2.145 -0.7604  0.6437  0.6487
 8840TIP3    H250716   3.161   0.288   2.120  0.0269 -0.3376 -2.8546
 8841TIP3   OH250717   1.228   6.309   1.193 -0.2970  0.4803  0.1782
 8841TIP3    H150718   1.217   6.332   1.285  0.5315 -0.7920  0.6253
 8841TIP3    H250719   1.141   6.319   1.154 -0.8140  0.2962  1.2756
 8842TIP3   OH250720   7.127   0.001   2.769 -0.0444  0.4015 -0.1605
 8842TIP3    H150721   7.100   0.087   2.802  1.4727  0.8244  0.0355
 8842TIP3    H250722   7.111   0.005   2.675  0.1830  0.9649 -0.1778
 8843TIP3   OH250723   2.121   6.448   0.841  0.3900  0.0298  0.1689
 8843TIP3    H150724   2.079   6.521   0.795  2.3134  0.8598 -0.4035
 8843TIP3    H250725   2.203   6.435   0.793  0.2361 -2.3382  0.4610
 8844TIP3   OH250726   1.253   7.258   0.638 -0.1225  0.0856 -0.1694
 8844TIP3    H150727   1.221   7.347   0.644 -2.1764 -0.5009 -1.4476
 8844TIP3    H250728   1.259   7.228   0.729  1.7074  1.8130  0.3562
 8845TIP3   OH250729   0.100   4.000   3.348 -0.0315  0.3397  0.2839
 8845TIP3    H150730   0.160   4.007   3.422  0.9631  1.7274 -0.6166
 8845TIP3    H250731   0.013   4.003   3.388  0.4518 -1.6044  1.5982
 8846TIP3   OH250732   5.207   4.471   0.903 -0.6179  0.3745 -0.2595
 8846TIP3    H150733   5.302   4.474   0.895 -0.6946  0.2651 -1.4772
 8846TIP3    H250734   5.187   4.525   0.979  0.3454  1.2160 -0.5863
 8847TIP3   OH250735   1.355   1.935   2.759 -0.2696  0.2506  0.1472
 8847TIP3    H150736   1.275   1.914   2.806  0.5729  0.4248  1.7457
 8847TIP3    H250737   1.371   1.859   2.702 -2.6413  1.1117 -1.8141
 8848TIP3   OH250738   2.112   2.345   2.303  0.0879  0.1118 -0.0322
 8848TIP3    H150739   2.175   2.390   2.247 -0.1458  1.6655  0.8779
 8848TIP3    H250740   2.027   2.367   2.265  0.0122 -0.5484 -0.2556
 8849TIP3   OH250741   1.402   5.638   1.066  0.1535 -0.5613 -0.0074
 8849TIP3    H150742   1.482   5.686   1.048  0.2369 -0.6199  0.2096
 8849TIP3    H250743   1.332   5.692   1.029  0.1138  0.3779  1.4054
 8850TIP3   OH250744   1.973   3.891   3.916 -0.2513  0.3407  0.5066
 8850TIP3    H150745   1.879   3.892   3.899 -0.2036 -0.8530  0.1028
 8850TIP3    H250746   1.993   3.799   3.933  0.7066  0.6983  1.4104
 8851TIP3   OH250747   2.858   5.282   2.654  0.3205  0.0489 -0.0682
 8851TIP3    H150748   2.918   5.351   2.626  1.0302 -0.5080  0.0674
 8851TIP3    H250749   2.878   5.268   2.746 -0.0724 -0.0926 -0.0016
 8852TIP3   OH250750   1.166   5.473   1.532 -0.0861  0.4616 -0.1506
 8852TIP3    H150751   1.243   5.477   1.475 -0.0158 -0.5291 -0.1442
 8852TIP3    H250752   1.103   5.533   1.492 -0.3976 -0.9071 -1.8402
 8853TIP3   OH250753   7.435   7.520   3.354 -0.2477 -0.2528 -0.0816
 8853TIP3    H150754   7.487   7.593   3.320 -0.0172 -0.2631  0.2464
 8853TIP3    H250755   7.478   7.496   3.436 -1.0476  0.0550  0.4439
 8854TIP3   OH250756   0.768   5.235   1.289  0.5200 -0.5069  0.0272
 8854TIP3    H150757   0.863   5.229   1.292  0.8893  1.7594 -2.7587
 8854TIP3    H250758   0.744   5.198   1.204 -0.5931  2.1800 -0.9511
 8855TIP3   OH250759   2.633   6.446   0.844  0.0817  0.2531 -0.3776
 8855TIP3    H150760   2.672   6.358   0.847  2.1756  1.1284 -0.3943
 8855TIP3    H250761   2.690   6.495   0.785 -2.0292  1.2244 -1.7429
 8856TIP3   OH250762   3.474   2.350   1.538  0.2827  0.0139  0.1547
 8856TIP3    H150763   3.556   2.398   1.528  0.8697 -0.9977 -0.0661
 8856TIP3    H250764   3.498   2.272   1.589 -0.4399 -0.5269 -0.3105
 8857TIP3   OH250765   0.390   3.437   1.081 -0.4133  0.5335 -0.1433
 8857TIP3    H150766   0.305   3.469   1.051 -0.5580  0.3533  0.0699
 8857TIP3    H250767   0.417   3.375   1.014 -0.2084  0.9772 -0.4744
 8858TIP3   OH250768   3.897   3.311   1.498 -0.2539 -0.0047  0.5298
 8858TIP3    H150769   3.960   3.239   1.490  1.0219  0.9359  1.5637
 8858TIP3    H250770   3.828   3.277   1.554 -0.6076 -1.0058 -0.4836
 8859TIP3   OH250771   2.214   6.865   1.405 -0.0724 -0.3690  0.1513
 8859TIP3    H150772   2.288   6.920   1.431 -0.7578  0.5589  0.1773
 8859TIP3    H250773   2.137   6.910   1.440 -0.9515  0.2910 -2.4288
 8860TIP3   OH250774   0.485   2.015   1.332 -0.5093 -0.4648 -0.0288
 8860TIP3    H150775   0.521   1.973   1.255 -1.5817  1.0245 -1.4128
 8860TIP3    H250776   0.391   1.998   1.327 -0.6363 -0.0604  0.7666
 8861TIP3   OH250777   2.089   0.027   1.839 -0.0076  0.2769 -0.0398
 8861TIP3    H150778   2.133   0.091   1.894 -0.5190  2.1106 -1.6715
 8861TIP3    H250779   1.998   0.057   1.835 -0.8110 -1.8350  0.9607
 8862TIP3   OH250780   1.240   4.399   0.570  0.0824  0.1424  0.6028
 8862TIP3    H150781   1.146   4.418   0.566  0.0026 -0.3679 -1.0429
 8862TIP3    H250782   1.249   4.317   0.520  1.4932  0.6305  0.0075
 8863TIP3   OH250783   2.969   0.404   0.525  0.6937  0.1228  0.1576
 8863TIP3    H150784   2.981   0.418   0.431  0.8094  1.5286  0.3651
 8863TIP3    H250785   2.952   0.491   0.560 -0.1793 -0.4957  1.3297
 8864TIP3   OH250786   4.951   5.906   1.748 -0.1557 -0.3631 -0.4447
 8864TIP3    H150787   4.984   5.845   1.681 -0.7625 -0.7541 -0.3885
 8864TIP3    H250788   5.021   5.972   1.756  0.1976 -0.6590 -1.0098
 8865TIP3   OH250789   1.884   3.099   1.987  0.3809  0.4604  0.1007
 8865TIP3    H150790   1.894   3.127   2.078  0.4864  0.8674 -0.0326
 8865TIP3    H250791   1.917   3.173   1.935  3.2952 -0.9535 -0.2600
 8866TIP3   OH250792   5.212   2.456   0.671  0.0849  0.1715  0.0072
 8866TIP3    H150793   5.176   2.528   0.619  0.7953 -0.2053 -1.0323
 8866TIP3    H250794   5.141   2.392   0.677 -0.1835  0.4647 -0.0071
 8867TIP3   OH250795   1.938   1.458   2.515 -0.2432  0.3349 -0.4019
 8867TIP3    H150796   1.843   1.449   2.515 -0.1961 -0.1694 -0.0112
 8867TIP3    H250797   1.957   1.509   2.436 -0.7651 -0.3161 -0.9587
 8868TIP3   OH250798   7.023   5.882   0.501  0.1188  0.0550  0.4006
 8868TIP3    H150799   6.941   5.930   0.495  0.8589  1.2425 -0.7356
 8868TIP3    H250800   7.089   5.942   0.465  1.6361 -0.5249  2.0784
 8869TIP3   OH250801   2.807   7.360   2.028  0.3058  0.1847  0.1659
 8869TIP3    H150802   2.886   7.404   2.058  1.2319 -0.3926 -1.3165
 8869TIP3    H250803   2.778   7.412   1.953  0.2878 -0.5828 -0.3699
 8870TIP3   OH250804   3.051   1.576   2.849 -0.4534  0.1296 -0.0148
 8870TIP3    H150805   2.968   1.582   2.896  0.1104 -1.0626  1.2101
 8870TIP3    H250806   3.093   1.497   2.884 -0.1061 -0.9990 -2.7745
 8871TIP3   OH250807   7.259   5.367   0.574 -0.3312 -0.1822  0.1520
 8871TIP3    H150808   7.198   5.295   0.561  0.3609 -0.5539 -1.3021
 8871TIP3    H250809   7.208   5.445   0.554 -0.9232 -0.2887  1.1607
 8872TIP3   OH250810   3.629   0.380   1.621  0.4407 -0.7238  0.3006
 8872TIP3    H150811   3.641   0.431   1.541 -0.9482 -1.0702 -0.1557
 8872TIP3    H250812   3.711   0.332   1.632  1.1328  0.3254 -0.1822
 8873TIP3   OH250813   6.067   3.856   0.804  0.6018  0.3935  0.1394
 8873TIP3    H150814   6.051   3.915   0.731 -0.3893 -1.3143 -1.1003
 8873TIP3    H250815   6.050   3.768   0.768  0.5625 -0.5396  2.2877
 8874TIP3   OH250816   6.873   5.323   3.782  0.1055  0.0038  0.1639
 8874TIP3    H150817   6.880   5.417   3.770 -0.2563  0.1025  0.6613
 8874TIP3    H250818   6.963   5.294   3.799  0.3006  0.1676 -0.5651
 8875TIP3   OH250819   6.903   6.196   2.885  0.2347 -0.0401 -0.3395
 8875TIP3    H150820   6.976   6.154   2.930  0.4495  0.8466  0.1691
 8875TIP3    H250821   6.869   6.260   2.948  1.1002  1.8691 -1.6954
 8876TIP3   OH250822   3.179   1.409   1.932  0.0582 -0.0460  0.1682
 8876TIP3    H150823   3.110   1.475   1.939 -2.2071 -2.1713 -0.4843
 8876TIP3    H250824   3.219   1.407   2.019 -1.0093  0.9493  0.7155
 8877TIP3   OH250825   2.113   7.364   2.143 -0.2874 -0.0564 -0.4292
 8877TIP3    H150826   2.083   7.281   2.107 -0.0509 -0.9811  1.3896
 8877TIP3    H250827   2.206   7.368   2.123 -0.4434  0.1479 -1.1593
 8878TIP3   OH250828   3.500   2.946   0.721 -0.2547 -0.2335  0.7704
 8878TIP3    H150829   3.561   3.002   0.768 -1.4969 -0.5361  2.8701
 8878TIP3    H250830   3.432   3.006   0.689  1.3954  0.2290 -2.2783
 8879TIP3   OH250831   6.316   0.614   2.339 -0.3613 -0.1916  0.7290
 8879TIP3    H150832   6.331   0.673   2.413  0.9678  1.2925 -0.6702
 8879TIP3    H250833   6.403   0.587   2.311 -0.3863  2.6889 -2.9084
 8880TIP3   OH250834   3.765   2.158   0.818 -0.5138 -0.1094  0.4738
 8880TIP3    H150835   3.705   2.229   0.799  0.0677  1.0493  2.5903
 8880TIP3    H250836   3.725   2.113   0.893  0.5667 -0.1231  1.0688
 8881TIP3   OH250837   7.051   6.633   1.885 -0.3235 -0.2320 -0.3185
 8881TIP3    H150838   7.129   6.648   1.831 -0.8677  1.1489 -0.7556
 8881TIP3    H250839   7.028   6.719   1.919 -2.8915 -0.1614 -1.9324
 8882TIP3   OH250840   1.825   3.146   1.421  0.1537 -0.0034  0.0859
 8882TIP3    H150841   1.796   3.064   1.382  0.1524  0.4711 -0.9353
 8882TIP3    H250842   1.765   3.160   1.495 -0.6262 -0.2885 -0.4858
 8883TIP3   OH250843   4.121   1.846   1.350 -0.1523  0.2351 -0.2108
 8883TIP3    H150844   4.030   1.855   1.377 -0.8858  2.3065 -2.9733
 8883TIP3    H250845   4.162   1.929   1.376  0.9775 -0.6417  0.9356
 8884TIP3   OH250846   1.745   4.685   0.708  0.4385  0.2902  0.1776
 8884TIP3    H150847   1.781   4.645   0.787  0.8069  1.1120  0.4346
 8884TIP3    H250848   1.681   4.621   0.676  2.3442 -1.3869 -0.5084
 8885TIP3   OH250849   0.034   3.421   1.213 -0.7669  0.5426 -0.8720
 8885TIP3    H150850  -0.040   3.370   1.245  0.9837 -0.6190  1.6744
 8885TIP3    H250851   0.024   3.507   1.254 -0.0593 -0.0529  0.6479
 8886TIP3   OH250852   2.074   0.536   2.546 -0.4603  0.0201  0.6983
 8886TIP3    H150853   2.149   0.579   2.505 -3.1785  2.5397 -2.0599
 8886TIP3    H250854   2.084   0.444   2.521  0.1624  0.8008 -2.4120
 8887TIP3   OH250855   2.482   4.477   3.692  0.2391  0.4450  0.1368
 8887TIP3    H150856   2.561   4.427   3.713 -0.3229 -0.5422 -0.0384
 8887TIP3    H250857   2.428   4.416   3.643 -0.9977  0.8160  0.9951
 8888TIP3   OH250858   1.033   6.431   1.884  0.2583  0.2962  0.6505
 8888TIP3    H150859   1.001   6.342   1.872  1.7264 -0.0399 -1.2937
 8888TIP3    H250860   1.073   6.453   1.800  0.7686  2.4473  1.4060
 8889TIP3   OH250861   1.840   2.958   1.162  0.7902  0.3570 -0.6364
 8889TIP3    H150862   1.913   2.976   1.103  0.6374  0.8280 -0.6943
 8889TIP3    H250863   1.784   3.035   1.153  0.5664  0.2504 -0.1742
 8890TIP3   OH250864   6.652   1.896   3.160 -0.2620 -0.1580  0.2172
 8890TIP3    H150865   6.727   1.954   3.150 -1.0145  0.7404 -0.4621
 8890TIP3    H250866   6.688   1.815   3.196  0.7017  1.0170  2.0314
 8891TIP3   OH250867   5.990   3.297   1.001  0.3484  0.0778 -0.4405
 8891TIP3    H150868   5.914   3.268   0.951  0.4198  0.3658 -0.7124
 8891TIP3    H250869   6.051   3.223   0.995  0.3555  0.1089 -0.7721
 8892TIP3   OH250870   6.027   7.183   0.508  0.2488 -0.1454 -0.2962
 8892TIP3    H150871   6.094   7.126   0.470  0.5969  1.6414 -2.6024
 8892TIP3    H250872   6.069   7.268   0.516 -1.2520  0.6403 -0.2797
 8893TIP3   OH250873   4.500   0.191   2.837 -0.3551 -0.3201  0.1961
 8893TIP3    H150874   4.482   0.205   2.930  2.6170 -0.2380  0.8583
 8893TIP3    H250875   4.579   0.138   2.835  1.6170  2.3833 -2.2170
 8894TIP3   OH250876   5.223   5.778   2.317 -0.3627 -0.0458 -0.4963
 8894TIP3    H150877   5.228   5.702   2.259  3.3876 -0.5087  0.1742
 8894TIP3    H250878   5.256   5.850   2.264  1.2374 -0.0763  0.3990
 8895TIP3   OH250879   2.123   6.059   3.019  0.6970  0.1955 -0.0373
 8895TIP3    H150880   2.119   6.110   3.099  0.5702  1.4336 -0.7992
 8895TIP3    H250881   2.205   6.087   2.977  0.6147 -0.2119 -0.4815
 8896TIP3   OH250882   2.648   1.095   2.700  0.2102  0.3771 -0.2535
 8896TIP3    H150883   2.626   1.007   2.667  0.7058  0.9902 -2.3606
 8896TIP3    H250884   2.566   1.144   2.693 -0.1596  0.0237  1.2660
 8897TIP3   OH250885   4.520   0.908   2.327 -0.1812  0.2233 -0.1065
 8897TIP3    H150886   4.601   0.958   2.319 -0.8233  1.3133 -0.0448
 8897TIP3    H250887   4.467   0.937   2.252 -0.1247 -1.2441 -0.7365
 8898TIP3   OH250888   3.766   1.603   1.603 -0.4134 -0.0416 -0.3656
 8898TIP3    H150889   3.677   1.607   1.568 -0.5078  0.1298 -0.1067
 8898TIP3    H250890   3.756   1.620   1.697 -0.1504 -0.4031 -0.2728
 8899TIP3   OH250891   2.103   4.893   0.666 -0.2639  0.1123 -0.4398
 8899TIP3    H150892   2.038   4.917   0.733  0.6997 -0.5952  0.7913
 8899TIP3    H250893   2.053   4.889   0.585 -1.7852 -0.4286  0.4719
 8900TIP3   OH250894   3.654   3.320   3.228  0.1269  0.2273 -0.2348
 8900TIP3    H150895   3.588   3.251   3.218 -1.3694  1.1431  2.4170
 8900TIP3    H250896   3.731   3.274   3.261 -0.9443 -0.2445  1.7915
 8901TIP3   OH250897   0.474   5.439   1.646 -0.2044  0.5880  0.7407
 8901TIP3    H150898   0.517   5.362   1.609 -1.1158  0.1855  0.5016
 8901TIP3    H250899   0.419   5.472   1.575  0.5197  1.7432  0.6860
 8902TIP3   OH250900   1.731   6.120   2.180  0.1969 -0.4442  0.1213
 8902TIP3    H150901   1.648   6.156   2.147  0.5149  0.6627  0.5054
 8902TIP3    H250902   1.717   6.025   2.180 -0.2501 -0.4288 -2.0091
 8903TIP3   OH250903   4.834   1.676   1.515 -0.5850 -0.0384  0.5505
 8903TIP3    H150904   4.896   1.726   1.566 -0.9709  0.5731  0.4298
 8903TIP3    H250905   4.754   1.729   1.515 -0.6680 -0.1412 -0.4700
 8904TIP3   OH250906   1.231   5.253   3.348  0.1449 -0.1157  0.3196
 8904TIP3    H150907   1.326   5.260   3.340  0.0097  0.4024 -0.9290
 8904TIP3    H250908   1.204   5.337   3.383  0.1065 -0.1578  0.3925
 8905TIP3   OH250909   3.790   0.098   2.534 -0.0179 -0.1450 -0.0597
 8905TIP3    H150910   3.770   0.007   2.557 -1.5902  0.3951  0.8608
 8905TIP3    H250911   3.763   0.149   2.610 -0.4694  1.2171 -1.0882
 8906TIP3   OH250912   6.643   5.653   3.000 -0.3584 -0.2377  0.5128
 8906TIP3    H150913   6.714   5.690   3.052 -0.3061  0.1829  0.1544
 8906TIP3    H250914   6.575   5.631   3.064 -0.9853  1.8494  0.6435
 8907TIP3   OH250915   1.243   5.928   2.142 -0.1371  0.5525 -0.2701
 8907TIP3    H150916   1.187   5.915   2.065 -0.1250 -0.0844 -0.1748
 8907TIP3    H250917   1.185   5.966   2.207  0.4366  3.6688 -1.4128
 8908TIP3   OH250918   6.723   4.262   0.811 -0.3987 -0.3001 -0.3937
 8908TIP3    H150919   6.684   4.190   0.762 -0.3074 -1.1343  0.7130
 8908TIP3    H250920   6.754   4.222   0.892  0.1434  0.8903  0.0171
 8909TIP3   OH250921   2.673   7.384   1.604 -0.2628  0.3574  0.0478
 8909TIP3    H150922   2.675   7.404   1.511  1.9276 -0.7854 -0.2299
 8909TIP3    H250923   2.738   7.442   1.643 -0.7513  0.4317  0.7809
 8910TIP3   OH250924   4.300   6.133   2.497 -0.0350  0.3237  0.4698
 8910TIP3    H150925   4.333   6.195   2.562 -1.7100 -0.9879  2.7192
 8910TIP3    H250926   4.340   6.161   2.415  1.5943  2.5407  1.8985
 8911TIP3   OH250927   4.062   5.715   1.699 -0.3896  0.0030 -0.0498
 8911TIP3    H150928   4.047   5.657   1.625 -0.6455 -0.5032  0.3984
 8911TIP3    H250929   4.156   5.707   1.718 -0.3909 -0.1194 -0.1014
 8912TIP3   OH250930   0.733   3.044   3.499  0.5874  0.3332  0.4474
 8912TIP3    H150931   0.656   2.988   3.509  0.2990  0.3689 -1.2285
 8912TIP3    H250932   0.700   3.122   3.453  1.5317  0.5345  0.0796
 8913TIP3   OH250933   6.446   3.462   2.523  0.5822 -0.0854 -0.2187
 8913TIP3    H150934   6.355   3.462   2.553  0.4544 -0.9806 -0.5654
 8913TIP3    H250935   6.491   3.522   2.582  0.0722 -0.8006  0.9360
 8914TIP3   OH250936   4.623   3.819   0.978 -0.2418  0.8606  0.1463
 8914TIP3    H150937   4.591   3.762   1.049 -2.3481  0.0916 -1.2905
 8914TIP3    H250938   4.712   3.842   1.004  0.3254 -2.1727  1.4021
 8915TIP3   OH250939   6.384   5.546   2.487 -0.4214 -0.0036  0.2852
 8915TIP3    H150940   6.377   5.453   2.463  0.4973  0.0543 -0.2614
 8915TIP3    H250941   6.295   5.580   2.478 -0.3841 -0.3405 -1.6236
 8916TIP3   OH250942   3.770   6.267   1.872  0.0242  0.3150 -0.5669
 8916TIP3    H150943   3.687   6.227   1.898  1.4589 -2.0149  0.7727
 8916TIP3    H250944   3.826   6.259   1.949  2.2610 -0.4462 -2.1469
 8917TIP3   OH250945   2.107   2.831   3.110 -0.4239 -0.4533 -0.0011
 8917TIP3    H150946   2.195   2.868   3.116  0.4940 -2.6093  0.9455
 8917TIP3    H250947   2.104   2.791   3.023 -1.0389  0.8557 -0.6107
 8918TIP3   OH250948   2.275   1.868   0.308 -0.2170 -0.4376  0.1050
 8918TIP3    H150949   2.310   1.907   0.388 -0.5901 -0.3910  0.2480
 8918TIP3    H250950   2.308   1.778   0.309  2.3765  0.4073 -1.2747
 8919TIP3   OH250951   2.868   4.426   0.980 -0.2889 -0.1929 -0.3869
 8919TIP3    H150952   2.847   4.415   1.073  0.5686  1.5331  0.0553
 8919TIP3    H250953   2.803   4.487   0.947 -0.4077 -0.5657 -0.8583
 8920TIP3   OH250954   4.565   0.218   3.116 -0.3519 -0.2287  0.2843
 8920TIP3    H150955   4.624   0.251   3.184 -1.7603 -0.0485  1.4689
 8920TIP3    H250956   4.541   0.131   3.146 -2.0829  0.3799  0.7856
 8921TIP3   OH250957   4.196   4.893   1.842  0.5802  0.0330 -0.1081
 8921TIP3    H150958   4.148   4.831   1.787  1.9731 -0.6652 -0.5828
 8921TIP3    H250959   4.286   4.862   1.839  0.8355  0.4602  1.9154
 8922TIP3   OH250960   3.460   5.690   2.098  0.2311 -0.1202  0.4637
 8922TIP3    H150961   3.502   5.665   2.180  1.4056  0.1717 -0.0354
 8922TIP3    H250962   3.449   5.607   2.051  1.4827 -0.0630  0.0368
 8923TIP3   OH250963   1.841   6.830   0.531 -0.2172  0.3868 -0.2294
 8923TIP3    H150964   1.774   6.874   0.479 -0.3964 -1.0390 -1.2619
 8923TIP3    H250965   1.794   6.759   0.576  0.9567 -2.8352 -3.5573
 8924TIP3   OH250966   2.178   1.776   1.214  0.0488 -0.0958 -0.0323
 8924TIP3    H150967   2.251   1.744   1.267  1.0298  1.1615 -0.5546
 8924TIP3    H250968   2.184   1.728   1.131 -0.5245 -0.9240  0.3946
 8925TIP3   OH250969   7.446   4.421   3.224  0.1051  0.1074 -0.0200
 8925TIP3    H150970   7.508   4.389   3.290 -0.0305 -1.1815 -0.5031
 8925TIP3    H250971   7.493   4.492   3.180  0.6265  0.2172  0.6940
 8926TIP3   OH250972   6.415   0.376   1.698 -0.0807  0.0075 -0.2939
 8926TIP3    H150973   6.423   0.467   1.667 -2.5560  1.0536  1.7942
 8926TIP3    H250974   6.420   0.384   1.794 -0.6438 -2.0316 -0.0671
 8927TIP3   OH250975   4.769   1.475   2.468  0.0189  0.1903 -0.1032
 8927TIP3    H150976   4.845   1.465   2.410  0.2673 -0.9291  0.3889
 8927TIP3    H250977   4.729   1.388   2.470 -0.2304  0.3208  1.0585
 8928TIP3   OH250978   2.331   0.347   0.962  0.7520 -0.1133 -0.3196
 8928TIP3    H150979   2.316   0.291   0.886 -0.3672  2.8119 -2.4437
 8928TIP3    H250980   2.425   0.340   0.978  0.9251 -1.2285 -1.6126
 8929TIP3   OH250981   3.114   6.264   0.896 -1.3967  0.8373 -0.3063
 8929TIP3    H150982   3.198   6.304   0.876 -0.8753 -1.5075 -3.8399
 8929TIP3    H250983   3.136   6.174   0.921 -2.7409 -0.2417 -2.6265
 8930TIP3   OH250984   5.871   7.093   0.722 -0.1664 -0.1383  0.1000
 8930TIP3    H150985   5.926   7.022   0.755  0.4563  0.3707  0.1772
 8930TIP3    H250986   5.918   7.125   0.645  0.5940  1.4780  1.1884
 8931TIP3   OH250987   2.777   2.883   3.287 -0.7350  0.4760 -0.0151
 8931TIP3    H150988   2.705   2.837   3.331  0.0080 -0.6128  0.1067
 8931TIP3    H250989   2.751   2.885   3.195  0.0845 -2.0190 -0.3783
 8932TIP3   OH250990   1.427   2.784   1.589 -0.0081  0.5204  0.2023
 8932TIP3    H150991   1.343   2.759   1.628 -0.4885 -0.0144 -1.1067
 8932TIP3    H250992   1.491   2.772   1.659 -0.8409 -0.3343  0.8384
 8933TIP3   OH250993   7.424   5.485   1.546 -0.2185 -0.0341  0.0259
 8933TIP3    H150994   7.367   5.465   1.472 -0.0233 -1.6983  0.3004
 8933TIP3    H250995   7.460   5.401   1.573  1.4880  0.8135  0.5886
 8934TIP3   OH250996   4.004   7.149   3.041  0.1667  0.5800 -0.1792
 8934TIP3    H150997   4.091   7.110   3.041 -0.1603 -0.2875  1.7210
 8934TIP3    H250998   3.962   7.114   3.120 -1.3289  2.2403 -0.1667
 8935TIP3   OH250999   6.597   1.720   0.652 -0.2625  0.1234 -0.3573
 8935TIP3    H151000   6.531   1.789   0.655  0.4805  0.9654 -2.0306
 8935TIP3    H251001   6.681   1.766   0.659  0.2036 -0.9358  1.8630
 8936TIP3   OH251002   0.452   5.934   1.927  0.4343  0.5347 -0.0356
 8936TIP3    H151003   0.396   5.928   1.849  0.7305  0.9974 -0.2894
 8936TIP3    H251004   0.408   5.996   1.984 -0.2269 -0.4537  0.5497
 8937TIP3   OH251005   3.980   2.051   2.028 -0.7238  0.4091 -0.4396
 8937TIP3    H151006   3.892   2.030   2.061 -0.2822 -0.7521  0.0772
 8937TIP3    H251007   4.031   2.072   2.107  0.5064 -2.9994 -0.1634
 8938TIP3   OH251008   2.712   6.384   1.307  0.0869 -0.1692 -0.1252
 8938TIP3    H151009   2.746   6.464   1.345  0.5683 -1.1774  1.6562
 8938TIP3    H251010   2.669   6.413   1.226  2.4402  1.5368 -0.8890
 8939TIP3   OH251011   5.230   0.479   3.640 -0.0805  0.3125 -0.1476
 8939TIP3    H151012   5.260   0.524   3.562 -0.5035  0.3994 -0.2573
 8939TIP3    H251013   5.297   0.412   3.656 -0.2905 -0.0896 -0.9159
 8940TIP3   OH251014   2.305   7.392   2.591 -0.0783 -0.2897 -0.2032
 8940TIP3    H151015   2.378   7.440   2.629 -1.2387  0.9412  0.5756
 8940TIP3    H251016   2.280   7.443   2.514 -0.5936 -0.2728 -0.0289
 8941TIP3   OH251017   0.746   2.025   1.625  0.5740 -0.2941  0.8514
 8941TIP3    H151018   0.693   2.081   1.683 -2.5803 -1.8399 -0.3385
 8941TIP3    H251019   0.738   1.938   1.663  1.0892 -0.8065 -0.1956
 8942TIP3   OH251020   0.073   5.909   1.232 -0.0699 -0.2567 -0.4484
 8942TIP3    H151021   0.092   6.002   1.217  0.1835 -0.3918 -0.9879
 8942TIP3    H251022   0.012   5.909   1.306 -0.5510  0.3784 -0.8259
 8943TIP3   OH251023   1.945   7.592   1.029  0.4488 -0.5555 -0.1090
 8943TIP3    H151024   2.033   7.626   1.048  0.4849 -0.7121  0.0087
 8943TIP3    H251025   1.959   7.522   0.966  0.6468 -2.0209  1.4614
 8944TIP3   OH251026   2.917   7.618   2.746 -0.0366 -0.2127  0.4562
 8944TIP3    H151027   2.917   7.532   2.704 -1.4660  0.4846 -1.0936
 8944TIP3    H251028   2.849   7.611   2.814  0.8137 -0.7053  1.2737
 8945TIP3   OH251029   2.017   3.553   1.765 -0.1416 -0.7182 -0.1371
 8945TIP3    H151030   2.043   3.591   1.849 -2.0843 -0.6602  0.4994
 8945TIP3    H251031   2.062   3.605   1.699 -0.3495  0.7164  0.8172
 8946TIP3   OH251032   7.250   4.089   2.900  0.0874  0.1955 -0.1746
 8946TIP3    H151033   7.317   4.145   2.939  1.6535 -0.0939 -2.2976
 8946TIP3    H251034   7.221   4.033   2.972  0.8897  1.4717  1.1888
 8947TIP3   OH251035   3.620   1.920   1.510  0.1650 -0.2110 -0.1101
 8947TIP3    H151036   3.556   1.985   1.480  0.0157 -0.4168 -0.2370
 8947TIP3    H251037   3.567   1.851   1.550  0.3249 -0.2528  0.0307
 8948TIP3   OH251038   4.334   5.895   2.829 -0.1407  0.2368 -0.0677
 8948TIP3    H151039   4.328   5.902   2.924  0.0168  0.6967 -0.0863
 8948TIP3    H251040   4.428   5.907   2.810  0.3075 -2.7121 -0.0728
 8949TIP3   OH251041   2.785   7.164   1.269  0.1596  0.2793 -0.2106
 8949TIP3    H151042   2.747   7.112   1.198  1.1031  0.9772 -1.2668
 8949TIP3    H251043   2.879   7.161   1.253  0.4714 -0.1665  1.4702
 8950TIP3   OH251044   5.723   0.201   2.974 -0.1391 -0.3039  0.4782
 8950TIP3    H151045   5.781   0.261   2.927 -0.7178 -0.4122 -0.4032
 8950TIP3    H251046   5.777   0.166   3.045  0.1585  1.3565  1.0927
 8951TIP3   OH251047   4.916   1.853   2.470  0.0810  0.5550 -0.3016
 8951TIP3    H151048   5.011   1.843   2.461  0.0144  1.2447 -2.1167
 8951TIP3    H251049   4.895   1.805   2.551  1.9828  0.5746  0.2635
 8952TIP3   OH251050   4.758   2.522   2.823 -0.5677 -0.4450 -0.0552
 8952TIP3    H151051   4.760   2.558   2.911 -0.3051 -1.4997  0.3839
 8952TIP3    H251052   4.664   2.513   2.803 -0.6802  1.7089 -0.7204
 8953TIP3   OH251053   4.372   1.687   1.650  0.6563  0.4232 -0.0835
 8953TIP3    H151054   4.376   1.778   1.680 -0.3861  0.6577 -0.6213
 8953TIP3    H251055   4.393   1.692   1.557 -0.2760  0.2315 -0.3122
 8954TIP3   OH251056   5.716   5.734   2.997 -0.5141  0.3426  0.0747
 8954TIP3    H151057   5.644   5.706   2.941 -1.6358 -1.2744  2.1733
 8954TIP3    H251058   5.683   5.811   3.042 -1.0491 -0.4861  1.1479
 8955TIP3   OH251059   4.128   6.519   2.559  0.0315  0.4039  0.5405
 8955TIP3    H151060   4.139   6.576   2.635 -1.3162  0.9586  0.3437
 8955TIP3    H251061   4.035   6.523   2.539  0.5426  1.4330 -2.0281
 8956TIP3   OH251062   7.197   4.060   1.163  0.6883 -0.1456 -0.1476
 8956TIP3    H151063   7.268   4.114   1.198  1.5090 -0.5788 -1.0895
 8956TIP3    H251064   7.201   3.979   1.212  0.4651  0.0507  0.1971
 8957TIP3   OH251065   1.406   1.554   1.039  0.1588  0.4427  0.4191
 8957TIP3    H151066   1.467   1.495   0.993 -1.5017  0.5322 -2.0814
 8957TIP3    H251067   1.327   1.501   1.051 -0.8870  1.7107 -0.6506
 8958TIP3   OH251068   7.504   0.673   0.677 -0.0004 -0.4653 -0.7732
 8958TIP3    H151069   7.449   0.722   0.616  1.1443  0.0697 -1.4066
 8958TIP3    H251070   7.572   0.735   0.703  0.6780 -1.3043 -0.5179
 8959TIP3   OH251071   0.775   0.294   1.587  0.3066 -0.0457 -0.0516
 8959TIP3    H151072   0.696   0.309   1.638 -0.6809 -4.0299 -0.0885
 8959TIP3    H251073   0.758   0.339   1.504 -1.4427  0.0795  0.3340
 8960TIP3   OH251074   7.451   3.456   1.410  0.2240  0.0691 -0.1569
 8960TIP3    H151075   7.479   3.480   1.499  0.7658  0.4099 -0.4184
 8960TIP3    H251076   7.431   3.363   1.416  1.3643 -0.1704  0.0549
 8961TIP3   OH251077   5.368   2.813   1.224  0.1828  0.0053  0.1924
 8961TIP3    H151078   5.410   2.778   1.302 -0.9411  0.0336  0.8357
 8961TIP3    H251079   5.388   2.749   1.155  1.5449  0.2035  0.3794
 8962TIP3   OH251080   2.526   3.074   1.938  0.0641  0.0612  0.5107
 8962TIP3    H151081   2.551   3.021   1.862  2.5207  0.6067  0.8637
 8962TIP3    H251082   2.446   3.032   1.971 -0.6761 -0.6180 -1.9044
 8963TIP3   OH251083   7.552   5.002   0.533 -0.4099  0.0672  0.2856
 8963TIP3    H151084   7.463   4.977   0.511  0.0005  0.7426 -2.5480
 8963TIP3    H251085   7.548   5.031   0.625 -3.2065  0.6789  0.0368
 8964TIP3   OH251086   5.150   6.129   3.252  0.1402  0.4078  0.6350
 8964TIP3    H151087   5.090   6.185   3.203  0.6088  0.8455  0.5434
 8964TIP3    H251088   5.104   6.109   3.333 -0.9964 -1.0404 -0.3170
 8965TIP3   OH251089   3.559   7.195   2.059  0.4197 -0.2321 -0.1563
 8965TIP3    H151090   3.628   7.179   1.995  0.3436  0.3791 -0.3894
 8965TIP3    H251091   3.595   7.162   2.141  1.6563  1.5369  0.0708
 8966TIP3   OH251092   2.727   1.520   1.921 -0.5930  0.1448 -0.1821
 8966TIP3    H151093   2.725   1.535   1.827  0.6672  1.3308 -0.0609
 8966TIP3    H251094   2.638   1.494   1.944 -1.0029  0.2112 -1.6367
 8967TIP3   OH251095   6.158   6.163   1.965  0.7320 -0.2657  0.8539
 8967TIP3    H151096   6.207   6.124   1.892  0.0785 -2.2837  1.4301
 8967TIP3    H251097   6.078   6.110   1.972 -0.5592  1.6256  1.2914
 8968TIP3   OH251098   6.312   7.111   2.625  0.1566  0.1320  0.3021
 8968TIP3    H151099   6.340   7.035   2.677  0.6594  0.2670  0.2367
 8968TIP3    H251100   6.359   7.101   2.542  0.3359  0.5917  0.3480
 8969TIP3   OH251101   1.409   5.158   1.105  0.6015  0.0279 -0.4181
 8969TIP3    H151102   1.441   5.241   1.068 -0.0279 -0.1734 -1.4625
 8969TIP3    H251103   1.321   5.179   1.137  1.4652  0.4162  1.8335
 8970TIP3   OH251104   0.282   0.034   2.922 -0.5392 -0.3099 -0.3831
 8970TIP3    H151105   0.362   0.047   2.973 -1.2909 -1.8028  1.2355
 8970TIP3    H251106   0.314   0.007   2.835  0.7077 -1.2021  0.3208
 8971TIP3   OH251107   2.583   0.394   0.674  0.1072 -0.0876  0.1637
 8971TIP3    H151108   2.557   0.388   0.766 -1.0660 -0.2978 -0.1593
 8971TIP3    H251109   2.500   0.403   0.627  0.6474 -0.7016 -0.9348
 8972TIP3   OH251110   3.513   5.978   0.934 -0.6128  0.0339  0.0783
 8972TIP3    H151111   3.466   5.984   1.017 -0.8545  2.2428 -0.1725
 8972TIP3    H251112   3.605   5.993   0.957 -0.5075 -0.5997  0.0902
 8973TIP3   OH251113   6.122   2.099   1.443 -0.0314  0.2922  0.2584
 8973TIP3    H151114   6.149   2.081   1.353  0.8927  0.9660  0.3919
 8973TIP3    H251115   6.027   2.091   1.442 -0.0043  0.0411 -0.7187
 8974TIP3   OH251116   6.668   5.122   0.876 -0.8455 -0.1395  0.8493
 8974TIP3    H151117   6.729   5.050   0.892 -1.4039 -0.2113  2.9608
 8974TIP3    H251118   6.718   5.185   0.824  0.6526 -0.7255  1.5304
 8975TIP3   OH251119   6.728   4.138   2.201  0.2853 -0.1044 -0.4386
 8975TIP3    H151120   6.776   4.203   2.251  1.0052 -2.8326  2.7912
 8975TIP3    H251121   6.795   4.079   2.167 -0.4973 -1.9708  1.0963
 8976TIP3   OH251122   4.655   5.158   2.643 -0.4039 -0.7985 -0.5221
 8976TIP3    H151123   4.595   5.129   2.574  1.2546 -1.4058 -1.7852
 8976TIP3    H251124   4.682   5.076   2.686 -0.3789 -0.5329 -0.0229
 8977TIP3   OH251125   4.115   6.341   1.600  0.0133 -0.9351  0.4462
 8977TIP3    H151126   4.052   6.375   1.664 -0.0456  1.0213 -0.5957
 8977TIP3    H251127   4.198   6.380   1.625  0.1611 -0.8498 -0.1676
 8978TIP3   OH251128   2.999   3.830   2.419 -0.8869  0.1185 -0.2898
 8978TIP3    H151129   3.093   3.812   2.417 -1.1498 -1.4443  0.4627
 8978TIP3    H251130   2.967   3.786   2.497 -2.3921 -0.0754 -0.9761
 8979TIP3   OH251131   0.396   5.200   2.453  0.1046  0.5258  0.0752
 8979TIP3    H151132   0.424   5.277   2.403  1.0739  0.9183  1.1765
 8979TIP3    H251133   0.470   5.180   2.510 -0.9002 -0.0030  1.2385
 8980TIP3   OH251134   4.061   6.434   3.276  0.0680  0.1513  0.2801
 8980TIP3    H151135   4.063   6.519   3.234  0.6849  0.0380  0.0854
 8980TIP3    H251136   4.133   6.385   3.238 -0.6477 -0.6795 -0.0611
 8981TIP3   OH251137   4.344   1.921   0.515 -0.0744 -0.2304 -0.3788
 8981TIP3    H151138   4.277   1.952   0.454 -0.2395  0.2729  0.0461
 8981TIP3    H251139   4.305   1.844   0.557 -0.5312  0.2558  0.1085
 8982TIP3   OH251140   5.236   3.550   1.243 -0.2763 -0.0878  0.2477
 8982TIP3    H151141   5.178   3.526   1.171  0.6235 -0.4550 -0.3896
 8982TIP3    H251142   5.297   3.614   1.204 -1.1096  1.3762  1.2738
 8983TIP3   OH251143   3.040   5.232   1.242  0.0741  0.1656 -1.0487
 8983TIP3    H151144   3.001   5.156   1.199  1.4737  0.5740 -3.2103
 8983TIP3    H251145   2.974   5.301   1.234 -0.7569 -0.5047 -0.0743
 8984TIP3   OH251146   3.747   4.757   2.796 -0.0406  0.0625 -0.5300
 8984TIP3    H151147   3.655   4.769   2.820 -0.2508 -0.2655 -1.1490
 8984TIP3    H251148   3.789   4.724   2.876 -0.4538  0.2230 -0.2437
 8985TIP3   OH251149   2.011   3.961   2.152 -0.1145  0.3325 -0.0861
 8985TIP3    H151150   2.098   3.940   2.187  0.3828  0.5383 -1.1543
 8985TIP3    H251151   2.001   4.055   2.170 -1.3036 -0.2075  2.4884
 8986TIP3   OH251152   3.645   0.489   2.427  0.1357 -1.2183  0.2499
 8986TIP3    H151153   3.602   0.415   2.470 -0.6987 -1.5233 -1.0600
 8986TIP3    H251154   3.737   0.464   2.424  0.2987 -1.0003  2.1870
 8987TIP3   OH251155   4.461   5.202   0.659 -0.0057 -0.1593 -0.0064
 8987TIP3    H151156   4.379   5.242   0.691 -0.9908  1.2025 -3.7341
 8987TIP3    H251157   4.519   5.277   0.643  0.6256 -0.8078 -0.7816
 8988TIP3   OH251158   7.631   3.297   2.651 -0.6642 -0.7357 -0.0117
 8988TIP3    H151159   7.587   3.375   2.618  2.0378  0.0714 -2.1221
 8988TIP3    H251160   7.620   3.302   2.746 -0.4980  2.3655 -0.0383
 8989TIP3   OH251161   0.088   4.387   1.350  0.1134  0.0135 -0.3156
 8989TIP3    H151162   0.082   4.296   1.320  1.1988  0.4807 -2.1123
 8989TIP3    H251163   0.011   4.430   1.314 -0.2598 -0.1038  0.3126
 8990TIP3   OH251164   4.434   3.056   2.550  0.3117 -0.3141  0.0864
 8990TIP3    H151165   4.437   2.965   2.522 -0.3110 -0.2950 -0.0460
 8990TIP3    H251166   4.526   3.083   2.553  0.4446 -0.6355 -0.8989
 8991TIP3   OH251167   1.271   2.768   2.184  0.1585  0.2600  0.5453
 8991TIP3    H151168   1.219   2.773   2.104 -0.4546 -0.3422  0.8903
 8991TIP3    H251169   1.357   2.736   2.156  0.6484  2.0504 -0.1517
 8992TIP3   OH251170   1.769   6.233   1.170 -0.3510  0.4148  0.1376
 8992TIP3    H151171   1.788   6.276   1.086 -2.6419 -0.0309 -0.6864
 8992TIP3    H251172   1.688   6.275   1.200  0.4539  0.6049  2.1872
 8993TIP3   OH251173   0.092   0.010   3.146  0.4314  0.1747 -0.8608
 8993TIP3    H151174   0.178   0.006   3.106 -0.0249 -0.9347 -1.7889
 8993TIP3    H251175   0.107  -0.011   3.238  1.2395  0.7808 -0.8435
 8994TIP3   OH251176   4.181   4.227   1.869 -0.3161 -0.7092 -0.3571
 8994TIP3    H151177   4.138   4.311   1.853 -0.8418 -1.1111 -1.1118
 8994TIP3    H251178   4.153   4.171   1.797  1.3638 -1.0461 -0.7987
 8995TIP3   OH251179   0.755   6.171   2.072 -0.0215  0.7064  0.5293
 8995TIP3    H151180   0.783   6.146   2.160  0.2793 -0.5417  0.1112
 8995TIP3    H251181   0.673   6.219   2.086 -1.6073 -1.9628  1.4002
 8996TIP3   OH251182   7.437   2.970   1.559  0.1877  0.3814 -0.2280
 8996TIP3    H151183   7.383   2.954   1.482  1.3349 -2.1219 -0.6229
 8996TIP3    H251184   7.374   2.974   1.631 -0.7597  0.8460 -1.0583
 8997TIP3   OH251185   5.818   7.593   0.740  0.2089 -0.4967 -0.4749
 8997TIP3    H151186   5.884   7.621   0.676 -0.3577 -0.5633 -1.1058
 8997TIP3    H251187   5.831   7.651   0.815 -0.3581  0.8957 -1.4122
 8998TIP3   OH251188   6.028   1.745   1.884  0.2565 -0.2655 -0.1307
 8998TIP3    H151189   5.982   1.761   1.967 -0.9555 -2.5450 -0.2721
 8998TIP3    H251190   5.972   1.786   1.818  0.1349 -0.2334 -0.0096
 8999TIP3   OH251191   4.952   6.308   3.203 -0.0360  0.4791 -0.6073
 8999TIP3    H151192   4.912   6.389   3.232  1.0919  0.9071 -0.1901
 8999TIP3    H251193   4.881   6.260   3.160 -0.6123  1.8780 -1.2793
 9000TIP3   OH251194   6.853   0.037   1.786 -0.2948 -0.0965 -0.4192
 9000TIP3    H151195   6.946   0.016   1.796 -0.0145  1.2217 -0.0014
 9000TIP3    H251196   6.831   0.086   1.865 -1.8502 -1.9420  0.3914
 9001TIP3   OH251197   3.155   3.786   0.536  0.3349  0.2199  0.4269
 9001TIP3    H151198   3.175   3.737   0.456 -0.9291 -1.0023  0.8278
 9001TIP3    H251199   3.222   3.854   0.540  0.1521  0.6316 -1.9434
 9002TIP3   OH251200   6.771   0.408   0.945 -0.1532 -0.4384  0.0563
 9002TIP3    H151201   6.688   0.431   0.902 -0.5981 -2.3547 -0.2139
 9002TIP3    H251202   6.830   0.479   0.922 -1.3069  0.2097 -1.0453
 9003TIP3   OH251203   3.985   4.365   2.900  0.7768  0.0648 -0.3961
 9003TIP3    H151204   4.031   4.351   2.817  1.8683  1.0983  0.0050
 9003TIP3    H251205   4.003   4.286   2.951  0.2248 -0.5107 -1.0646
 9004TIP3   OH251206   6.018   3.604   1.612 -0.0516  0.0964  0.1099
 9004TIP3    H151207   6.084   3.558   1.665  1.1875 -0.7379 -2.0390
 9004TIP3    H251208   6.070   3.651   1.547 -1.5463  0.7181 -0.6553
 9005TIP3   OH251209   3.628   3.029   3.134 -0.2441  0.1016 -0.7746
 9005TIP3    H151210   3.597   2.939   3.134 -0.8078  0.2605 -2.3318
 9005TIP3    H251211   3.692   3.033   3.062  1.0339  0.5606  0.3364
 9006TIP3   OH251212   3.725   4.226   3.389 -0.4201 -0.6274  0.0555
 9006TIP3    H151213   3.633   4.248   3.397 -0.5553 -1.3549  0.5849
 9006TIP3    H251214   3.732   4.136   3.420  0.4985 -0.5189  0.2176
 9007TIP3   OH251215   7.011   5.944   0.894 -0.1644  0.2453  0.2369
 9007TIP3    H151216   7.091   5.925   0.844  0.5395 -1.0866  1.7634
 9007TIP3    H251217   7.031   6.025   0.940 -0.1266  0.5176 -0.2541
 9008TIP3   OH251218   0.622   5.085   2.760 -0.3838 -0.1755 -0.8388
 9008TIP3    H151219   0.601   5.177   2.778 -1.3547 -0.1266 -2.0946
 9008TIP3    H251220   0.710   5.087   2.725 -0.0548  0.1682 -0.0168
 9009TIP3   OH251221   4.211   2.092   1.529  0.1203  0.2747  0.5149
 9009TIP3    H151222   4.295   2.128   1.503  0.4629 -0.4091  0.6615
 9009TIP3    H251223   4.152   2.168   1.532  0.8495  0.8335  0.9245
 9010TIP3   OH251224   0.301   2.940   1.502 -0.1774  0.0880  0.0559
 9010TIP3    H151225   0.365   3.009   1.519 -0.1455  0.2013 -0.5296
 9010TIP3    H251226   0.219   2.986   1.485 -0.0897 -0.0001 -0.6329
 9011TIP3   OH251227   6.840   3.101   1.140 -0.1458  0.8085 -0.3208
 9011TIP3    H151228   6.856   3.123   1.232  0.0978  0.2756 -0.2356
 9011TIP3    H251229   6.769   3.160   1.113 -0.2787  0.9005  0.2324
 9012TIP3   OH251230   0.084   5.613   0.600  0.2737 -0.4145 -0.6617
 9012TIP3    H151231  -0.010   5.603   0.587  0.3162  0.4647 -1.8919
 9012TIP3    H251232   0.123   5.542   0.550  0.2727 -0.8365 -0.0735
 9013TIP3   OH251233   6.117   6.338   0.606 -0.3155  0.6811 -0.0355
 9013TIP3    H151234   6.121   6.380   0.691 -0.5856  0.1000  0.2656
 9013TIP3    H251235   6.034   6.367   0.568 -0.6119  0.2343  0.2701
 9014TIP3   OH251236   3.112   7.581   0.355  0.2361 -0.1648  0.2436
 9014TIP3    H151237   3.196   7.619   0.330  0.2776 -0.3713  0.0702
 9014TIP3    H251238   3.097   7.613   0.444  1.6667 -2.0759  1.2307
 9015TIP3   OH251239   0.999   2.868   2.955 -0.0425  0.5330  0.2524
 9015TIP3    H151240   0.984   2.775   2.938  0.4180  0.5134 -0.0511
 9015TIP3    H251241   0.953   2.914   2.885  0.3572  0.5097 -0.0252
 9016TIP3   OH251242   5.972   2.288   2.365 -0.5295  0.0094 -0.3322
 9016TIP3    H151243   5.999   2.306   2.274 -0.2247 -1.9156 -0.6633
 9016TIP3    H251244   6.052   2.257   2.408 -0.8120  0.3400  0.4503
 9017TIP3   OH251245   5.642   7.106   1.369 -0.5990  0.0671  0.4061
 9017TIP3    H151246   5.688   7.038   1.418  1.4513  2.5416  2.1445
 9017TIP3    H251247   5.693   7.116   1.288 -0.1742  0.3664  0.7088
 9018TIP3   OH251248   0.452   2.303   1.342  0.3460 -0.3326  0.4651
 9018TIP3    H151249   0.376   2.299   1.284  0.9452 -0.0404 -0.3547
 9018TIP3    H251250   0.495   2.218   1.332 -0.2088 -0.7427  1.4157
 9019TIP3   OH251251   6.913   6.465   1.541 -0.0377 -0.3435 -0.3226
 9019TIP3    H151252   6.938   6.431   1.455  0.0228  1.2418 -0.9801
 9019TIP3    H251253   6.935   6.396   1.602  0.8307 -1.1333 -1.4835
 9020TIP3   OH251254   4.684   4.001   1.311 -0.3415  0.7788  0.1596
 9020TIP3    H151255   4.759   4.036   1.360 -0.6691 -0.5693  1.7110
 9020TIP3    H251256   4.723   3.958   1.235  0.4391  0.4800  0.7180
 9021TIP3   OH251257   5.458   3.064   0.876 -0.2588 -0.5578  0.0014
 9021TIP3    H151258   5.505   3.000   0.929  1.9862  0.9296 -0.0728
 9021TIP3    H251259   5.411   3.011   0.811 -0.3382 -2.2168  1.3493
 9022TIP3   OH251260   6.454   1.424   2.683  0.3991  0.4084 -0.2911
 9022TIP3    H151261   6.429   1.332   2.694 -2.4491  1.0881 -0.2268
 9022TIP3    H251262   6.503   1.425   2.601  1.3331 -1.2670  0.1808
 9023TIP3   OH251263   7.589   4.777   2.843  0.4173 -0.0555  0.1129
 9023TIP3    H151264   7.642   4.774   2.763 -0.7098 -1.1869 -0.6355
 9023TIP3    H251265   7.631   4.843   2.897  1.8259 -0.0008 -0.9840
 9024TIP3   OH251266   6.835   5.276   0.693 -0.2537 -0.9011  0.7599
 9024TIP3    H151267   6.755   5.286   0.641  0.1201 -0.7151  0.2177
 9024TIP3    H251268   6.900   5.243   0.631  0.9733  1.9174  0.3758
 9025TIP3   OH251269   4.552   2.663   1.147  0.3371  0.1894 -0.0531
 9025TIP3    H151270   4.631   2.616   1.124  0.4734  1.0014 -1.3951
 9025TIP3    H251271   4.481   2.603   1.125  0.5169 -1.6380  3.6828
 9026TIP3   OH251272   7.480   6.792   1.520 -0.1528 -0.0729 -0.6798
 9026TIP3    H151273   7.455   6.758   1.434  0.7257 -0.9477 -0.6105
 9026TIP3    H251274   7.559   6.742   1.543  2.0905  2.9278 -1.1627
 9027TIP3   OH251275   0.504   6.843   2.364 -0.1131 -0.3808  0.0045
 9027TIP3    H151276   0.589   6.868   2.402  0.1421 -1.4853  0.1892
 9027TIP3    H251277   0.450   6.819   2.439  0.7038 -3.5370 -0.2707
 9028TIP3   OH251278   1.266   2.833   0.958 -0.0162  0.0774  0.4850
 9028TIP3    H151279   1.250   2.825   1.052 -3.0122  2.1714  0.3041
 9028TIP3    H251280   1.360   2.850   0.951  0.2288  0.2477  3.1366
 9029TIP3   OH251281   0.683   1.898   0.434 -0.0194  0.1380 -0.0433
 9029TIP3    H151282   0.761   1.908   0.489  0.2065  2.1686 -0.6453
 9029TIP3    H251283   0.693   1.812   0.392  1.4565  0.0032  0.5298
 9030TIP3   OH251284   7.525   6.991   2.173  0.0272 -0.0074 -0.0011
 9030TIP3    H151285   7.433   6.965   2.182  0.6432 -2.3111  0.2824
 9030TIP3    H251286   7.555   7.004   2.263  0.4528 -1.2158  0.0530
 9031TIP3   OH251287   3.395   6.452   2.486  0.1160  0.1909 -0.1928
 9031TIP3    H151288   3.401   6.449   2.582  0.0118  0.8028 -0.1621
 9031TIP3    H251289   3.341   6.377   2.463  2.5245 -1.7475  0.0060
 9032TIP3   OH251290   6.201   1.015   2.735  0.2490  0.1085 -0.2229
 9032TIP3    H151291   6.206   1.054   2.822 -1.0282 -0.1208 -0.0371
 9032TIP3    H251292   6.148   1.076   2.684 -0.3331 -0.5330 -0.3961
 9033TIP3   OH251293   0.847   6.869   2.172  0.3535 -0.1815  0.2913
 9033TIP3    H151294   0.922   6.927   2.181 -1.0386  1.6771  0.6262
 9033TIP3    H251295   0.873   6.789   2.218  2.6347 -0.1881 -0.8622
 9034TIP3   OH251296   4.058   2.151   2.270  0.0990 -0.9297  0.4214
 9034TIP3    H151297   4.030   2.096   2.344 -0.3020 -2.3242 -0.7167
 9034TIP3    H251298   4.153   2.136   2.264  0.0144 -1.4034  0.2076
 9035TIP3   OH251299   7.322   0.596   3.424  0.0821  0.1647  0.2523
 9035TIP3    H151300   7.313   0.595   3.329 -0.0462 -0.6019  0.2663
 9035TIP3    H251301   7.373   0.518   3.445  0.5037  0.5727  0.7801
 9036TIP3   OH251302   5.043   0.081   0.834 -0.1520  0.0450  0.0729
 9036TIP3    H151303   5.123   0.132   0.827 -0.1421 -0.1502 -1.7912
 9036TIP3    H251304   5.002   0.111   0.915  0.0972  2.6910 -0.6723
 9037TIP3   OH251305   6.063   4.760   3.220 -0.1231 -0.0359  0.4052
 9037TIP3    H151306   6.094   4.715   3.142 -0.3883 -1.0169  0.8540
 9037TIP3    H251307   5.969   4.741   3.224 -0.4266  1.3018  0.1193
 9038TIP3   OH251308   3.371   6.078   1.713  0.3185 -0.5208 -0.2324
 9038TIP3    H151309   3.352   5.996   1.760 -0.2457 -0.8607 -1.0374
 9038TIP3    H251310   3.331   6.066   1.627 -0.2111  0.8083 -0.1861
 9039TIP3   OH251311   0.574   3.883   0.606  0.4123 -0.6005 -0.0165
 9039TIP3    H151312   0.606   3.822   0.672  1.4288 -2.5939 -2.1930
 9039TIP3    H251313   0.521   3.829   0.547 -2.1945  1.4813  0.1823
 9040TIP3   OH251314   4.267   6.086   1.187  0.2663 -0.3063 -0.2719
 9040TIP3    H151315   4.264   6.113   1.279 -0.1817 -0.9364 -0.0935
 9040TIP3    H251316   4.339   6.023   1.183 -0.8430 -1.6234  0.0320
 9041TIP3   OH251317   4.318   6.354   3.236  0.3095 -0.2650 -0.1487
 9041TIP3    H151318   4.333   6.433   3.287  0.9991 -1.1990  1.1420
 9041TIP3    H251319   4.392   6.350   3.175  0.9359 -0.5457  0.6180
 9042TIP3   OH251320   6.485   3.989   2.200  0.0894  0.2725  0.2799
 9042TIP3    H151321   6.402   4.035   2.191 -0.3837 -0.1690  1.9967
 9042TIP3    H251322   6.544   4.053   2.241 -0.0815 -0.1032  1.1347
 9043TIP3   OH251323   4.217   2.265   0.635  0.5219  0.3254 -0.1414
 9043TIP3    H151324   4.199   2.284   0.727 -1.7192  0.1155 -0.4828
 9043TIP3    H251325   4.175   2.180   0.619  0.0374  0.8049 -1.5911
 9044TIP3   OH251326   1.829   4.247   1.149 -0.4599 -0.0741 -0.2732
 9044TIP3    H151327   1.852   4.311   1.083 -1.2939  0.4435 -0.0800
 9044TIP3    H251328   1.895   4.257   1.217 -0.5858  0.5839 -0.2460
 9045TIP3   OH251329   0.740   3.103   0.452 -0.3632  0.0647  0.5531
 9045TIP3    H151330   0.776   3.114   0.364 -0.7381 -1.3974  0.1718
 9045TIP3    H251331   0.769   3.016   0.479  1.2375  1.1553  2.6442
 9046TIP3   OH251332   2.009   4.529   0.808  0.0761 -0.2657  0.0845
 9046TIP3    H151333   1.985   4.452   0.859 -0.3807 -0.9500 -1.0985
 9046TIP3    H251334   2.053   4.493   0.730 -1.3381  0.5567 -1.1536
 9047TIP3   OH251335   5.774   6.351   1.360  0.3362  0.1032  0.1609
 9047TIP3    H151336   5.755   6.335   1.452 -0.5234  0.4564  0.0620
 9047TIP3    H251337   5.746   6.442   1.345  0.9610  0.2285 -0.3235
 9048TIP3   OH251338   6.076   4.552   0.937  0.0927  0.2566 -0.4407
 9048TIP3    H151339   6.021   4.588   1.006  1.5675  1.3536  0.2213
 9048TIP3    H251340   6.023   4.561   0.858 -1.1918  0.0180  0.3537
 9049TIP3   OH251341   1.141   2.615   0.842 -0.4907 -0.4594  0.3176
 9049TIP3    H151342   1.195   2.660   0.907 -0.2142 -0.3858  0.0426
 9049TIP3    H251343   1.201   2.554   0.799 -0.4329  0.1415 -0.4993
 9050TIP3   OH251344   5.909   4.360   1.990 -0.2736  0.1896  0.0649
 9050TIP3    H151345   5.817   4.340   2.010 -0.0585 -0.2931  0.5851
 9050TIP3    H251346   5.904   4.432   1.927 -0.9927  0.8488  0.8456
 9051TIP3   OH251347   0.021   4.612   1.543  0.0009 -0.5123 -0.0349
 9051TIP3    H151348  -0.001   4.528   1.503 -1.0565 -0.4044  0.3027
 9051TIP3    H251349   0.009   4.676   1.473  0.1745 -0.5598 -0.1098
 9052TIP3   OH251350   1.968   4.212   2.222 -0.0821  0.4982 -0.5121
 9052TIP3    H151351   1.992   4.272   2.292  2.2174  0.4950 -1.2486
 9052TIP3    H251352   1.978   4.262   2.142 -2.0048  0.2840 -0.9345
 9053TIP3   OH251353   6.042   1.705   0.890  0.6446 -0.1636 -0.6403
 9053TIP3    H151354   5.992   1.711   0.971  0.5693  0.3886 -0.7288
 9053TIP3    H251355   6.061   1.611   0.881 -0.9169 -0.4792 -0.9284
 9054TIP3   OH251356   2.745   0.204   1.960 -0.1314  0.1029  0.4061
 9054TIP3    H151357   2.786   0.290   1.950 -1.3660  0.4847 -1.7808
 9054TIP3    H251358   2.660   0.222   2.000  0.1033 -0.2493  1.0779
 9055TIP3   OH251359   2.543   3.577   3.447  0.1118 -1.2029 -0.0771
 9055TIP3    H151360   2.560   3.626   3.527  1.5535  0.0360 -1.0890
 9055TIP3    H251361   2.448   3.567   3.444 -0.0613 -0.0362  1.0628
 9056TIP3   OH251362   4.242   3.548   3.066  0.0176 -0.2476  0.5332
 9056TIP3    H151363   4.324   3.591   3.042 -0.6978  0.4152 -0.9099
 9056TIP3    H251364   4.247   3.461   3.026 -0.0511 -0.1368  0.2799
 9057TIP3   OH251365   7.646   1.113   2.508  0.3320 -0.3197 -0.0229
 9057TIP3    H151366   7.697   1.180   2.555 -0.1370 -0.0083  0.0473
 9057TIP3    H251367   7.558   1.149   2.504  0.2123 -0.6627 -0.5328
 9058TIP3   OH251368   1.666   5.732   2.210 -0.5133 -0.4482  0.3324
 9058TIP3    H151369   1.615   5.779   2.144 -0.1616 -1.2061 -0.4820
 9058TIP3    H251370   1.600   5.698   2.271 -0.7825  1.0347  0.9195
 9059TIP3   OH251371   3.811   3.093   2.360 -0.0250  0.2188  0.1402
 9059TIP3    H151372   3.867   3.169   2.348  0.0008  0.2999  0.7811
 9059TIP3    H251373   3.797   3.087   2.454 -1.8588  0.7628 -0.0586
 9060TIP3   OH251374   5.800   4.109   2.435 -0.3892  0.2844  0.6180
 9060TIP3    H151375   5.798   4.177   2.502 -1.0561  0.8754  0.0075
 9060TIP3    H251376   5.767   4.031   2.479 -2.7146  1.1344  0.4762
 9061TIP3   OH251377   1.003   4.618   1.512  0.4539  0.2767 -0.1471
 9061TIP3    H151378   0.977   4.556   1.444 -0.4600 -0.3823  0.7692
 9061TIP3    H251379   1.095   4.636   1.495  0.0656  0.6998 -1.9894
 9062TIP3   OH251380   3.503   1.908   0.774 -0.2040 -0.1675 -1.0237
 9062TIP3    H151381   3.457   1.874   0.698  1.1691 -2.6098 -0.8705
 9062TIP3    H251382   3.596   1.907   0.749  0.1924 -0.0813  0.3245
 9063TIP3   OH251383   7.597   3.010   2.622  0.1129  0.2166 -0.1795
 9063TIP3    H151384   7.557   3.096   2.629 -1.4981 -0.5965  1.2961
 9063TIP3    H251385   7.602   2.994   2.527 -1.0221  1.2807 -0.4426
 9064TIP3   OH251386   5.641   1.230   2.769 -0.6001 -0.1774 -0.0603
 9064TIP3    H151387   5.621   1.151   2.821  0.0993 -0.7386 -0.6216
 9064TIP3    H251388   5.729   1.254   2.796  0.5099 -1.5240 -2.2187
 9065TIP3   OH251389   6.058   4.033   3.420  0.8844  0.0153 -0.1798
 9065TIP3    H151390   6.099   4.107   3.376  1.6984 -1.7486 -2.6932
 9065TIP3    H251391   6.128   3.968   3.427  0.2263 -0.5419  2.0212
 9066TIP3   OH251392   5.289   2.725   1.494  0.1234  0.0199  0.4887
 9066TIP3    H151393   5.377   2.721   1.532  0.9179 -0.1434 -1.2852
 9066TIP3    H251394   5.258   2.635   1.495  0.5930 -0.1526 -0.2528
 9067TIP3   OH251395   0.497   5.877   2.516  0.5476  0.3866 -0.2754
 9067TIP3    H151396   0.566   5.834   2.466 -0.1734 -2.3693  0.8528
 9067TIP3    H251397   0.527   5.871   2.607  0.0322  1.6080 -0.0155
 9068TIP3   OH251398   5.583   1.108   2.339 -0.2266 -0.0210 -0.3287
 9068TIP3    H151399   5.600   1.073   2.427  1.7412  0.3254 -0.5212
 9068TIP3    H251400   5.580   1.203   2.351 -0.7625 -0.0153 -0.5129
 9069TIP3   OH251401   3.673   2.849   2.661  0.2586 -0.0590  0.8111
 9069TIP3    H151402   3.741   2.915   2.672  1.6071 -1.4459  1.2920
 9069TIP3    H251403   3.604   2.893   2.612  3.3644  0.3623 -3.9644
 9070TIP3   OH251404   6.400   1.869   2.064 -0.4592  0.0978  0.0530
 9070TIP3    H151405   6.428   1.793   2.115 -1.1159  0.0702  0.3849
 9070TIP3    H251406   6.317   1.842   2.026 -0.5989  0.5831  0.0137
 9071TIP3   OH251407   6.105   6.321   2.175  0.1351 -0.3766  0.1808
 9071TIP3    H151408   6.137   6.267   2.104 -1.3760 -2.0359  0.6876
 9071TIP3    H251409   6.053   6.262   2.229  1.3635  0.7748  2.7900
 9072TIP3   OH251410   5.283   1.116   2.295 -0.1414  1.0237 -0.0706
 9072TIP3    H151411   5.283   1.115   2.391  0.8196  0.9971 -0.0642
 9072TIP3    H251412   5.342   1.045   2.271 -0.7522  0.7138 -0.6973
 9073TIP3   OH251413   5.484   5.708   2.837 -0.3699  0.6015 -0.3832
 9073TIP3    H151414   5.445   5.784   2.879 -2.8940 -0.9410  0.3084
 9073TIP3    H251415   5.464   5.718   2.744  1.4980  1.9283 -0.6955
 9074TIP3   OH251416   6.293   3.590   1.991  0.4844 -0.9203  0.1995
 9074TIP3    H151417   6.382   3.558   2.007  0.0710 -1.4431  1.5662
 9074TIP3    H251418   6.237   3.532   2.043 -0.6568 -0.5302 -0.5525
 9075TIP3   OH251419   6.439   5.950   2.641  0.2325 -0.2836 -0.5933
 9075TIP3    H151420   6.472   5.861   2.656 -0.2791 -0.5236 -0.9014
 9075TIP3    H251421   6.348   5.938   2.614 -0.2852  0.4049  0.7646
 9076TIP3   OH251422   2.643   0.667   1.001  0.1218 -0.2163  0.5173
 9076TIP3    H151423   2.655   0.757   0.972  1.7408 -1.0089 -1.4798
 9076TIP3    H251424   2.680   0.665   1.089  0.3764  0.9838  0.4529
 9077TIP3   OH251425   7.250   5.565   2.522 -0.5671 -0.1942 -0.6578
 9077TIP3    H151426   7.334   5.609   2.506 -0.6527 -0.0033 -0.5862
 9077TIP3    H251427   7.243   5.560   2.617  0.3038 -2.0310 -0.6591
 9078TIP3   OH251428   4.861   4.403   2.678 -0.1556 -0.1916  0.3965
 9078TIP3    H151429   4.906   4.318   2.685 -0.9062 -0.5927  0.5288
 9078TIP3    H251430   4.908   4.449   2.608 -0.9718 -1.5184 -1.1028
 9079TIP3   OH251431   4.623   5.958   2.841  0.5154  0.1253 -0.3307
 9079TIP3    H151432   4.663   6.045   2.837 -1.1199  0.8896 -1.0273
 9079TIP3    H251433   4.646   5.925   2.928  0.8573  1.4109  0.0948
 9080TIP3   OH251434   4.369   1.953   1.150  0.0712 -0.1639 -0.0489
 9080TIP3    H151435   4.368   1.870   1.197 -0.4735  0.6357  1.4316
 9080TIP3    H251436   4.312   1.939   1.074  0.1283 -1.1833  0.0893
 9081TIP3   OH251437   2.896   6.691   2.891 -0.8085 -0.1403 -0.3281
 9081TIP3    H151438   2.907   6.664   2.982  1.5349 -0.0768 -0.5421
 9081TIP3    H251439   2.920   6.614   2.840  3.0747  1.2061 -0.8899
 9082TIP3   OH251440   4.175   1.385   2.598  0.6718 -0.2382  0.1170
 9082TIP3    H151441   4.172   1.433   2.681  0.6301 -1.2824  0.7518
 9082TIP3    H251442   4.267   1.390   2.572  0.7817 -0.2884  0.4775
 9083TIP3   OH251443   6.252   4.292   2.923 -0.3067  0.2194  0.0910
 9083TIP3    H151444   6.307   4.363   2.888 -0.3591 -0.5118 -1.5922
 9083TIP3    H251445   6.303   4.257   2.996  0.5744  0.8070 -0.2116
 9084TIP3   OH251446   3.360   1.807   0.562 -0.8754  0.4306  0.4286
 9084TIP3    H151447   3.321   1.765   0.485  0.3915 -0.0006  0.0008
 9084TIP3    H251448   3.339   1.900   0.552 -1.5224  0.2530  0.0666
 9085TIP3   OH251449   1.369   3.571   3.799 -0.4416  0.0566  1.0471
 9085TIP3    H151450   1.334   3.656   3.826 -1.5126 -0.0047 -0.0324
 9085TIP3    H251451   1.294   3.526   3.760  0.7430 -0.2100 -1.1012
 9086TIP3   OH251452   7.560   0.747   2.302  0.2967  0.9339 -0.1297
 9086TIP3    H151453   7.654   0.761   2.312  0.6174  0.9464 -2.5573
 9086TIP3    H251454   7.551   0.651   2.302  0.4302  0.9168 -0.6450
 9087TIP3   OH251455   1.755   0.870   2.130  0.2861  0.2446  0.4166
 9087TIP3    H151456   1.786   0.780   2.124 -2.1302 -0.8060  1.9897
 9087TIP3    H251457   1.671   0.863   2.176  0.7152  3.4656  1.9530
 9088TIP3   OH251458   4.432   2.400   1.795 -0.2285 -0.0765 -0.0808
 9088TIP3    H151459   4.464   2.463   1.731  0.6773 -0.5186 -0.0677
 9088TIP3    H251460   4.484   2.416   1.874  0.2851 -1.1029 -0.2054
 9089TIP3   OH251461   0.081   3.275   3.336  0.9223  0.3211 -0.0240
 9089TIP3    H151462   0.135   3.196   3.336 -1.2215 -1.2862 -1.8607
 9089TIP3    H251463   0.017   3.261   3.406  0.3994  0.2780 -0.4966
 9090TIP3   OH251464   1.887   4.287   0.858 -0.3704  0.5466  0.6572
 9090TIP3    H151465   1.920   4.197   0.864 -1.4414 -0.1100 -1.7667
 9090TIP3    H251466   1.792   4.276   0.852 -0.4636  1.7635 -0.4049
 9091TIP3   OH251467   3.584   3.738   1.643  0.1118  0.0139 -0.0455
 9091TIP3    H151468   3.490   3.725   1.650  0.1121 -0.1596 -0.3468
 9091TIP3    H251469   3.613   3.670   1.582  0.0455  1.7079 -2.0862
 9092TIP3   OH251470   7.014   6.268   1.680  0.5941 -0.4711 -0.3851
 9092TIP3    H151471   6.963   6.190   1.658  0.9554 -0.3445 -1.7060
 9092TIP3    H251472   7.064   6.242   1.758 -1.8016 -0.4419  1.2751
 9093TIP3   OH251473   5.907   6.910   1.881 -0.1024 -0.4787 -0.1485
 9093TIP3    H151474   5.879   6.818   1.884 -1.3556 -0.0915  1.4387
 9093TIP3    H251475   5.895   6.942   1.971 -0.2550  1.4035 -0.7929
 9094TIP3   OH251476   7.493   7.082   0.564  0.4711 -0.0094  0.3349
 9094TIP3    H151477   7.401   7.060   0.575  0.3367 -0.4070 -1.2893
 9094TIP3    H251478   7.499   7.174   0.588 -1.1797  1.1705 -3.0996
 9095TIP3   OH251479   4.156   3.033   2.015 -0.1459 -0.6123 -0.0966
 9095TIP3    H151480   4.115   3.081   2.087 -0.1025 -0.3366 -0.2558
 9095TIP3    H251481   4.209   2.966   2.058  1.2996  0.6620  0.1944
 9096TIP3   OH251482   0.338   4.695   2.510 -0.5240 -0.1367 -0.0616
 9096TIP3    H151483   0.344   4.611   2.464 -1.2197  0.1832 -0.7469
 9096TIP3    H251484   0.389   4.681   2.591  0.1332 -0.9215 -0.5897
 9097TIP3   OH251485   0.701   4.475   2.269 -0.4928  0.0181  0.2952
 9097TIP3    H151486   0.612   4.467   2.304 -0.4488  2.0198  0.9983
 9097TIP3    H251487   0.703   4.413   2.196 -1.1628 -2.9567  2.6076
 9098TIP3   OH251488   6.143   3.042   2.992  0.1797  0.2011  0.2082
 9098TIP3    H151489   6.183   2.993   2.920  0.5657  0.6178  0.1362
 9098TIP3    H251490   6.058   3.071   2.957  0.3948  0.4601 -0.1043
 9099TIP3   OH251491   2.147   6.909   1.805 -0.2616  0.3943 -0.1554
 9099TIP3    H151492   2.100   6.988   1.780  0.5735  0.7794 -0.5380
 9099TIP3    H251493   2.194   6.933   1.885 -0.7446 -0.0085  0.2622
 9100TIP3   OH251494   1.886   3.822   1.965  0.0990 -0.2799 -0.2337
 9100TIP3    H151495   1.926   3.884   2.026  3.5688 -0.1901 -2.3272
 9100TIP3    H251496   1.903   3.736   2.003 -0.3278 -0.1449  0.2741
 9101TIP3   OH251497   6.843   3.328   1.719 -0.2868  0.1419  0.0324
 9101TIP3    H151498   6.760   3.292   1.752 -0.2999 -0.3719 -0.5440
 9101TIP3    H251499   6.909   3.295   1.781 -0.4831  0.3764  0.3709
 9102TIP3   OH251500   6.352   4.738   2.338  0.1127  0.0384 -0.1726
 9102TIP3    H151501   6.328   4.646   2.337 -1.0902  0.3378 -1.2035
 9102TIP3    H251502   6.315   4.774   2.257  1.8626  1.1080 -0.5539
 9103TIP3   OH251503   6.068   6.224   1.632 -0.5482 -0.0563 -0.6397
 9103TIP3    H151504   6.003   6.233   1.562 -2.3853  1.7258  1.1499
 9103TIP3    H251505   6.071   6.130   1.650 -1.9175 -0.2774 -1.4225
 9104TIP3   OH251506   1.741   4.760   1.543 -0.1332 -0.4835 -0.0891
 9104TIP3    H151507   1.692   4.778   1.463  0.6415  0.1837 -0.4323
 9104TIP3    H251508   1.806   4.695   1.518  0.4184  0.0752 -0.1277
 9105TIP3   OH251509   2.090   7.608   0.733  0.1289 -0.2996 -0.9375
 9105TIP3    H151510   2.168   7.560   0.706 -1.1034 -2.7735 -0.4199
 9105TIP3    H251511   2.023   7.540   0.745 -1.4275  1.4347  1.0092
 9106TIP3   OH251512   4.396   7.205   1.016 -0.0234 -0.0908 -0.0385
 9106TIP3    H151513   4.406   7.128   0.960 -2.2721  0.3391 -1.1561
 9106TIP3    H251514   4.320   7.185   1.071  0.7138  0.4647  1.2242
 9107TIP3   OH251515   2.453   0.002   0.998  0.7361  0.6193  0.2895
 9107TIP3    H151516   2.465   0.081   1.051 -2.8524  1.9012 -0.5190
 9107TIP3    H251517   2.511   0.014   0.923  1.1062  1.9216  0.7590
 9108TIP3   OH251518   5.765   0.584   3.143 -0.2535 -0.4973  0.1484
 9108TIP3    H151519   5.678   0.559   3.174 -0.6937 -0.6059 -1.1230
 9108TIP3    H251520   5.821   0.511   3.170 -0.2906  0.1452  2.0716
 9109TIP3   OH251521   4.611   5.162   2.202 -0.1417  0.4157 -0.0918
 9109TIP3    H151522   4.661   5.087   2.233  0.7824  0.9142 -0.3293
 9109TIP3    H251523   4.563   5.192   2.279 -1.1005 -0.8511 -0.1683
 9110TIP3   OH251524   7.078   1.837   2.176  0.5341  0.5930 -0.0100
 9110TIP3    H151525   7.152   1.779   2.159 -0.0288  0.1864 -1.2130
 9110TIP3    H251526   7.040   1.805   2.258  2.5649  1.7724  1.4730
 9111TIP3   OH251527   5.532   3.175   2.366 -0.6318 -0.0445  0.0403
 9111TIP3    H151528   5.512   3.146   2.455  3.1873  0.0893  1.1609
 9111TIP3    H251529   5.561   3.266   2.377  1.1049 -0.4110 -1.0464
 9112TIP3   OH251530   2.039   1.538   1.545  0.5074  0.0624 -0.0915
 9112TIP3    H151531   2.036   1.625   1.583 -0.1793  0.6723 -1.4690
 9112TIP3    H251532   2.100   1.545   1.471 -0.5561 -0.2545 -1.0289
 9113TIP3   OH251533   1.721   5.650   1.128 -0.2541  0.2630  0.0678
 9113TIP3    H151534   1.705   5.744   1.115 -0.5861  0.4091  1.3465
 9113TIP3    H251535   1.742   5.643   1.221 -1.1276 -1.0525  0.1836
 9114TIP3   OH251536   6.629   1.430   2.448 -0.1770  0.5924 -0.0292
 9114TIP3    H151537   6.627   1.465   2.359  0.3610 -0.0252 -0.2989
 9114TIP3    H251538   6.648   1.336   2.436  2.3712  0.9124  0.8067
 9115TIP3   OH251539   1.396   7.201   1.374  0.0993 -0.1744  0.1696
 9115TIP3    H151540   1.451   7.155   1.311  0.3994  0.6424 -0.1706
 9115TIP3    H251541   1.425   7.170   1.459  0.6083 -0.2672 -0.0380
 9116TIP3   OH251542   5.033   1.858   1.583 -0.8129 -0.0238 -0.0109
 9116TIP3    H151543   5.052   1.935   1.531  0.7266  0.2410  0.8655
 9116TIP3    H251544   4.970   1.887   1.649 -0.8340  0.2857 -0.1699
 9117TIP3   OH251545   2.668   3.241   1.679  0.2737  0.0383 -0.0876
 9117TIP3    H151546   2.741   3.255   1.619 -0.6403 -0.6023 -1.3905
 9117TIP3    H251547   2.688   3.296   1.755  0.4284  2.5462 -1.8377
 9118TIP3   OH251548   3.636   4.068   2.036  0.0209 -0.7938 -0.7917
 9118TIP3    H151549   3.645   3.974   2.052 -0.1468 -0.5387  0.9500
 9118TIP3    H251550   3.720   4.105   2.063 -0.5210 -0.2591  0.2049
 9119TIP3   OH251551   1.338   4.952   3.396  0.3896  0.2898 -0.4246
 9119TIP3    H151552   1.268   4.895   3.429  1.3169 -1.0083 -0.6618
 9119TIP3    H251553   1.293   5.012   3.337 -0.3823 -1.2567 -1.4727
 9120TIP3   OH251554   2.811   6.587   0.703  0.0218 -0.2799 -0.3024
 9120TIP3    H151555   2.834   6.680   0.696  1.7854 -0.6684 -0.0572
 9120TIP3    H251556   2.865   6.543   0.638  0.7031 -1.3530  0.9325
 9121TIP3   OH251557   3.354   3.302   1.893 -0.4180 -0.1002  0.1712
 9121TIP3    H151558   3.273   3.285   1.940 -0.7400 -0.8757 -0.6326
 9121TIP3    H251559   3.410   3.227   1.913 -0.9425 -0.9821 -1.4609
 9122TIP3   OH251560   7.254   3.631   1.842 -1.1354 -0.2860 -0.1017
 9122TIP3    H151561   7.293   3.556   1.798 -0.2117  0.5628 -0.7589
 9122TIP3    H251562   7.185   3.593   1.898 -0.7198 -1.5981 -0.4554
 9123TIP3   OH251563   3.464   3.625   1.149 -0.2551  0.0800 -0.2592
 9123TIP3    H151564   3.513   3.688   1.201  1.7624 -0.0700 -1.8453
 9123TIP3    H251565   3.466   3.660   1.060  0.1393 -1.7361 -1.0203
 9124TIP3   OH251566   7.531   4.494   1.182 -0.4151 -0.1023  0.4060
 9124TIP3    H151567   7.500   4.520   1.269  0.0468  1.1548  0.2091
 9124TIP3    H251568   7.597   4.559   1.159  0.5124 -1.2419 -0.2914
 9125TIP3   OH251569   7.144   2.289   1.720 -0.4247  0.5118 -0.2215
 9125TIP3    H151570   7.160   2.356   1.653 -1.6268  3.1979  2.0031
 9125TIP3    H251571   7.223   2.289   1.773 -0.2184 -0.2776 -0.5101
 9126TIP3   OH251572   0.226   6.942   0.590 -0.0540 -0.1793  0.3097
 9126TIP3    H151573   0.168   6.946   0.665  1.2805 -1.9059  1.5094
 9126TIP3    H251574   0.170   6.961   0.514 -1.6785  0.3373  1.5959
 9127TIP3   OH251575   6.250   6.417   1.151  0.1678  0.2265  0.3362
 9127TIP3    H151576   6.276   6.478   1.083  3.0765 -0.8766  0.3372
 9127TIP3    H251577   6.264   6.330   1.113 -2.7022 -0.5563  0.7546
 9128TIP3   OH251578   0.070   1.494   1.577 -0.1704 -0.1854 -0.0727
 9128TIP3    H151579   0.038   1.407   1.599 -0.3967  0.0173  0.4106
 9128TIP3    H251580   0.119   1.522   1.654  1.7463 -0.7455 -1.0285
 9129TIP3   OH251581   3.923   1.428   1.219  0.2726 -0.4840  0.1114
 9129TIP3    H151582   3.852   1.492   1.209  0.1042 -0.6334  0.3525
 9129TIP3    H251583   3.880   1.343   1.209  0.7163 -0.5380 -1.5928
 9130TIP3   OH251584   4.071   1.719   1.892  0.3746 -0.0785 -0.2959
 9130TIP3    H151585   4.105   1.794   1.844  1.7317 -0.4204  0.0861
 9130TIP3    H251586   4.060   1.651   1.826  1.2361 -0.2147 -0.3169
 9131TIP3   OH251587   0.590   5.226   1.523  0.2781  0.1766 -0.2218
 9131TIP3    H151588   0.646   5.236   1.447 -0.3349  0.8534 -0.5951
 9131TIP3    H251589   0.621   5.146   1.566  0.0022 -0.7637 -1.7189
 9132TIP3   OH251590   0.976   0.093   2.581 -0.5851 -0.1397  0.6668
 9132TIP3    H151591   1.013   0.174   2.618 -1.7528  0.6775  0.0992
 9132TIP3    H251592   1.050   0.032   2.580  1.2384  1.9001 -1.8583
 9133TIP3   OH251593   2.102   0.691   1.049 -0.6044 -0.0640 -0.3943
 9133TIP3    H151594   2.190   0.692   1.009 -0.8004  2.1103 -0.9056
 9133TIP3    H251595   2.085   0.599   1.066  1.4258 -0.6329 -1.0952
 9134TIP3   OH251596   0.391   3.263   2.319 -0.3533 -0.1150 -0.1997
 9134TIP3    H151597   0.381   3.328   2.249  0.6208  0.8958  0.5702
 9134TIP3    H251598   0.484   3.240   2.316  0.1137  1.2296  1.8309
 9135TIP3   OH251599   5.755   6.085   2.650 -0.3985  0.0467  0.1798
 9135TIP3    H151600   5.754   6.174   2.615 -0.5789  0.7457  1.8581
 9135TIP3    H251601   5.842   6.075   2.690 -0.6239 -0.2666  0.6067
 9136TIP3   OH251602   2.038   1.571   2.298 -0.7365  0.0555  0.6601
 9136TIP3    H151603   2.031   1.659   2.261  2.1532  0.2626  0.3839
 9136TIP3    H251604   2.014   1.513   2.226  0.5929  0.5811 -0.2505
 9137TIP3   OH251605   6.084   6.651   3.601 -0.3470 -0.2877 -0.0736
 9137TIP3    H151606   6.059   6.564   3.569 -0.0443 -0.4175  0.0381
 9137TIP3    H251607   6.168   6.669   3.557 -0.4018 -0.0605 -0.0839
 9138TIP3   OH251608   5.697   3.548   0.690 -0.0653 -0.3339  0.4398
 9138TIP3    H151609   5.740   3.585   0.767 -0.5458 -1.3896  1.2360
 9138TIP3    H251610   5.678   3.624   0.635 -1.1942  0.6651  2.1158
 9139TIP3   OH251611   6.101   7.340   2.373 -0.2049 -0.0931  0.3791
 9139TIP3    H151612   6.130   7.250   2.384 -0.9714 -0.3553  0.3288
 9139TIP3    H251613   6.047   7.339   2.294 -0.7741  0.2610  0.7520
 9140TIP3   OH251614   4.811   7.132   1.696 -0.5292  0.6483 -0.0229
 9140TIP3    H151615   4.884   7.071   1.690  1.2278  2.7423 -2.1336
 9140TIP3    H251616   4.733   7.078   1.681  0.7879 -1.2647 -0.3694
 9141TIP3   OH251617   4.692   0.295   1.666  0.0538  0.8951 -0.7638
 9141TIP3    H151618   4.685   0.388   1.685 -1.1899  0.7982 -0.6292
 9141TIP3    H251619   4.709   0.254   1.751 -1.7320  0.8098 -0.4051
 9142TIP3   OH251620   4.261   3.275   2.460 -0.7415  0.9647 -0.1125
 9142TIP3    H151621   4.300   3.196   2.497  2.9959  2.4090 -0.6025
 9142TIP3    H251622   4.278   3.343   2.526  0.9216  2.3943 -1.9184
 9143TIP3   OH251623   6.190   0.723   2.092 -0.4474 -0.7218 -0.5904
 9143TIP3    H151624   6.224   0.662   2.158  0.4245 -0.7248 -1.0316
 9143TIP3    H251625   6.115   0.763   2.135 -1.1422 -2.2070 -0.3464
 9144TIP3   OH251626   3.546   5.679   0.997  0.3548  0.2253  0.1352
 9144TIP3    H151627   3.488   5.607   1.022 -0.7211  1.4240  1.2099
 9144TIP3    H251628   3.538   5.684   0.902  1.7803 -2.1342 -0.1886
 9145TIP3   OH251629   1.460   1.854   2.421  0.2219  0.0118 -0.7255
 9145TIP3    H151630   1.419   1.815   2.498  2.8900  2.5909  2.2889
 9145TIP3    H251631   1.423   1.942   2.416  1.7781  0.6858 -0.8866
 9146TIP3   OH251632   2.851   2.360   2.998 -0.3779  0.0465  0.1641
 9146TIP3    H151633   2.924   2.313   2.958 -0.9579 -0.2752 -0.5368
 9146TIP3    H251634   2.886   2.448   3.014  0.5997 -0.5017  1.1522
 9147TIP3   OH251635   5.413   7.355   2.595  0.2939  0.2038  0.3536
 9147TIP3    H151636   5.401   7.299   2.518  2.4651  1.1886 -0.7739
 9147TIP3    H251637   5.354   7.430   2.579  1.9201  1.2196 -1.2511
 9148TIP3   OH251638   2.437   2.723   2.824 -0.2342  0.6625 -0.3252
 9148TIP3    H151639   2.457   2.809   2.861 -1.1721  1.1743 -0.9515
 9148TIP3    H251640   2.474   2.726   2.736  0.4269  0.1185 -0.0716
 9149TIP3   OH251641   1.903   1.778   0.897 -0.1729  0.0812 -0.2682
 9149TIP3    H151642   1.869   1.868   0.897 -1.5772 -0.4194  0.8841
 9149TIP3    H251643   1.976   1.780   0.958  1.8731  1.1117 -2.5790
 9150TIP3   OH251644   5.321   1.920   0.975 -0.4285  0.1546  0.4333
 9150TIP3    H151645   5.346   1.879   0.892 -0.3179  0.4321  0.3271
 9150TIP3    H251646   5.229   1.897   0.987 -0.5202  0.3408  0.0955
 9151TIP3   OH251647   0.285   6.703   1.933 -0.0538 -0.8346  0.2529
 9151TIP3    H151648   0.375   6.675   1.950 -0.0847 -0.2844  1.4364
 9151TIP3    H251649   0.294   6.778   1.873  0.6679  2.0099  3.6016
 9152TIP3   OH251650   6.101   4.062   0.597 -0.4246  0.0642  0.0818
 9152TIP3    H151651   6.017   4.106   0.585 -0.7324  0.0874  1.9890
 9152TIP3    H251652   6.161   4.132   0.623 -0.1528 -0.1540  0.0439
 9153TIP3   OH251653   3.169   6.905   1.993  0.1787 -0.3841 -0.4609
 9153TIP3    H151654   3.110   6.945   2.056  0.6993  0.0817 -0.2594
 9153TIP3    H251655   3.231   6.974   1.970 -0.1700 -0.4620 -1.7149
 9154TIP3   OH251656   0.144   4.215   0.853  0.6441  0.2089  0.2217
 9154TIP3    H151657   0.108   4.299   0.826 -2.2491 -1.8459 -3.1479
 9154TIP3    H251658   0.079   4.179   0.914 -1.1632 -1.7589 -2.6546
 9155TIP3   OH251659   4.374   3.225   1.938 -0.0821  0.0535  0.3506
 9155TIP3    H151660   4.369   3.262   2.026  0.9785 -0.6745  0.7425
 9155TIP3    H251661   4.292   3.175   1.928  0.3533 -0.9363  1.4498
 9156TIP3   OH251662   2.184   1.407   1.245 -0.0622 -0.1187 -0.1855
 9156TIP3    H151663   2.100   1.396   1.291 -0.0323  0.4567  0.0168
 9156TIP3    H251664   2.242   1.342   1.284  0.3257  1.1651  1.4883
 9157TIP3   OH251665   3.202   3.323   2.741  0.0553 -0.1037 -0.2916
 9157TIP3    H151666   3.201   3.418   2.730 -2.5866  0.2551  2.0327
 9157TIP3    H251667   3.141   3.290   2.675 -2.0830  0.2834  1.4027
 9158TIP3   OH251668   1.078   6.662   2.655  0.1529 -0.2155 -0.3713
 9158TIP3    H151669   1.077   6.628   2.745 -1.5908 -1.2837 -0.7498
 9158TIP3    H251670   1.060   6.586   2.600 -0.4486  0.7123 -1.5009
 9159TIP3   OH251671   2.796   4.064   2.633 -0.3624 -0.2606 -0.1170
 9159TIP3    H151672   2.887   4.041   2.654  0.5308  2.5538 -0.4976
 9159TIP3    H251673   2.787   4.044   2.540 -0.1342 -0.5718 -0.0744
 9160TIP3   OH251674   4.785   4.851   1.930 -0.0358  0.2192  0.4186
 9160TIP3    H151675   4.840   4.846   1.852 -0.3513 -0.7993  0.2477
 9160TIP3    H251676   4.744   4.937   1.925  0.5184  0.4619 -0.1435
 9161TIP3   OH251677   3.729   3.023   1.646  0.5398  0.1345  0.3059
 9161TIP3    H151678   3.642   3.001   1.678  0.9013  0.6731  1.7354
 9161TIP3    H251679   3.745   3.112   1.680  0.2679  1.5288 -2.8368
 9162TIP3   OH251680   3.259   6.574   2.296  0.5140  0.0993  0.2318
 9162TIP3    H151681   3.301   6.557   2.381 -0.8433  1.4563  1.2272
 9162TIP3    H251682   3.303   6.515   2.235  0.9958 -1.4924  2.0376
 9163TIP3   OH251683   0.884   6.886   1.851 -0.3444 -0.6178  0.3922
 9163TIP3    H151684   0.904   6.950   1.920 -0.7143 -0.6516  0.5304
 9163TIP3    H251685   0.954   6.899   1.786 -0.5414  0.0854  0.3068
 9164TIP3   OH251686   6.811   6.023   1.441 -0.6052  0.1929 -0.3526
 9164TIP3    H151687   6.821   6.004   1.534 -1.2735 -0.4794 -0.4122
 9164TIP3    H251688   6.898   6.008   1.404 -0.9436 -2.2198 -0.2946
 9165TIP3   OH251689   5.285   4.545   2.428 -0.3564 -0.3611  0.0210
 9165TIP3    H151690   5.340   4.620   2.450 -1.3850  0.1315  1.0426
 9165TIP3    H251691   5.323   4.509   2.348  2.6031 -1.1790  1.6347
 9166TIP3   OH251692   3.613   4.155   0.955 -0.1847  0.3870  0.0953
 9166TIP3    H151693   3.585   4.228   0.901  1.0847 -1.2755 -3.1275
 9166TIP3    H251694   3.537   4.134   1.009 -1.8303  1.7940 -1.5292
 9167TIP3   OH251695   3.498   7.677   2.411  0.0401  0.3138  0.6275
 9167TIP3    H151696   3.533   7.612   2.350 -2.0602 -0.0120 -0.3131
 9167TIP3    H251697   3.511   7.639   2.498 -0.2269 -0.9100  0.1425
 9168TIP3   OH251698   0.747   6.994   1.583 -0.0239  0.3787 -0.2822
 9168TIP3    H151699   0.791   6.952   1.657  2.2783  2.0321 -0.6280
 9168TIP3    H251700   0.678   7.047   1.624 -1.1576 -1.4810  0.3454
 9169TIP3   OH251701   0.824   6.383   0.832  0.2990 -0.5078  0.0593
 9169TIP3    H151702   0.740   6.372   0.788  0.5954  1.8875 -1.2677
 9169TIP3    H251703   0.846   6.295   0.864 -1.5265 -1.7004 -1.7121
 9170TIP3   OH251704   7.617   3.794   2.596 -0.3213 -0.2784  0.3334
 9170TIP3    H151705   7.531   3.757   2.577 -0.4861  1.0089 -1.8313
 9170TIP3    H251706   7.669   3.773   2.518  0.8148  0.4082  0.8808
 9171TIP3   OH251707   3.538   4.601   0.618 -0.0711  0.0819  0.1082
 9171TIP3    H151708   3.450   4.605   0.581 -0.8269 -0.8035  1.7069
 9171TIP3    H251709   3.553   4.689   0.652  0.2510  0.6302 -1.3765
 9172TIP3   OH251710   1.231   2.250   2.718 -0.4016 -0.4475 -0.1761
 9172TIP3    H151711   1.247   2.313   2.787  1.9015 -1.4667  0.2985
 9172TIP3    H251712   1.163   2.192   2.754 -2.0578  1.2669 -0.3690
 9173TIP3   OH251713   5.236   3.936   0.825 -0.2318  0.2233 -0.2428
 9173TIP3    H151714   5.146   3.965   0.841 -0.1276 -0.0848  1.0015
 9173TIP3    H251715   5.230   3.841   0.819  0.0538  0.1806  0.1317
 9174TIP3   OH251716   3.599   5.597   2.362  0.4373  0.1052 -0.1258
 9174TIP3    H151717   3.659   5.523   2.352  1.4877  0.4602  2.6258
 9174TIP3    H251718   3.654   5.668   2.395 -0.2624  2.6511 -3.7886
 9175TIP3   OH251719   0.556   5.877   2.784 -0.0863 -0.0314 -0.3990
 9175TIP3    H151720   0.546   5.791   2.824 -1.0231  0.0004 -0.5468
 9175TIP3    H251721   0.524   5.938   2.850  1.3236  0.2855  0.0214
 9176TIP3   OH251722   5.585   4.848   2.485  0.2469 -0.5059 -0.0432
 9176TIP3    H151723   5.557   4.780   2.547  2.1706 -2.5476 -1.2476
 9176TIP3    H251724   5.523   4.840   2.412 -0.4563  0.1292  0.4690
 9177TIP3   OH251725   5.486   2.984   2.863 -0.0619  0.2158  0.0146
 9177TIP3    H151726   5.417   2.924   2.889 -0.5497  1.0515  0.6870
 9177TIP3    H251727   5.555   2.971   2.928 -1.0886  1.9645  1.5496
 9178TIP3   OH251728   3.678   3.934   3.460  0.0065 -0.1607 -0.0138
 9178TIP3    H151729   3.601   3.938   3.403 -1.4320  2.7737  1.8583
 9178TIP3    H251730   3.648   3.890   3.539  0.3387  0.5672  0.5365
 9179TIP3   OH251731   3.408   1.140   1.004  0.0048  0.0870 -0.0391
 9179TIP3    H151732   3.386   1.104   0.918 -0.2663 -0.7821  0.3792
 9179TIP3    H251733   3.323   1.160   1.044 -0.0058 -1.6584  0.9036
 9180TIP3   OH251734   0.879   3.218   0.780  0.3089  0.0564  0.0163
 9180TIP3    H151735   0.959   3.166   0.788  0.3631  0.2992  1.1728
 9180TIP3    H251736   0.811   3.164   0.821 -0.1987 -0.2762 -1.2137
 9181TIP3   OH251737   1.781   5.192   0.598 -0.2094  0.1263  0.2731
 9181TIP3    H151738   1.759   5.285   0.594  1.9303  0.6920  0.8148
 9181TIP3    H251739   1.807   5.169   0.509  1.3362  0.6215  0.5738
 9182TIP3   OH251740   3.485   2.670   2.740  0.1270 -0.2551  0.4673
 9182TIP3    H151741   3.412   2.647   2.683  0.5691 -3.5323  1.0107
 9182TIP3    H251742   3.545   2.720   2.684 -1.8022  1.2735 -0.3605
 9183TIP3   OH251743   0.656   0.246   0.800 -0.1247 -0.0841  0.4742
 9183TIP3    H151744   0.645   0.311   0.731  0.1112 -0.1503  0.3726
 9183TIP3    H251745   0.596   0.273   0.870 -0.6262 -0.2124  0.0983
 9184TIP3   OH251746   6.869   3.393   2.517 -0.1415 -0.2783  0.2480
 9184TIP3    H151747   6.925   3.456   2.471 -1.5392 -0.0688 -1.2447
 9184TIP3    H251748   6.798   3.446   2.552 -0.5758 -0.8293  0.2090
 9185TIP3   OH251749   3.490   2.808   3.090  0.8510 -0.2195 -0.0271
 9185TIP3    H151750   3.505   2.719   3.057  0.2142  0.3893 -2.0869
 9185TIP3    H251751   3.397   2.824   3.075  0.9740  0.8278  0.2443
 9186TIP3   OH251752   5.147   2.167   2.927  0.1698  0.0685  0.3760
 9186TIP3    H151753   5.151   2.085   2.976 -1.8796 -1.3598 -1.6281
 9186TIP3    H251754   5.105   2.143   2.845  0.5492  2.9545 -0.7542
 9187TIP3   OH251755   6.756   2.489   1.584  0.0531 -0.6093  0.2152
 9187TIP3    H151756   6.761   2.568   1.530 -1.2502  0.0248  0.9562
 9187TIP3    H251757   6.675   2.500   1.635  0.1961 -2.1129  0.8296
 9188TIP3   OH251758   6.315   0.787   2.649 -0.4346 -0.2528  0.2344
 9188TIP3    H151759   6.368   0.835   2.585  0.6990 -0.2590  1.1232
 9188TIP3    H251760   6.265   0.855   2.694  0.1891 -0.0153  0.5980
 9189TIP3   OH251761   5.506   1.010   1.580  0.6386  0.0817  0.0351
 9189TIP3    H151762   5.429   0.975   1.624  1.6874 -1.5315  0.6523
 9189TIP3    H251763   5.580   0.984   1.635  1.6716  1.3006 -0.7082
 9190TIP3   OH251764   0.735   2.535   1.728  0.2720 -0.0461  0.7377
 9190TIP3    H151765   0.764   2.454   1.686  2.4467  1.3771 -0.7353
 9190TIP3    H251766   0.640   2.527   1.734  0.3397 -2.2705 -0.2418
 9191TIP3   OH251767   4.304   5.322   0.866 -0.8522 -0.4684 -0.3906
 9191TIP3    H151768   4.257   5.387   0.814  0.6767  1.5630  0.6385
 9191TIP3    H251769   4.307   5.359   0.954  1.9873 -0.8461 -0.2520
 9192TIP3   OH251770   0.631   0.434   0.608  0.8869  0.7383 -0.2176
 9192TIP3    H151771   0.621   0.526   0.633  0.5186  0.7149 -0.2687
 9192TIP3    H251772   0.715   0.431   0.562  1.0215  1.0001  0.0056
 9193TIP3   OH251773   4.493   4.200   0.990  0.2388  0.3343 -0.4171
 9193TIP3    H151774   4.411   4.247   0.972  0.6770  0.5418 -1.9989
 9193TIP3    H251775   4.548   4.219   0.915  1.6684 -0.0156  0.5101
 9194TIP3   OH251776   6.435   1.156   2.719  1.4617  0.2141 -0.0187
 9194TIP3    H151777   6.371   1.087   2.700  1.4875  0.4573 -1.0027
 9194TIP3    H251778   6.518   1.121   2.687  1.6291  0.3586  0.2523
 9195TIP3   OH251779   5.631   0.357   0.882  0.0917 -0.1732 -0.0227
 9195TIP3    H151780   5.691   0.395   0.816 -1.3992  1.0958 -0.7107
 9195TIP3    H251781   5.670   0.381   0.966  0.1336  1.3935 -0.4581
 9196TIP3   OH251782   3.006   2.054   0.963 -0.3442 -0.1624 -0.8818
 9196TIP3    H151783   2.940   2.076   0.897 -0.5293 -1.2721 -1.1028
 9196TIP3    H251784   3.057   1.984   0.922 -0.0260 -0.3936 -0.1076
 9197TIP3   OH251785   5.633   4.314   1.251  0.0538 -0.0261 -0.0109
 9197TIP3    H151786   5.671   4.314   1.164  0.1543 -0.6941  0.0261
 9197TIP3    H251787   5.595   4.401   1.261  0.1805  0.1065 -0.6579
 9198TIP3   OH251788   5.004   0.285   1.817  0.1320  0.0848  0.1494
 9198TIP3    H151789   5.046   0.208   1.779  2.7155  1.4060  0.0690
 9198TIP3    H251790   4.983   0.341   1.742 -0.7266 -0.0532  0.2773
 9199TIP3   OH251791   1.886   0.764   0.926  0.3923  0.3191 -0.0290
 9199TIP3    H151792   1.953   0.730   0.986 -0.6056 -0.7355  0.5377
 9199TIP3    H251793   1.918   0.739   0.839 -0.0319 -1.7066  0.3344
 9200TIP3   OH251794   3.070   2.244   2.041  0.0713 -0.0573  0.3945
 9200TIP3    H151795   3.098   2.334   2.059 -1.0132  0.8276 -1.8978
 9200TIP3    H251796   2.976   2.245   2.054  0.2244 -1.3346  1.8938
 9201TIP3   OH251797   5.807   3.954   1.668  0.1633 -0.6670 -0.0015
 9201TIP3    H151798   5.729   3.931   1.719 -0.4402  0.7672 -0.2331
 9201TIP3    H251799   5.880   3.926   1.724 -0.4935 -1.4874  0.4846
 9202TIP3   OH251800   5.805   5.900   1.819 -0.0926  0.5208 -0.0347
 9202TIP3    H151801   5.779   5.815   1.855  1.3278 -0.3477 -0.9542
 9202TIP3    H251802   5.851   5.943   1.891  0.0002  0.1206  0.1501
 9203TIP3   OH251803   0.466   5.869   0.423  0.0605  0.2460  0.2414
 9203TIP3    H151804   0.388   5.888   0.475  1.4952 -0.7901  2.9580
 9203TIP3    H251805   0.433   5.822   0.347 -1.9007 -1.4079  1.9886
 9204TIP3   OH251806   6.048   6.890   3.430  0.2517 -0.1384 -0.0486
 9204TIP3    H151807   5.993   6.963   3.400 -0.0102 -0.3759 -0.1495
 9204TIP3    H251808   5.998   6.849   3.500  1.2152  0.8953  1.2858
 9205TIP3   OH251809   4.743   4.896   1.024 -0.3693  0.2114  0.7258
 9205TIP3    H151810   4.684   4.971   1.025 -0.8985 -0.1927  0.4688
 9205TIP3    H251811   4.822   4.928   0.979  0.7737  1.5816  3.5047
 9206TIP3   OH251812   1.994   4.734   0.977  0.2473 -0.3079 -0.0098
 9206TIP3    H151813   2.055   4.722   1.050 -0.5315  0.8206  0.8796
 9206TIP3    H251814   2.006   4.657   0.921  0.8335 -1.2263  1.3405
 9207TIP3   OH251815   3.781   6.717   0.846 -0.1280  0.3618  0.0886
 9207TIP3    H151816   3.849   6.660   0.810 -1.4491 -0.8088 -0.6509
 9207TIP3    H251817   3.825   6.801   0.859  1.8100 -0.7228  0.9638
 9208TIP3   OH251818   3.397   4.674   1.015  0.2402  0.0742 -0.2681
 9208TIP3    H151819   3.477   4.623   0.999  0.3751  0.4224 -0.7408
 9208TIP3    H251820   3.330   4.609   1.033  1.1385 -0.1713  2.6952
 9209TIP3   OH251821   4.959   4.011   0.868  0.1507 -0.4104  0.1297
 9209TIP3    H151822   4.900   3.985   0.797  0.3606  0.5521 -0.4209
 9209TIP3    H251823   4.976   4.104   0.852 -1.0282  0.2459  2.3547
 9210TIP3   OH251824   2.573   4.197   3.798  0.5366  0.1272 -0.2301
 9210TIP3    H151825   2.667   4.189   3.812  0.4997 -0.5390 -0.3437
 9210TIP3    H251826   2.544   4.109   3.774 -0.0490  0.4106 -0.6046
 9211TIP3   OH251827   1.784   7.028   1.116 -0.3123 -0.7570  0.2745
 9211TIP3    H151828   1.832   7.100   1.159 -1.4696  0.6583 -0.7235
 9211TIP3    H251829   1.713   7.007   1.177 -0.4900 -0.4503  0.1744
 9212TIP3   OH251830   2.486   4.060   2.598  0.4415  0.0356 -0.4358
 9212TIP3    H151831   2.563   4.046   2.543 -1.1162 -0.7418 -2.5750
 9212TIP3    H251832   2.455   4.147   2.575  0.2928  0.0751 -0.0993
 9213TIP3   OH251833   1.754   3.685   3.730  0.1583 -0.4581  0.3476
 9213TIP3    H151834   1.789   3.617   3.786 -0.0900 -1.1467 -0.3109
 9213TIP3    H251835   1.709   3.745   3.789 -0.8993 -1.6600  0.7903
 9214TIP3   OH251836   4.324   6.320   0.475  0.2756  0.3422  0.1867
 9214TIP3    H151837   4.281   6.329   0.560  0.1723 -0.1381  0.1906
 9214TIP3    H251838   4.286   6.241   0.437 -0.6034  1.2279 -0.8509
 9215TIP3   OH251839   6.859   5.690   1.015 -0.4339 -0.2535 -0.2921
 9215TIP3    H151840   6.828   5.636   0.943 -1.7834 -0.7817  0.6515
 9215TIP3    H251841   6.900   5.765   0.972 -1.1457 -0.5819 -1.6115
 9216TIP3   OH251842   0.039   3.164   2.196 -0.0256  0.7286 -0.3626
 9216TIP3    H151843   0.076   3.242   2.154 -0.3252  0.9779 -0.1679
 9216TIP3    H251844   0.111   3.130   2.250  0.7653 -0.2920 -1.9914
 9217TIP3   OH251845   4.424   5.840   0.683  0.5768  0.0173  0.9658
 9217TIP3    H151846   4.352   5.778   0.669 -0.0920  1.2269 -1.5116
 9217TIP3    H251847   4.503   5.789   0.667  0.0772 -0.4328 -0.1681
 9218TIP3   OH251848   3.255   2.793   1.052 -0.4288  0.1958 -0.0800
 9218TIP3    H151849   3.346   2.817   1.033  0.2515 -0.5092  2.0396
 9218TIP3    H251850   3.254   2.773   1.145 -2.9455  0.8788  0.1130
 9219TIP3   OH251851   5.394   3.792   1.041  0.1497  0.0542 -0.4502
 9219TIP3    H151852   5.465   3.831   1.093 -1.6732 -0.3640  2.5509
 9219TIP3    H251853   5.375   3.858   0.975  0.9667  1.7624  0.9184
 9220TIP3   OH251854   3.485   4.662   2.041  0.1031  0.1148 -0.2197
 9220TIP3    H151855   3.564   4.697   2.083 -0.3854 -0.0329  0.8633
 9220TIP3    H251856   3.474   4.716   1.963  0.9265  0.5472 -0.0502
 9221TIP3   OH251857   0.626   4.956   1.887  0.4632 -0.5872 -0.4843
 9221TIP3    H151858   0.555   4.956   1.822 -0.6610 -2.0103  0.6683
 9221TIP3    H251859   0.621   4.869   1.928  2.0131 -0.2196  0.5838
 9222TIP3   OH251860   4.621   5.407   0.592  0.6587 -0.0692 -0.2813
 9222TIP3    H151861   4.667   5.491   0.586 -0.4338  0.5344 -0.4627
 9222TIP3    H251862   4.534   5.425   0.556  0.3128 -1.2134 -0.0503
 9223TIP3   OH251863   6.662   6.549   3.181 -0.1354  0.4869 -0.0423
 9223TIP3    H151864   6.640   6.613   3.113 -0.6573  1.0145  0.6118
 9223TIP3    H251865   6.630   6.588   3.262  0.4306 -0.1668  0.5028
 9224TIP3   OH251866   7.134   0.752   1.312 -0.2289 -0.0238  0.9231
 9224TIP3    H151867   7.211   0.702   1.339  0.6273 -0.5632 -2.1003
 9224TIP3    H251868   7.062   0.715   1.364  1.2595 -0.5340  2.7451
 9225TIP3   OH251869   1.077   1.693   0.821  0.3817  0.2539 -0.0570
 9225TIP3    H151870   1.099   1.607   0.857 -0.0416  0.4600  0.7293
 9225TIP3    H251871   0.985   1.685   0.793  0.2727  0.5107  0.2231
 9226TIP3   OH251872   2.926   2.538   1.345 -0.9128 -0.1778 -0.1205
 9226TIP3    H151873   2.964   2.589   1.417 -1.3885 -0.7238  0.5266
 9226TIP3    H251874   2.995   2.536   1.279 -0.8851  1.3175 -0.1772
 9227TIP3   OH251875   3.873   5.296   1.565 -0.1037  0.1884 -0.0723
 9227TIP3    H151876   3.873   5.217   1.510  0.6848 -1.1346  1.7244
 9227TIP3    H251877   3.966   5.315   1.580 -0.2960  0.4731  0.8386
 9228TIP3   OH251878   1.710   4.966   2.874 -0.0712  0.2503  0.0519
 9228TIP3    H151879   1.655   4.889   2.892  0.3800 -0.0733  0.0599
 9228TIP3    H251880   1.800   4.933   2.879  0.2898  1.3837  3.0981
 9229TIP3   OH251881   0.640   2.261   2.371  0.2525  1.2165 -0.5889
 9229TIP3    H151882   0.641   2.194   2.439  0.2193  0.9427 -0.8547
 9229TIP3    H251883   0.573   2.231   2.309  1.7665  0.3407 -1.8635
 9230TIP3   OH251884   7.623   3.701   3.640  0.2201  0.0249  0.6553
 9230TIP3    H151885   7.601   3.681   3.549  0.0140 -2.1925  1.1446
 9230TIP3    H251886   7.713   3.733   3.637  0.2726 -0.1998 -0.2883
 9231TIP3   OH251887   0.032   4.127   0.483 -0.1845 -0.0794 -0.4449
 9231TIP3    H151888   0.124   4.151   0.478 -0.5632  1.2786 -1.4697
 9231TIP3    H251889   0.033   4.031   0.494  1.3283 -0.1852 -1.2374
 9232TIP3   OH251890   4.030   6.202   2.681 -0.6857  0.0922  0.0351
 9232TIP3    H151891   4.075   6.203   2.597  0.8433 -1.4208  0.7655
 9232TIP3    H251892   3.946   6.160   2.664  0.3294 -1.8527 -0.4635
 9233TIP3   OH251893   3.566   5.134   2.409  0.7287 -0.8377  0.0414
 9233TIP3    H151894   3.505   5.178   2.349  0.0790 -1.3185  0.3327
 9233TIP3    H251895   3.536   5.043   2.411  1.1031 -0.9547  0.6341
 9234TIP3   OH251896   1.903   7.373   1.871 -0.0866  0.0328 -0.4231
 9234TIP3    H151897   1.860   7.448   1.912  1.6234  0.8717 -0.0488
 9234TIP3    H251898   1.975   7.411   1.821  0.9780 -1.3499 -0.0187
 9235TIP3   OH251899   1.947   7.243   1.230  0.3519  0.1770 -0.0556
 9235TIP3    H151900   2.025   7.296   1.212 -0.1694  0.6618 -0.9697
 9235TIP3    H251901   1.899   7.294   1.296  0.5202  0.1666  0.0754
 9236TIP3   OH251902   7.312   2.077   3.472  0.0663 -0.2795 -0.4509
 9236TIP3    H151903   7.249   2.034   3.413 -1.4805 -0.7199  1.4057
 9236TIP3    H251904   7.277   2.166   3.483  1.3306  0.3873 -1.5294
 9237TIP3   OH251905   5.226   4.714   1.069  0.2537 -0.0000  0.1436
 9237TIP3    H151906   5.301   4.733   1.125 -0.5416  1.8471  0.6294
 9237TIP3    H251907   5.182   4.798   1.058 -1.8781 -1.0762  0.0343
 9238TIP3   OH251908   5.997   6.977   2.900 -0.2614 -0.0708 -0.3289
 9238TIP3    H151909   5.953   7.020   2.973 -0.2892  1.0570 -0.9916
 9238TIP3    H251910   6.081   6.947   2.936 -0.5965 -0.1886  0.3514
 9239TIP3   OH251911   7.397   7.472   1.934 -0.1807 -0.3722 -0.2924
 9239TIP3    H151912   7.358   7.384   1.938 -0.9166 -0.0221  1.3346
 9239TIP3    H251913   7.372   7.506   1.849 -0.5475 -1.4558 -0.6373
 9240TIP3   OH251914   4.517   5.230   2.875 -0.4800  0.0156 -0.3940
 9240TIP3    H151915   4.468   5.151   2.852  0.1001 -0.4998  0.0903
 9240TIP3    H251916   4.571   5.248   2.798  0.0530 -0.5962 -0.1755
 9241TIP3   OH251917   0.758   5.856   1.637 -0.1506 -0.5225 -0.1553
 9241TIP3    H151918   0.683   5.871   1.693  0.0902 -0.1692  0.0731
 9241TIP3    H251919   0.775   5.941   1.596 -0.5493 -0.8525 -1.0485
 9242TIP3   OH251920   5.522   0.304   3.299 -0.3064  0.8899  0.1220
 9242TIP3    H151921   5.431   0.332   3.286 -0.5395 -0.2057 -0.7423
 9242TIP3    H251922   5.533   0.229   3.240  0.7785  0.1987  1.1620
 9243TIP3   OH251923   2.561   2.028   1.403  0.6149  0.5817 -0.1204
 9243TIP3    H151924   2.637   2.031   1.460  0.0135  2.2817  0.6510
 9243TIP3    H251925   2.488   2.008   1.461  0.5511 -2.4447 -1.0374
 9244TIP3   OH251926   4.062   3.267   1.845  0.4942 -0.1833 -0.1169
 9244TIP3    H151927   4.103   3.180   1.852  0.7991 -0.0614 -0.3365
 9244TIP3    H251928   4.067   3.303   1.933  0.1526 -0.4820  0.0275
 9245TIP3   OH251929   6.125   1.295   0.676  0.3378  0.6738 -0.0317
 9245TIP3    H151930   6.130   1.350   0.598 -0.2536  0.4158 -0.2534
 9245TIP3    H251931   6.129   1.357   0.749 -0.2709  1.0099 -0.2803
 9246TIP3   OH251932   3.593   2.664   0.668 -0.0030  0.1132 -0.1432
 9246TIP3    H151933   3.531   2.737   0.658 -1.8982 -1.1881  1.2612
 9246TIP3    H251934   3.627   2.675   0.757  1.3421  0.4496 -0.6847
 9247TIP3   OH251935   0.719   5.207   1.821 -0.4357 -0.3082 -0.3247
 9247TIP3    H151936   0.661   5.131   1.816 -1.3362  0.2899  0.6485
 9247TIP3    H251937   0.670   5.272   1.871  1.1769  0.1464  0.7403
 9248TIP3   OH251938   4.486   7.574   3.161  0.1145  0.1374 -0.3426
 9248TIP3    H151939   4.434   7.631   3.218  1.4375 -0.0479  1.1385
 9248TIP3    H251940   4.485   7.489   3.205  0.6834 -0.1716 -0.9075
 9249TIP3   OH251941   0.862   0.113   1.759 -0.1602  0.0763  0.1846
 9249TIP3    H151942   0.772   0.100   1.788 -0.6506 -1.1665 -1.7200
 9249TIP3    H251943   0.860   0.196   1.711 -0.1488  0.3217  0.6015
 9250TIP3   OH251944   6.096   4.654   2.984  0.5123  0.4741 -0.5057
 9250TIP3    H151945   6.042   4.676   2.908 -0.3555  1.8363  0.4705
 9250TIP3    H251946   6.064   4.567   3.011 -0.0775  0.5522 -0.9236
 9251TIP3   OH251947   6.731   6.852   1.086  0.1872 -0.0946 -0.2163
 9251TIP3    H151948   6.767   6.822   1.003 -0.3324 -0.9632 -0.1421
 9251TIP3    H251949   6.795   6.825   1.152 -0.5114 -1.5537 -0.0944
 9252TIP3   OH251950   4.934   3.181   0.787  0.2639 -0.2877 -0.1064
 9252TIP3    H151951   4.910   3.090   0.772  2.0607 -1.0991  1.5942
 9252TIP3    H251952   4.895   3.202   0.872 -1.0568  0.9465 -0.9496
 9253TIP3   OH251953   2.574   5.312   2.565  0.2677 -0.1817  0.5178
 9253TIP3    H151954   2.667   5.334   2.563  0.4099 -0.8140 -1.1133
 9253TIP3    H251955   2.546   5.334   2.654  2.6563 -2.8505  2.0987
 9254TIP3   OH251956   4.369   0.369   3.458 -0.4687 -0.5706 -0.3542
 9254TIP3    H151957   4.353   0.454   3.418  0.0811  0.6825  1.9171
 9254TIP3    H251958   4.454   0.342   3.424 -0.3423  0.1108 -0.5863
 9255TIP3   OH251959   1.370   6.461   0.598  0.1479 -0.6396  0.3374
 9255TIP3    H151960   1.362   6.535   0.658  0.2845  0.3390 -0.8310
 9255TIP3    H251961   1.304   6.398   0.629 -0.0798  0.0342  1.2438
 9256TIP3   OH251962   5.242   3.560   1.544  0.1455 -0.0705 -0.0696
 9256TIP3    H151963   5.229   3.655   1.542 -0.4349 -0.1120  0.9575
 9256TIP3    H251964   5.230   3.532   1.453 -0.4002  0.7549 -0.2645
 9257TIP3   OH251965   5.984   3.825   2.299  0.2477  0.1895 -0.3286
 9257TIP3    H151966   6.009   3.899   2.244  0.4553 -1.6242 -2.8041
 9257TIP3    H251967   5.898   3.800   2.268  0.4977 -1.0776 -0.0455
 9258TIP3   OH251968   7.028   7.092   1.856  0.2433  0.0226  0.4116
 9258TIP3    H151969   7.092   7.060   1.792  1.1057 -0.5502  1.5254
 9258TIP3    H251970   6.967   7.019   1.868  0.3915 -0.0646  0.6354
 9259TIP3   OH251971   1.078   4.223   2.163  0.2179 -0.5077  0.3022
 9259TIP3    H151972   1.166   4.260   2.173 -0.5928  2.0419 -0.9626
 9259TIP3    H251973   1.027   4.261   2.234  0.2108 -2.4842  1.4234
 9260TIP3   OH251974   7.667   7.652   1.861 -0.0980  0.2535  0.0779
 9260TIP3    H151975   7.610   7.601   1.919  0.1106  0.3736  0.3926
 9260TIP3    H251976   7.626   7.644   1.775  0.2523 -0.9324  0.0023
 9261TIP3   OH251977   1.039   1.824   1.254  0.2010 -0.1706 -0.1822
 9261TIP3    H151978   1.048   1.911   1.294 -0.7825 -0.1547  0.0153
 9261TIP3    H251979   1.057   1.839   1.161 -1.4969  0.5670 -0.4352
 9262TIP3   OH251980   2.564   2.996   2.621 -0.0366  0.1913  0.2970
 9262TIP3    H151981   2.547   2.995   2.715  1.1160  2.0647  0.5932
 9262TIP3    H251982   2.484   3.031   2.582 -0.0127  0.7939  0.7644
 9263TIP3   OH251983   5.350   5.914   2.898 -0.1995 -0.6078 -0.1096
 9263TIP3    H151984   5.324   5.996   2.857 -1.2888 -0.6870  0.3726
 9263TIP3    H251985   5.282   5.898   2.964  1.3374 -0.6363  1.5297
 9264TIP3   OH251986   6.445   2.353   0.801 -0.1267 -0.0194 -0.0027
 9264TIP3    H151987   6.497   2.336   0.722  1.2216  0.5995  0.7309
 9264TIP3    H251988   6.450   2.448   0.814  0.7117 -0.2429  1.5146
 9265TIP3   OH251989   4.930   3.083   1.776 -0.2610  0.6653  0.1584
 9265TIP3    H151990   4.903   3.166   1.737  0.4530  1.0986  0.5787
 9265TIP3    H251991   5.017   3.067   1.741 -0.7315 -0.3506 -0.5982
 9266TIP3   OH251992   7.049   6.218   0.871 -0.6076 -0.6137 -0.1055
 9266TIP3    H151993   6.992   6.236   0.796 -0.1597  2.4862  0.1566
 9266TIP3    H251994   7.137   6.243   0.840 -0.1845 -0.6928  0.9783
 9267TIP3   OH251995   2.510   5.384   0.910 -0.1098 -0.3218 -0.9657
 9267TIP3    H151996   2.596   5.417   0.884 -0.0067  0.2732  0.0688
 9267TIP3    H251997   2.461   5.462   0.935 -0.6745 -0.7339 -0.7652
 9268TIP3   OH251998   5.326   4.170   1.133 -0.7812  1.0114  0.0991
 9268TIP3    H151999   5.234   4.165   1.106 -1.2898  2.5290  1.3313
 9268TIP3    H252000   5.322   4.215   1.218  1.0399  0.2840  0.5929
 9269TIP3   OH252001   4.035   6.009   2.386 -0.0207  0.0282 -0.2580
 9269TIP3    H152002   4.093   6.081   2.410 -1.5476  0.9163  0.9376
 9269TIP3    H252003   3.974   6.047   2.322 -1.3915  0.1119  1.0356
 9270TIP3   OH252004   6.066   5.955   1.379  0.2281  0.2899 -0.0346
 9270TIP3    H152005   6.058   5.992   1.291  1.1774 -0.3705 -0.4249
 9270TIP3    H252006   6.122   6.017   1.426 -0.1344  0.5528  0.0526
 9271TIP3   OH252007   5.886   1.486   1.582 -0.0520  0.1097  0.0444
 9271TIP3    H152008   5.899   1.575   1.550 -2.2831 -0.2309 -2.1177
 9271TIP3    H252009   5.793   1.482   1.604  0.2400 -1.3909  1.1724
 9272TIP3   OH252010   6.632   4.534   0.833  0.3399  0.3108  0.6097
 9272TIP3    H152011   6.672   4.447   0.835 -0.0445 -0.0211 -1.9859
 9272TIP3    H252012   6.566   4.532   0.903  0.1062 -1.6121  0.3829
 9273TIP3   OH252013   2.283   4.200   2.076 -0.2249  0.4678  0.0643
 9273TIP3    H152014   2.267   4.205   1.981 -1.3082 -0.5805  0.1656
 9273TIP3    H252015   2.239   4.277   2.111 -0.2584  0.5870 -0.2332
 9274TIP3   OH252016   3.586   4.109   0.559 -0.7737 -0.5919  0.3651
 9274TIP3    H152017   3.578   4.146   0.471  0.6267 -0.2970  0.3436
 9274TIP3    H252018   3.641   4.172   0.606 -1.6223 -0.6738  1.5021
 9275TIP3   OH252019   7.342   7.252   2.264 -0.1748  0.1965  0.2575
 9275TIP3    H152020   7.406   7.184   2.285 -0.2016 -0.8386 -2.5728
 9275TIP3    H252021   7.393   7.333   2.262  1.0545 -0.5500 -1.4894
 9276TIP3   OH252022   0.394   6.722   0.595 -0.0183  0.0437 -0.0547
 9276TIP3    H152023   0.360   6.811   0.584  0.6605  0.3381  0.1954
 9276TIP3    H252024   0.416   6.716   0.688  0.1496 -0.3076 -0.1160
 9277TIP3   OH252025   7.214   4.109   2.123 -0.3461 -0.1066  0.0434
 9277TIP3    H152026   7.258   4.169   2.183 -0.2693  1.9557 -1.9195
 9277TIP3    H252027   7.258   4.025   2.135 -0.3496  0.1923  2.7858
 9278TIP3   OH252028   6.744   4.424   1.283  0.2592  0.2416  0.0917
 9278TIP3    H152029   6.662   4.410   1.331  0.6532 -1.8096  0.2259
 9278TIP3    H252030   6.812   4.393   1.342  0.9668  0.0133 -0.8251
 9279TIP3   OH252031   6.571   5.285   3.816 -0.4006 -0.5866 -0.1228
 9279TIP3    H152032   6.664   5.284   3.794 -0.7879 -0.7010 -1.8682
 9279TIP3    H252033   6.548   5.193   3.829  0.0978 -0.4412  2.1339
 9280TIP3   OH252034   6.384   2.058   1.573  0.0555  0.1059  0.2392
 9280TIP3    H152035   6.307   2.064   1.518  0.3932  1.0209 -0.1568
 9280TIP3    H252036   6.434   2.137   1.553  1.9566 -1.2836 -0.7853
 9281TIP3   OH252037   2.452   4.072   2.859 -0.5083  0.1974  0.0110
 9281TIP3    H152038   2.413   3.989   2.886 -0.5776  0.5097  0.8909
 9281TIP3    H252039   2.438   4.075   2.764 -0.4550 -0.8154 -0.0408
 9282TIP3   OH252040   1.772   3.989   1.194  0.1491  0.4919 -0.3291
 9282TIP3    H152041   1.860   3.957   1.210 -0.0386  0.7576  1.3945
 9282TIP3    H252042   1.783   4.080   1.169  0.4278  0.1909 -1.3368
 9283TIP3   OH252043   1.911   3.538   0.636  0.3022 -0.5840  0.1248
 9283TIP3    H152044   1.922   3.470   0.570 -1.7732 -0.2907 -0.5990
 9283TIP3    H252045   1.862   3.495   0.707  0.2493 -0.2232  0.3093
 9284TIP3   OH252046   5.982   3.826   1.823 -0.6779  0.1698 -0.1623
 9284TIP3    H152047   5.991   3.773   1.743  0.0600  0.0415  0.0004
 9284TIP3    H252048   5.943   3.766   1.887 -1.5499  0.3589 -0.5093
 9285TIP3   OH252049   7.561   3.184   1.258  0.1992 -0.6345 -0.4004
 9285TIP3    H152050   7.586   3.092   1.267  2.3220  0.0669  2.5937
 9285TIP3    H252051   7.469   3.186   1.285  0.7460 -1.6615  1.8111
 9286TIP3   OH252052   3.101   3.015   1.885 -0.1250 -0.3026  0.4666
 9286TIP3    H152053   3.082   3.093   1.938  1.0167  0.9386 -0.8729
 9286TIP3    H252054   3.015   2.980   1.862 -0.7005  1.3024  0.0587
 9287TIP3   OH252055   3.914   3.689   2.357  0.1146 -0.4971  1.0219
 9287TIP3    H152056   3.946   3.752   2.293 -1.2943 -1.5993 -0.8648
 9287TIP3    H252057   3.944   3.604   2.325  1.4384 -0.9004  3.1671
 9288TIP3   OH252058   5.934   0.385   3.161  0.1532  0.6791 -0.2776
 9288TIP3    H152059   5.896   0.306   3.200  1.5427 -1.0253 -2.1612
 9288TIP3    H252060   6.025   0.386   3.192  1.1381 -0.4307 -2.8090
 9289TIP3   OH252061   0.834   5.896   1.165 -0.0552 -0.2498 -0.3931
 9289TIP3    H152062   0.815   5.836   1.237 -0.4950  1.1250  0.6563
 9289TIP3    H252063   0.850   5.838   1.090  0.5475 -1.7031  0.8191
 9290TIP3   OH252064   6.757   3.704   3.109 -0.2702  0.0195 -0.4802
 9290TIP3    H152065   6.684   3.745   3.063  0.8116  0.6328 -1.7062
 9290TIP3    H252066   6.784   3.632   3.052  0.5794  0.2925 -0.4303
 9291TIP3   OH252067   6.931   5.553   2.689 -0.0031 -0.2256  0.2038
 9291TIP3    H152068   6.962   5.513   2.770 -1.0994  0.7765  1.1588
 9291TIP3    H252069   6.911   5.644   2.713  0.4150  0.3217 -1.3924
 9292TIP3   OH252070   6.311   0.841   3.068  0.1796  0.3422  0.2422
 9292TIP3    H152071   6.297   0.932   3.043  2.0517  0.3470 -1.0289
 9292TIP3    H252072   6.314   0.793   2.985 -0.3753 -0.8333  0.8652
 9293TIP3   OH252073   5.049   0.914   1.276 -0.2854  0.0699 -0.2794
 9293TIP3    H152074   5.033   0.846   1.210  0.5315 -1.0474  0.6326
 9293TIP3    H252075   5.143   0.932   1.270 -0.3861  0.6907 -0.0902
 9294TIP3   OH252076   5.465   2.709   2.324 -0.1195 -0.1853 -0.2117
 9294TIP3    H152077   5.492   2.792   2.285  2.4690 -0.4712  0.7661
 9294TIP3    H252078   5.535   2.648   2.302 -0.0461 -1.1128  2.2618
 9295TIP3   OH252079   5.995   6.766   1.415  0.1949  0.4563  0.5021
 9295TIP3    H152080   6.080   6.808   1.422 -0.0235  0.9806  0.0635
 9295TIP3    H252081   5.974   6.768   1.321 -0.2156  0.1766  0.5837
 9296TIP3   OH252082   5.590   2.739   2.004 -0.0694 -0.5509 -0.2728
 9296TIP3    H152083   5.641   2.710   2.079 -0.4665  0.0033  0.2198
 9296TIP3    H252084   5.625   2.825   1.982 -1.0167 -0.0038  0.2979
 9297TIP3   OH252085   0.273   0.690   0.771  0.9222 -0.1569 -0.0785
 9297TIP3    H152086   0.192   0.741   0.774  0.7131 -0.5229  1.3478
 9297TIP3    H252087   0.291   0.668   0.863  3.1733  0.7371 -0.2469
 9298TIP3   OH252088   3.881   5.256   3.074  0.1823 -0.1377  0.3000
 9298TIP3    H152089   3.857   5.171   3.112  1.6075  0.0281  1.7036
 9298TIP3    H252090   3.799   5.306   3.073 -0.3542 -0.9741  1.0167
 9299TIP3   OH252091   0.850   7.641   1.494 -1.2227  0.0981  0.3296
 9299TIP3    H152092   0.770   7.673   1.452 -0.8298  2.0142  0.9488
 9299TIP3    H252093   0.863   7.700   1.568  1.3068  0.4781 -0.3290
 9300TIP3   OH252094   1.356   5.659   2.683  0.5378 -0.4817  0.4392
 9300TIP3    H152095   1.386   5.746   2.657  0.7930 -0.7702 -0.2587
 9300TIP3    H252096   1.271   5.673   2.724  0.8856  0.1710  0.9498
 9301TIP3   OH252097   3.187   2.292   0.929  0.2327  0.2468 -0.0335
 9301TIP3    H152098   3.134   2.213   0.942 -1.0931  1.2403  0.8764
 9301TIP3    H252099   3.249   2.268   0.860 -0.1782 -1.5587  0.1689
 9302TIP3   OH252100   0.136   0.458   3.359 -0.3405 -0.0388  0.2052
 9302TIP3    H152101   0.072   0.493   3.421  0.8250  1.5103  0.5757
 9302TIP3    H252102   0.202   0.527   3.350  2.5273 -2.3926  1.5525
 9303TIP3   OH252103   6.270   2.848   1.882  0.1957  0.5938 -0.9620
 9303TIP3    H152104   6.176   2.854   1.865 -0.1689 -0.5960  0.4261
 9303TIP3    H252105   6.311   2.893   1.808 -1.4871  2.1380 -1.0120
 9304TIP3   OH252106   7.303   2.332   2.342  0.5159 -0.6819 -0.5246
 9304TIP3    H152107   7.292   2.317   2.249 -0.6312 -2.0985 -0.1792
 9304TIP3    H252108   7.336   2.249   2.377  1.9403  0.1359  0.1985
 9305TIP3   OH252109   5.719   1.827   0.972 -0.1507  0.3507  0.7539
 9305TIP3    H152110   5.740   1.820   0.879  0.5656  1.0137  0.8540
 9305TIP3    H252111   5.665   1.750   0.990 -0.7737  0.5068 -0.3343
 9306TIP3   OH252112   1.467   1.400   1.307  0.1324  0.1262 -0.2438
 9306TIP3    H152113   1.518   1.322   1.328  1.9889  1.3021 -0.0823
 9306TIP3    H252114   1.480   1.413   1.213 -0.6906 -0.0872 -0.3966
 9307TIP3   OH252115   0.451   3.704   1.036 -0.3373  0.2914 -0.0868
 9307TIP3    H152116   0.433   3.610   1.037  0.4731  0.1318  0.2133
 9307TIP3    H252117   0.470   3.726   1.128  1.0911  0.4173 -0.3932
 9308TIP3   OH252118   0.869   7.109   2.412  0.3899  0.2676 -0.0574
 9308TIP3    H152119   0.843   7.127   2.321  0.0529  1.2788  0.2235
 9308TIP3    H252120   0.957   7.144   2.419 -0.1101  1.4877  0.3769
 9309TIP3   OH252121   4.202   6.108   1.457  0.1844  0.6799  0.4578
 9309TIP3    H152122   4.281   6.099   1.511 -0.2207 -1.0623  0.8056
 9309TIP3    H252123   4.157   6.184   1.494  0.3907  0.1039  1.9998
 9310TIP3   OH252124   1.738   1.496   1.860 -0.2078 -0.1308 -0.2373
 9310TIP3    H152125   1.687   1.572   1.888 -0.4097 -0.6178  0.7714
 9310TIP3    H252126   1.740   1.502   1.765 -3.8513 -1.1364 -0.5108
 9311TIP3   OH252127   6.939   1.107   2.687  0.2365 -0.5865  0.4092
 9311TIP3    H152128   7.023   1.059   2.685 -0.3489 -1.6688  0.7840
 9311TIP3    H252129   6.922   1.120   2.780 -0.3127 -0.9177  0.3548
 9312TIP3   OH252130   5.488   2.594   1.033 -0.3736 -0.3946 -0.1062
 9312TIP3    H152131   5.535   2.622   0.955  0.9032 -1.4671  0.2391
 9312TIP3    H252132   5.436   2.519   1.004 -1.0476  0.1269 -0.2508
 9313TIP3   OH252133   7.243   1.641   2.100  0.3512  0.5254 -0.1025
 9313TIP3    H152134   7.238   1.551   2.066  1.0508  0.5112 -0.1848
 9313TIP3    H252135   7.320   1.640   2.158 -0.1008  0.8703  0.5139
 9314TIP3   OH252136   6.152   5.273   2.711  0.4778 -0.8304 -0.1647
 9314TIP3    H152137   6.202   5.195   2.686  0.5935 -1.4883  1.9576
 9314TIP3    H252138   6.095   5.244   2.781 -0.4678  0.7131 -0.2500
 9315TIP3   OH252139   6.154   0.468   1.671  0.1702  0.0194 -0.2093
 9315TIP3    H152140   6.125   0.377   1.682  1.2118 -0.2009  0.9118
 9315TIP3    H252141   6.243   0.469   1.705  1.5670  0.6638 -3.4679
 9316TIP3   OH252142   6.703   5.702   1.639 -0.2421 -0.1006  0.4242
 9316TIP3    H152143   6.719   5.651   1.718 -2.2706  0.4857  1.2831
 9316TIP3    H252144   6.617   5.672   1.609  0.3205 -0.0143 -1.3458
 9317TIP3   OH252145   5.123   2.648   0.523 -0.4544 -0.0643  0.2056
 9317TIP3    H152146   5.031   2.673   0.514 -0.3456  0.0249 -0.8850
 9317TIP3    H252147   5.163   2.678   0.441  0.3326 -1.0054  0.2370
 9318TIP3   OH252148   0.570   7.539   1.120  0.0801 -0.0852  0.1205
 9318TIP3    H152149   0.634   7.468   1.122  0.0623 -0.1160 -0.4164
 9318TIP3    H252150   0.580   7.579   1.034  0.2732  0.7340  0.5098
 9319TIP3   OH252151   4.393   6.548   1.992 -0.1664  1.0277 -0.2488
 9319TIP3    H152152   4.395   6.624   1.934  0.5094  1.2898  0.1091
 9319TIP3    H252153   4.412   6.584   2.079  1.8890  0.2391 -0.3242
 9320TIP3   OH252154   0.597   7.183   1.952 -0.1283 -0.0485  0.0496
 9320TIP3    H152155   0.545   7.115   1.994  1.7125 -1.0670  0.8123
 9320TIP3    H252156   0.595   7.160   1.859  0.3351 -1.1000  0.2778
 9321TIP3   OH252157   2.721   4.984   1.406  0.4226  0.1473 -0.4538
 9321TIP3    H152158   2.711   4.964   1.312  0.3579 -0.4414 -0.3277
 9321TIP3    H252159   2.816   4.994   1.418  0.3667  1.0359 -0.7388
 9322TIP3   OH252160   5.726   5.174   1.446  0.2199 -0.1495 -0.1115
 9322TIP3    H152161   5.801   5.162   1.388  0.0561 -0.3572 -0.2782
 9322TIP3    H252162   5.663   5.224   1.394 -0.3832 -1.2956 -0.4973
 9323TIP3   OH252163   4.914   4.054   1.449 -0.2677 -0.3368 -0.2022
 9323TIP3    H152164   4.949   3.969   1.474  2.3576  0.9766  1.0708
 9323TIP3    H252165   4.986   4.096   1.402 -1.9821  0.7064 -2.0316
 9324TIP3   OH252166   0.509   2.692   2.022 -0.0040  0.2242 -0.1648
 9324TIP3    H152167   0.448   2.721   1.955 -0.0995  0.3794 -0.0140
 9324TIP3    H252168   0.513   2.766   2.084  0.4185  0.2598 -0.2323
 9325TIP3   OH252169   3.030   2.032   1.353 -0.4187 -0.1846 -0.0154
 9325TIP3    H152170   3.006   1.957   1.407 -0.2762 -0.6003 -0.5106
 9325TIP3    H252171   3.077   2.091   1.412 -0.8894 -0.2967  0.4732
 9326TIP3   OH252172   4.526   5.661   1.400  0.4085 -0.0043  0.0961
 9326TIP3    H152173   4.606   5.699   1.436 -0.0183  1.2128 -0.2075
 9326TIP3    H252174   4.491   5.729   1.343 -1.3669 -0.1369  0.9769
 9327TIP3   OH252175   5.255   6.115   2.730 -0.3619 -0.5145  0.1913
 9327TIP3    H152176   5.242   6.045   2.666  0.6293 -0.8145  0.2939
 9327TIP3    H252177   5.331   6.163   2.697 -0.8774  0.3606  0.2605
 9328TIP3   OH252178   0.183   1.845   2.444 -0.4812  0.5189 -0.2557
 9328TIP3    H152179   0.151   1.891   2.522 -1.2998  0.5337 -0.5868
 9328TIP3    H252180   0.209   1.759   2.476  0.7266  1.0733  0.3084
 9329TIP3   OH252181   4.882   6.839   0.709  0.1297 -0.0464 -1.1491
 9329TIP3    H152182   4.811   6.775   0.710 -0.5345  0.6727 -1.6328
 9329TIP3    H252183   4.842   6.920   0.677  0.7965  0.8013  0.0588
 9330TIP3   OH252184   5.673   7.096   1.096  0.0817  0.0537  0.2334
 9330TIP3    H152185   5.596   7.049   1.067  0.1806  0.8220 -1.3680
 9330TIP3    H252186   5.725   7.109   1.017  1.0880  0.9382  1.0020
 9331TIP3   OH252187   3.704   5.533   0.620  0.1186 -0.3702 -0.3008
 9331TIP3    H152188   3.726   5.626   0.627  0.0372 -0.2049 -1.8689
 9331TIP3    H252189   3.609   5.531   0.608  0.1103 -0.6650 -0.1987
 9332TIP3   OH252190   5.187   5.867   3.146  0.2381  0.2492  0.1449
 9332TIP3    H152191   5.097   5.835   3.151  0.0695  0.2484 -1.8461
 9332TIP3    H252192   5.185   5.951   3.192 -0.5564 -0.1690  0.9057
 9333TIP3   OH252193   5.456   6.063   1.596 -0.3831 -0.1914  0.4471
 9333TIP3    H152194   5.502   5.997   1.544 -0.5984  0.3274 -0.4232
 9333TIP3    H252195   5.423   6.126   1.532 -1.7755 -0.2181  1.0985
 9334TIP3   OH252196   5.557   2.153   2.050 -0.0613  0.5304  0.4679
 9334TIP3    H152197   5.630   2.093   2.036  0.4262  1.1844  0.1279
 9334TIP3    H252198   5.581   2.232   2.001 -0.0277  1.5295  2.0197
 9335TIP3   OH252199   3.411   4.093   1.165 -0.7181  0.6182  0.2620
 9335TIP3    H152200   3.346   4.089   1.095 -0.5648 -1.3685  0.1549
 9335TIP3    H252201   3.360   4.098   1.246 -1.0056 -0.2958  0.1457
 9336TIP3   OH252202   0.266   5.099   2.727  0.5244  0.4938 -0.0752
 9336TIP3    H152203   0.308   5.133   2.806 -0.2984 -0.2603  0.7113
 9336TIP3    H252204   0.291   5.161   2.659  0.6571  1.5809  0.9164
 9337TIP3   OH252205   6.531   3.514   1.616 -0.1753  0.2625 -0.0411
 9337TIP3    H152206   6.542   3.589   1.558  1.6600  1.0796  1.2602
 9337TIP3    H252207   6.579   3.538   1.696 -2.2539 -0.9618  1.7034
 9338TIP3   OH252208   3.017   2.443   2.545 -0.3047  0.1428 -0.0557
 9338TIP3    H152209   2.925   2.468   2.539 -1.0773 -2.1350  1.0333
 9338TIP3    H252210   3.017   2.366   2.602  2.1326 -0.6582 -0.9997
 9339TIP3   OH252211   5.327   6.220   0.922 -0.2720 -0.2640 -0.4168
 9339TIP3    H152212   5.302   6.184   1.006 -0.8979 -1.3908 -1.0603
 9339TIP3    H252213   5.405   6.171   0.897 -0.4055 -0.3149 -0.7404
 9340TIP3   OH252214   5.701   3.783   2.280  0.2513  0.3921  0.2984
 9340TIP3    H152215   5.612   3.771   2.247  0.1338  0.3522  0.6282
 9340TIP3    H252216   5.706   3.724   2.355  1.2587 -1.2843 -0.9941
 9341TIP3   OH252217   3.787   6.032   2.754  0.1626 -0.2707 -0.5253
 9341TIP3    H152218   3.709   5.990   2.718  0.8229 -1.9530 -0.1322
 9341TIP3    H252219   3.789   6.004   2.846  1.4986 -0.7450 -0.6750
 9342TIP3   OH252220   3.507   0.657   0.908 -0.1292 -0.2866  0.2114
 9342TIP3    H152221   3.423   0.696   0.932 -2.0776 -1.2488 -4.1048
 9342TIP3    H252222   3.552   0.725   0.857 -0.2548 -1.1432 -1.0899
 9343TIP3   OH252223   5.130   7.438   3.134  0.0674 -0.1472  0.0022
 9343TIP3    H152224   5.083   7.521   3.136 -0.3159 -0.3733  0.5711
 9343TIP3    H252225   5.202   7.451   3.196  0.0967 -0.1857 -0.0244
 9344TIP3   OH252226   5.353   7.666   1.853  0.1878  0.1616 -0.5773
 9344TIP3    H152227   5.316   7.655   1.765 -0.7053 -1.8075 -0.0084
 9344TIP3    H252228   5.322   7.590   1.902  2.8844 -0.2550  0.6897
 9345TIP3   OH252229   7.256   6.820   0.871 -0.2977  0.5599  0.4809
 9345TIP3    H152230   7.163   6.814   0.892 -0.4934  1.5666  0.0156
 9345TIP3    H252231   7.279   6.733   0.840 -1.9758  1.0785 -2.6997
 9346TIP3   OH252232   1.363   3.069   1.609  0.4108 -0.3227 -0.1302
 9346TIP3    H152233   1.398   2.990   1.568 -1.6804 -1.4834  0.1513
 9346TIP3    H252234   1.268   3.061   1.599  0.0730  1.5788  0.9714
 9347TIP3   OH252235   4.659   5.938   3.234 -0.0250 -0.9068  0.2676
 9347TIP3    H152236   4.654   6.034   3.242 -2.1955 -0.9469 -0.1538
 9347TIP3    H252237   4.753   5.920   3.237  0.4677  1.2595  0.1087
 9348TIP3   OH252238   5.759   5.927   0.787 -0.0435  0.3379  1.1356
 9348TIP3    H152239   5.769   5.841   0.746  1.9987 -0.0410  2.3119
 9348TIP3    H252240   5.809   5.986   0.731 -0.2009  0.4778  1.1436
 9349TIP3   OH252241   3.507   4.893   0.906 -0.0467 -0.2760 -0.3745
 9349TIP3    H152242   3.470   4.828   0.966 -3.3541  0.9158 -0.9147
 9349TIP3    H252243   3.509   4.974   0.957  1.4942 -0.1606 -0.5480
 9350TIP3   OH252244   0.344   6.460   1.091 -0.0072  0.4184 -0.5760
 9350TIP3    H152245   0.303   6.513   1.159  0.8429  1.9127 -1.1711
 9350TIP3    H252246   0.379   6.384   1.136  1.8753  2.0963  0.9655
 9351TIP3   OH252247   6.502   6.737   0.769  0.2209  0.1100  0.0170
 9351TIP3    H152248   6.503   6.687   0.850 -0.3299 -1.9454 -1.1595
 9351TIP3    H252249   6.593   6.738   0.740  0.4736  1.1518  0.8058
 9352TIP3   OH252250   0.006   0.263   0.902 -0.0942  0.3729  0.0730
 9352TIP3    H152251   0.012   0.181   0.951  0.9165  0.1695 -0.3710
 9352TIP3    H252252   0.092   0.272   0.860 -1.3020 -0.1886 -2.8019
 9353TIP3   OH252253   3.326   7.662   1.472  0.5982  0.0188 -0.0617
 9353TIP3    H152254   3.244   7.622   1.503  0.1207  0.7524 -0.3371
 9353TIP3    H252255   3.306   7.692   1.383  0.8738  1.0246  0.2019
 9354TIP3   OH252256   6.503   2.312   1.552 -0.9051 -0.1673 -0.1392
 9354TIP3    H152257   6.583   2.273   1.588 -0.2316 -0.0361 -1.4339
 9354TIP3    H252258   6.463   2.356   1.627 -1.5762 -3.0589  1.3420
 9355TIP3   OH252259   4.916   4.680   3.047  0.0515 -0.3769 -0.4428
 9355TIP3    H152260   4.878   4.613   3.103 -1.7626  2.1134  1.5631
 9355TIP3    H252261   4.994   4.710   3.095 -0.5977  0.6579 -0.0016
 9356TIP3   OH252262   3.090   3.997   1.558  0.1313  0.6039 -0.2122
 9356TIP3    H152263   3.186   4.002   1.561  0.2800 -0.7705 -1.6935
 9356TIP3    H252264   3.061   4.089   1.561  1.2599  1.0533  4.1569
 9357TIP3   OH252265   4.211   2.641   1.056  0.7957  0.0244 -0.0924
 9357TIP3    H152266   4.172   2.658   1.141 -0.0202 -0.0829 -0.4392
 9357TIP3    H252267   4.190   2.550   1.037  0.5640  0.1810 -0.6143
 9358TIP3   OH252268   6.867   0.662   2.354  0.4015  0.5303  0.9016
 9358TIP3    H152269   6.929   0.594   2.326 -0.2422 -1.0641  3.1106
 9358TIP3    H252270   6.834   0.699   2.272  0.4522 -2.1263 -0.4361
 9359TIP3   OH252271   0.879   1.479   1.968  0.3084  0.1351  0.1387
 9359TIP3    H152272   0.832   1.411   1.919  0.1876 -0.4426  1.0464
 9359TIP3    H252273   0.936   1.520   1.903  2.9344 -3.0574  0.1983
 9360TIP3   OH252274   1.068   0.022   0.802  0.1794 -0.1232  0.2582
 9360TIP3    H152275   1.134   0.058   0.861  1.1588 -0.9149 -0.3333
 9360TIP3    H252276   1.118  -0.025   0.735 -0.9839 -0.8164 -0.1551
 9361TIP3   OH252277   0.917   0.783   2.697 -0.0104 -0.1704  0.0137
 9361TIP3    H152278   1.007   0.768   2.668  0.4086  1.9732  0.0305
 9361TIP3    H252279   0.867   0.710   2.661  1.4567 -0.5087 -1.4157
 9362TIP3   OH252280   1.080   3.019   0.852  0.0758 -0.0008  0.2889
 9362TIP3    H152281   1.069   2.980   0.939 -0.5385 -1.6581 -0.4830
 9362TIP3    H252282   1.173   3.007   0.832  0.0555 -0.3479  0.3999
 9363TIP3   OH252283   7.510   1.935   3.310 -0.8744  0.5775 -0.4679
 9363TIP3    H152284   7.447   1.969   3.372 -0.0768  0.1430  0.6149
 9363TIP3    H252285   7.492   1.841   3.306 -0.0469  0.3818  0.1691
 9364TIP3   OH252286   5.644   6.268   3.059  0.6075 -0.3449 -0.2202
 9364TIP3    H152287   5.687   6.203   3.114 -0.0244  0.6309  1.4934
 9364TIP3    H252288   5.550   6.258   3.078  0.4398  0.5301 -0.5202
 9365TIP3   OH252289   0.818   0.525   1.880 -0.6546 -0.1824  0.2257
 9365TIP3    H152290   0.902   0.500   1.919  0.7557  3.4711 -0.1443
 9365TIP3    H252291   0.829   0.508   1.786  0.4699  1.9544 -0.0895
 9366TIP3   OH252292   5.837   2.195   0.826  0.2792  0.3022  0.3901
 9366TIP3    H152293   5.794   2.124   0.778  0.3992  1.1324 -1.0052
 9366TIP3    H252294   5.881   2.246   0.758 -0.1842  1.9834  1.3070
 9367TIP3   OH252295   1.966   4.052   2.570 -0.1189 -0.0952 -0.0370
 9367TIP3    H152296   1.880   4.072   2.534 -1.1050 -0.6784  1.8671
 9367TIP3    H252297   2.020   4.031   2.494 -1.8070 -0.2701 -1.2280
 9368TIP3   OH252298   7.068   6.406   0.594  0.0871 -0.7037 -0.5612
 9368TIP3    H152299   7.118   6.437   0.669  0.1538 -0.8968 -0.5276
 9368TIP3    H252300   6.990   6.367   0.632 -0.9466  1.1191 -0.6646
 9369TIP3   OH252301   0.201   5.838   0.534 -0.4634  0.3256  0.6087
 9369TIP3    H152302   0.129   5.894   0.505 -0.9175 -1.3497 -1.7738
 9369TIP3    H252303   0.159   5.762   0.573 -0.1407 -1.1094 -1.6446
 9370TIP3   OH252304   7.347   2.175   0.656  0.8960  0.4008 -0.1579
 9370TIP3    H152305   7.366   2.088   0.689  0.4981 -0.0044 -0.9532
 9370TIP3    H252306   7.257   2.192   0.682  1.9790  2.0418  3.0273
 9371TIP3   OH252307   6.617   6.839   1.521 -0.5849 -0.4920 -0.3482
 9371TIP3    H152308   6.617   6.926   1.562 -1.2958  0.2565 -1.8513
 9371TIP3    H252309   6.700   6.800   1.548 -0.4124  0.5138  0.6507
 9372TIP3   OH252310   4.164   1.487   1.664  0.1367  0.0321 -0.3861
 9372TIP3    H152311   4.224   1.560   1.645  1.7666 -1.1891 -0.2225
 9372TIP3    H252312   4.093   1.498   1.601  1.0677  0.9619 -1.3275
 9373TIP3   OH252313   1.350   4.227   1.055 -0.8638  0.1566  0.2637
 9373TIP3    H152314   1.269   4.266   1.087 -1.4132  1.4069 -2.3878
 9373TIP3    H252315   1.394   4.298   1.007  0.4474 -1.2128 -0.6619
 9374TIP3   OH252316   2.871   2.989   0.545 -0.1188 -0.1798  0.6432
 9374TIP3    H152317   2.787   2.948   0.522  1.2936 -2.6881 -0.4096
 9374TIP3    H252318   2.881   2.972   0.638 -0.3400 -0.7540  0.5669
 9375TIP3   OH252319   0.148   2.529   2.841  0.2865 -0.5431  0.8886
 9375TIP3    H152320   0.234   2.487   2.843  1.0360  0.9672  1.5462
 9375TIP3    H252321   0.163   2.617   2.876 -1.3317  0.1063  0.0555
 9376TIP3   OH252322   6.597   3.157   1.753  0.4036  0.4237 -0.3558
 9376TIP3    H152323   6.524   3.203   1.712 -0.1769 -1.2168 -1.2214
 9376TIP3    H252324   6.647   3.121   1.680  0.5130 -0.8076  0.3054
 9377TIP3   OH252325   2.863   5.140   0.919  0.4303  0.5232 -0.1014
 9377TIP3    H152326   2.909   5.089   0.985  0.8261  0.5452 -0.3501
 9377TIP3    H252327   2.789   5.086   0.893 -0.5022  1.0629  1.2930
 9378TIP3   OH252328   6.415   1.908   1.101  0.4898 -0.1929 -0.5775
 9378TIP3    H152329   6.419   1.858   1.183 -2.2368 -0.9521 -0.8025
 9378TIP3    H252330   6.358   1.982   1.121 -0.1422 -0.3454 -1.7475
 9379TIP3   OH252331   4.938   5.435   2.972  0.5828  0.1058  1.0854
 9379TIP3    H152332   4.980   5.476   3.048  0.5276  2.1438  0.0917
 9379TIP3    H252333   4.955   5.496   2.900 -2.4819  0.1052  0.2349
 9380TIP3   OH252334   3.223   0.935   2.482 -0.2724 -0.1452  0.2460
 9380TIP3    H152335   3.315   0.948   2.459 -0.0654  1.0177  1.5942
 9380TIP3    H252336   3.200   0.849   2.445  0.8420  0.3026 -1.5930
 9381TIP3   OH252337   6.959   3.654   2.608 -0.1908  0.1396  0.6133
 9381TIP3    H152338   6.896   3.717   2.572  1.3968  1.6566  0.3729
 9381TIP3    H252339   6.906   3.597   2.664 -2.0083  0.4191 -0.7301
 9382TIP3   OH252340   2.844   6.556   2.536 -0.4091  0.2139  0.1308
 9382TIP3    H152341   2.758   6.515   2.529  0.0977 -0.7802 -0.5196
 9382TIP3    H252342   2.882   6.520   2.616  0.9869 -2.5490 -1.6415
 9383TIP3   OH252343   0.998   2.640   2.631 -0.0191  0.4424 -0.0641
 9383TIP3    H152344   0.975   2.674   2.718  1.3358 -0.3920  0.6624
 9383TIP3    H252345   0.993   2.545   2.641  1.8113  0.2804 -0.3791
 9384TIP3   OH252346   5.198   2.986   2.295 -0.0955  0.1562 -0.6283
 9384TIP3    H152347   5.247   2.938   2.227 -1.6257 -0.8117 -1.0981
 9384TIP3    H252348   5.227   3.076   2.287 -0.4226  0.1107 -2.7668
 9385TIP3   OH252349   7.514   4.275   2.121 -0.4853 -0.4275 -0.1910
 9385TIP3    H152350   7.421   4.255   2.134 -1.0254  0.9527 -1.4963
 9385TIP3    H252351   7.537   4.331   2.194 -1.4279  1.2893 -1.1411
 9386TIP3   OH252352   3.939   4.652   2.962  0.1611  0.6890  0.0634
 9386TIP3    H152353   4.029   4.672   2.937 -0.4748  0.7865 -2.4611
 9386TIP3    H252354   3.936   4.556   2.961 -0.0255  0.6960 -1.0161
 9387TIP3   OH252355   1.172   3.841   1.537  0.1821 -0.2615  0.1652
 9387TIP3    H152356   1.098   3.893   1.568  0.3568  1.7738 -2.4083
 9387TIP3    H252357   1.227   3.827   1.614 -1.2917  0.9405  1.4924
 9388TIP3   OH252358   3.589   2.102   1.017  0.4410 -0.3737  0.0441
 9388TIP3    H152359   3.546   2.035   0.963  0.9863 -0.1930 -0.6274
 9388TIP3    H252360   3.521   2.168   1.033  0.0850 -0.7669  0.1648
 9389TIP3   OH252361   3.192   4.497   1.034 -0.1267  0.2243 -0.0618
 9389TIP3    H152362   3.142   4.508   0.954 -1.9897  0.1116  1.0207
 9389TIP3    H252363   3.182   4.404   1.057  0.8690  0.1206  0.0122
 9390TIP3   OH252364   1.858   2.103   0.555  0.2815 -0.0318  0.0594
 9390TIP3    H152365   1.894   2.020   0.524  1.4503  0.3979  0.2187
 9390TIP3    H252366   1.772   2.110   0.512 -0.4354 -1.9430  1.0773
 9391TIP3   OH252367   2.782   6.890   1.951  0.4159  0.0348 -0.0893
 9391TIP3    H152368   2.828   6.852   1.876  0.0873  0.1725 -0.3625
 9391TIP3    H252369   2.733   6.816   1.988  3.1949 -0.9139  2.0804
 9392TIP3   OH252370   2.785   1.254   0.822 -0.1392  0.4078  1.0395
 9392TIP3    H152371   2.830   1.336   0.804  1.7928 -1.0184 -1.2544
 9392TIP3    H252372   2.829   1.219   0.899 -0.5324  1.1900  1.6298
 9393TIP3   OH252373   7.493   6.767   0.583 -0.3461 -0.1489  0.4656
 9393TIP3    H152374   7.503   6.861   0.564  1.1852 -0.4303 -0.2808
 9393TIP3    H252375   7.562   6.749   0.648 -0.6680 -0.7454  0.6448
 9394TIP3   OH252376   1.553   2.696   0.820  0.1389  0.1349 -0.1151
 9394TIP3    H152377   1.570   2.693   0.914 -0.2554 -0.3393 -0.0536
 9394TIP3    H252378   1.628   2.652   0.780  0.8559  1.3193 -0.1048
 9395TIP3   OH252379   6.876   2.939   2.515 -0.3181  0.1977 -0.0462
 9395TIP3    H152380   6.841   3.015   2.561 -0.5216  0.7555 -1.0828
 9395TIP3    H252381   6.957   2.970   2.474 -1.3618  0.4598 -2.0735
 9396TIP3   OH252382   1.734   3.033   1.678  0.5016 -0.9976  0.7476
 9396TIP3    H152383   1.816   2.998   1.642  0.0537 -0.6790 -0.6437
 9396TIP3    H252384   1.714   2.976   1.753  0.7869 -2.5518 -0.3131
 9397TIP3   OH252385   7.524   0.399   2.631 -0.1735  0.4087  0.1275
 9397TIP3    H152386   7.455   0.342   2.666 -0.1427  0.1641 -0.2070
 9397TIP3    H252387   7.603   0.345   2.632  0.1561  0.8913  1.1076
 9398TIP3   OH252388   5.356   3.618   1.841  0.0387 -1.1118 -0.1628
 9398TIP3    H152389   5.399   3.543   1.881 -1.8267 -1.1866  1.9360
 9398TIP3    H252390   5.268   3.587   1.819 -0.4355  0.1731 -0.2143
 9399TIP3   OH252391   3.020   6.354   3.054  0.4209 -0.1293  0.6908
 9399TIP3    H152392   3.072   6.291   3.103  0.0975 -0.7149  0.3012
 9399TIP3    H252393   3.002   6.310   2.970  0.8740  0.8046  0.0915
 9400TIP3   OH252394   0.254   5.991   2.825  0.2425  0.2114 -0.6772
 9400TIP3    H152395   0.256   5.902   2.860  0.2837  0.3601 -0.2917
 9400TIP3    H252396   0.194   5.986   2.751  1.7418 -0.5808 -1.9130
 9401TIP3   OH252397   2.564   6.508   2.528 -0.0586  0.2186  0.1893
 9401TIP3    H152398   2.498   6.528   2.462  0.5930 -1.5706 -1.0684
 9401TIP3    H252399   2.572   6.413   2.527  1.8072  0.3222  1.0457
 9402TIP3   OH252400   4.746   6.417   0.688  0.1813  0.4607  0.3683
 9402TIP3    H152401   4.835   6.438   0.661  0.3820  1.4099  1.6527
 9402TIP3    H252402   4.695   6.495   0.668  0.7070  2.0130  4.1795
 9403TIP3   OH252403   0.865   7.446   3.031 -0.4051  0.1066  0.3303
 9403TIP3    H152404   0.774   7.472   3.045  0.1903  1.1573  2.6549
 9403TIP3    H252405   0.877   7.369   3.086 -0.0493 -0.4929 -0.5525
 9404TIP3   OH252406   2.031   7.228   0.908  0.2468 -0.0949  0.2773
 9404TIP3    H152407   2.075   7.177   0.841 -0.2344  1.7252 -1.5189
 9404TIP3    H252408   2.065   7.194   0.991  2.9064 -0.5906 -0.9382
 9405TIP3   OH252409   7.233   7.268   2.015  0.2329  0.1464 -0.4002
 9405TIP3    H152410   7.275   7.238   2.095 -0.6825 -1.1009 -0.3583
 9405TIP3    H252411   7.142   7.239   2.023  0.3293 -0.8442 -2.2739
 9406TIP3   OH252412   2.064   1.343   2.952  0.5146 -0.7324 -0.3461
 9406TIP3    H152413   1.997   1.275   2.960 -0.1730 -0.1076 -0.6927
 9406TIP3    H252414   2.139   1.298   2.913 -0.4172 -0.9955 -1.8959
 9407TIP3   OH252415   7.474   3.853   0.587  0.5242 -0.5693 -0.2990
 9407TIP3    H152416   7.449   3.882   0.499  1.1470 -1.2208 -0.7117
 9407TIP3    H252417   7.399   3.802   0.617 -0.6909  1.5855  0.5432
 9408TIP3   OH252418   3.598   7.055   2.333 -0.4406  0.1151 -0.5442
 9408TIP3    H152419   3.528   7.103   2.377 -0.0704 -0.4606  0.7155
 9408TIP3    H252420   3.670   7.054   2.396  0.5192  0.2451 -1.6153
 9409TIP3   OH252421   5.233   0.655   2.081  0.4673  0.3403  0.1604
 9409TIP3    H152422   5.196   0.566   2.083  2.6822 -0.6438  0.1475
 9409TIP3    H252423   5.212   0.691   2.167 -1.3286  0.2331 -0.1822
 9410TIP3   OH252424   3.608   7.496   1.985  0.0424 -0.1259  0.4884
 9410TIP3    H152425   3.580   7.486   1.894 -3.0398 -2.5159  1.5486
 9410TIP3    H252426   3.666   7.422   2.000 -1.0407 -0.8928  0.9703
 9411TIP3   OH252427   6.879   2.039   3.054  0.1797  0.0757  0.3073
 9411TIP3    H152428   6.930   1.964   3.084  1.3451  1.0193  0.8090
 9411TIP3    H252429   6.939   2.114   3.065 -0.7922  1.0140 -0.5658
 9412TIP3   OH252430   4.627   6.414   1.405 -0.6538 -0.3283 -0.3507
 9412TIP3    H152431   4.698   6.448   1.460 -0.4188  0.9229 -1.3603
 9412TIP3    H252432   4.648   6.322   1.392  1.9640  0.3995 -2.2352
 9413TIP3   OH252433   2.613   6.771   0.947 -0.3457 -0.1774  0.2117
 9413TIP3    H152434   2.539   6.711   0.941 -0.3020 -0.2758  0.6064
 9413TIP3    H252435   2.690   6.716   0.930 -0.3681 -0.0560 -0.2930
 9414TIP3   OH252436   6.011   5.710   0.957 -0.4265 -0.2229 -0.2237
 9414TIP3    H152437   6.076   5.775   0.983 -1.0349  0.3822 -0.1900
 9414TIP3    H252438   6.041   5.679   0.872  0.0192 -0.1011 -0.1137
 9415TIP3   OH252439   0.010   6.791   2.448 -0.3812 -0.4205  0.1919
 9415TIP3    H152440   0.087   6.755   2.404 -0.0584  0.1692  0.2760
 9415TIP3    H252441  -0.047   6.715   2.461  0.9541 -1.2233  1.7712
 9416TIP3   OH252442   2.169   2.447   2.553  0.0936 -0.4579  0.7932
 9416TIP3    H152443   2.177   2.373   2.614  1.0460 -0.9972  0.0409
 9416TIP3    H252444   2.149   2.406   2.469  0.9402  0.1037  0.3031
 9417TIP3   OH252445   0.066   7.086   0.763  0.4798 -0.1748 -0.0440
 9417TIP3    H152446   0.135   7.153   0.767 -2.2310  2.9304 -0.6305
 9417TIP3    H252447  -0.010   7.133   0.729 -2.5279 -2.8569  2.3626
 9418TIP3   OH252448   2.093   1.568   1.036 -0.1978 -0.3018 -0.0542
 9418TIP3    H152449   2.116   1.510   1.109 -0.2276  0.7338  0.8138
 9418TIP3    H252450   2.000   1.552   1.021  0.0600 -1.3334 -0.6354
 9419TIP3   OH252451   7.598   1.871   2.170 -0.3343 -0.5588  0.1938
 9419TIP3    H152452   7.678   1.921   2.161  0.0352 -1.1546  0.1017
 9419TIP3    H252453   7.533   1.934   2.199 -0.1056  0.1561 -0.8113
 9420TIP3   OH252454   4.132   5.259   2.763 -0.3497  0.1717  0.2590
 9420TIP3    H152455   4.038   5.273   2.753 -0.4946  0.2453  1.5379
 9420TIP3    H252456   4.140   5.166   2.784 -0.1958  0.2900  0.7328
 9421TIP3   OH252457   5.981   3.420   2.936  0.0765 -0.0509  0.4237
 9421TIP3    H152458   5.940   3.503   2.960 -0.0876 -0.3491  1.2304
 9421TIP3    H252459   6.029   3.393   3.015  2.0798  0.4184 -0.5693
 9422TIP3   OH252460   5.084   3.782   1.484  0.2023 -0.1644 -0.1476
 9422TIP3    H152461   5.025   3.720   1.442 -0.3694  1.4321 -1.8042
 9422TIP3    H252462   5.119   3.836   1.412  1.7448  0.5575  1.0676
 9423TIP3   OH252463   5.693   7.449   1.795 -0.6863 -0.1989  0.6130
 9423TIP3    H152464   5.707   7.403   1.712 -0.8640  1.7950 -0.5794
 9423TIP3    H252465   5.610   7.416   1.828 -2.9520  2.0725 -2.2999
 9424TIP3   OH252466   3.128   3.407   1.510  0.4538  0.0378 -0.4538
 9424TIP3    H152467   3.097   3.496   1.530 -0.6484 -0.6738  1.2799
 9424TIP3    H252468   3.170   3.415   1.425 -1.4756  1.8183 -1.3448
 9425TIP3   OH252469   6.785   0.952   1.277 -0.0672 -0.5827 -0.2208
 9425TIP3    H152470   6.843   1.024   1.253  1.7985 -2.0043 -0.1768
 9425TIP3    H252471   6.698   0.991   1.276  0.9827  2.0701  1.3460
 9426TIP3   OH252472   3.934   3.901   3.182  0.3516  0.9394 -0.3568
 9426TIP3    H152473   3.972   3.988   3.187  0.3811  0.9827 -1.1932
 9426TIP3    H252474   3.943   3.865   3.270 -0.5037  2.1303  0.2407
 9427TIP3   OH252475   5.863   2.459   1.681  0.2959 -0.1098 -0.2300
 9427TIP3    H152476   5.768   2.464   1.690  0.1343 -2.2802 -0.3416
 9427TIP3    H252477   5.881   2.496   1.594 -0.3761  0.7640 -0.0113
 9428TIP3   OH252478   0.798   2.403   0.614 -0.2345  0.2390  0.0997
 9428TIP3    H152479   0.831   2.489   0.642 -1.6041  0.3307  1.5842
 9428TIP3    H252480   0.708   2.400   0.647 -0.2712 -1.7103 -0.0687
 9429TIP3   OH252481   5.968   6.669   2.885 -0.4280  0.1309  0.0658
 9429TIP3    H152482   5.975   6.764   2.880  0.6127  0.0531 -0.2843
 9429TIP3    H252483   6.032   6.644   2.952  1.1110 -0.4772 -1.5332
 9430TIP3   OH252484   2.131   4.401   1.562  0.0516 -0.4303  0.1127
 9430TIP3    H152485   2.210   4.454   1.575  0.6661 -1.5181  1.0483
 9430TIP3    H252486   2.059   4.461   1.578  0.7116  0.3569  0.2133
 9431TIP3   OH252487   0.081   5.202   2.419  0.0754 -0.0237 -0.5209
 9431TIP3    H152488   0.174   5.217   2.435 -0.0220  0.6377 -0.5508
 9431TIP3    H252489   0.052   5.280   2.373 -0.8602  0.5477  0.9556
 9432TIP3   OH252490   7.279   3.181   0.711  0.2377  0.0613 -0.3793
 9432TIP3    H152491   7.326   3.143   0.785 -1.1273  0.3797  0.7016
 9432TIP3    H252492   7.229   3.108   0.675  1.1101 -0.1546 -1.1813
 9433TIP3   OH252493   5.621   1.828   2.186 -0.0050  0.1951  0.1475
 9433TIP3    H152494   5.539   1.834   2.137 -1.1407  0.3884  1.9581
 9433TIP3    H252495   5.638   1.917   2.217  0.5019  0.0255  0.3798
 9434TIP3   OH252496   2.069   3.957   2.803  0.1218 -0.1342 -0.4594
 9434TIP3    H152497   2.043   4.022   2.868 -1.7799 -1.8576  0.6003
 9434TIP3    H252498   2.029   3.987   2.722 -0.3067  0.2718 -0.1051
 9435TIP3   OH252499   5.800   1.011   1.125  0.2395 -0.1635  0.2858
 9435TIP3    H152500   5.728   1.032   1.184 -1.5747 -1.6993 -1.2831
 9435TIP3    H252501   5.828   0.923   1.151  1.2505  0.2352  0.5813
 9436TIP3   OH252502   5.685   0.661   1.750  0.2012 -0.1405  0.7845
 9436TIP3    H152503   5.758   0.723   1.742 -0.6172  0.8117  0.5587
 9436TIP3    H252504   5.703   0.594   1.684  0.7329  0.2283  0.5506
 9437TIP3   OH252505   5.394   6.135   1.867 -0.0491 -0.5333  0.0292
 9437TIP3    H152506   5.426   6.127   1.777 -1.4840 -1.0077 -0.4681
 9437TIP3    H252507   5.372   6.046   1.893  0.2137 -0.3795  0.8078
 9438TIP3   OH252508   5.762   0.119   1.161 -0.2553  0.1627  0.4146
 9438TIP3    H152509   5.830   0.103   1.226 -0.9487 -0.7144  0.9525
 9438TIP3    H252510   5.765   0.213   1.145  1.5946  0.0344 -0.1571
 9439TIP3   OH252511   5.507   7.581   0.937 -0.2341 -0.3438  0.2275
 9439TIP3    H152512   5.420   7.542   0.947 -0.7873  0.5396 -0.8786
 9439TIP3    H252513   5.492   7.675   0.944  0.8524 -0.2248  1.3673
 9440TIP3   OH252514   6.596   5.421   2.609 -0.2246  0.4958  0.0381
 9440TIP3    H152515   6.549   5.502   2.590  0.1833  0.8170  0.3695
 9440TIP3    H252516   6.621   5.387   2.524  0.3924  1.1962 -0.0701
 9441TIP3   OH252517   7.364   7.607   0.850 -0.2725 -0.7300 -0.1273
 9441TIP3    H152518   7.324   7.692   0.828 -1.3950 -0.9551  0.9001
 9441TIP3    H252519   7.449   7.608   0.807  0.9302  2.0550  2.0661
 9442TIP3   OH252520   6.974   2.299   1.348  0.6121  0.3505  0.3851
 9442TIP3    H152521   6.976   2.238   1.423 -1.0215  0.3592  0.4916
 9442TIP3    H252522   6.901   2.267   1.295  0.9873  1.0797 -0.5803
 9443TIP3   OH252523   6.831   4.773   3.480  0.3851 -0.5255 -0.5335
 9443TIP3    H152524   6.904   4.743   3.427  0.5340  0.5020 -0.9357
 9443TIP3    H252525   6.769   4.699   3.481  1.0549 -1.0965 -0.8672
 9444TIP3   OH252526   5.192   7.245   0.607  0.5617  0.8096 -0.1396
 9444TIP3    H152527   5.242   7.325   0.591  2.5469 -0.3615 -0.1336
 9444TIP3    H252528   5.213   7.221   0.697  0.3053  0.0693 -0.2674
 9445TIP3   OH252529   3.741   5.047   1.039  0.0110  0.2193  0.4839
 9445TIP3    H152530   3.667   5.091   0.997 -0.5101 -1.5404 -0.5821
 9445TIP3    H252531   3.703   4.969   1.079  1.0829  0.0119  1.1510
 9446TIP3   OH252532   7.097   5.370   0.863 -0.0063  0.4620  0.3259
 9446TIP3    H152533   7.098   5.465   0.849  0.2319  0.3585 -0.4146
 9446TIP3    H252534   7.025   5.339   0.807  1.4468 -0.0530 -1.3387
 9447TIP3   OH252535   6.563   4.344   1.468 -0.2628  0.3361  0.5326
 9447TIP3    H152536   6.552   4.405   1.541 -1.6333  0.0573  0.5890
 9447TIP3    H252537   6.581   4.260   1.509  3.4391  0.9277  0.4334
 9448TIP3   OH252538   0.153   0.889   2.822 -0.0424 -0.1575 -0.1283
 9448TIP3    H152539   0.186   0.876   2.734 -1.5753 -0.2874 -0.7138
 9448TIP3    H252540   0.091   0.962   2.814  2.6463  2.5355  1.6118
 9449TIP3   OH252541   2.647   4.372   1.295  0.0997 -0.1795 -0.1958
 9449TIP3    H152542   2.561   4.414   1.302 -0.7016 -1.5710 -1.1481
 9449TIP3    H252543   2.631   4.281   1.320  1.5969 -0.1840  0.9081
 9450TIP3   OH252544   6.299   4.743   3.452  0.1885 -0.4503 -0.0309
 9450TIP3    H152545   6.315   4.694   3.532 -1.3329 -1.3447 -0.2422
 9450TIP3    H252546   6.239   4.813   3.478  0.7509  0.0842 -0.1382
 9451TIP3   OH252547   6.261   0.564   2.837 -0.5987 -0.1786  0.0829
 9451TIP3    H152548   6.346   0.576   2.881 -1.3965 -0.0111  1.6224
 9451TIP3    H252549   6.258   0.636   2.773 -0.4942  1.1519  1.5096
 9452TIP3   OH252550   1.572   3.407   1.359  0.0814 -0.1933  0.5138
 9452TIP3    H152551   1.582   3.497   1.328 -1.3424  0.0605  0.7253
 9452TIP3    H252552   1.600   3.353   1.285 -4.4020  0.3452 -1.9463
 9453TIP3   OH252553   2.066   3.618   3.925 -0.2510  0.0018 -0.1017
 9453TIP3    H152554   2.137   3.554   3.927  0.7282  1.0638 -0.0136
 9453TIP3    H252555   1.991   3.569   3.891  0.7093 -0.9579 -0.9207
 9454TIP3   OH252556   5.989   0.770   0.586 -0.4415 -0.8291 -0.5236
 9454TIP3    H152557   6.076   0.771   0.626 -1.3405  0.1517  1.5539
 9454TIP3    H252558   5.982   0.683   0.546  0.8124 -1.6123  0.8570
 9455TIP3   OH252559   6.058   6.025   0.531 -0.3086  0.1044  0.3904
 9455TIP3    H152560   5.985   6.084   0.513 -0.3120  0.0856  0.3432
 9455TIP3    H252561   6.076   6.037   0.624 -1.2481 -0.8845  0.7211
 9456TIP3   OH252562   2.808   2.077   0.785  0.0196  0.3180 -0.0445
 9456TIP3    H152563   2.756   2.014   0.736 -0.8185  0.0939  1.0850
 9456TIP3    H252564   2.750   2.151   0.799  0.6535  0.9055 -0.4613
 9457TIP3   OH252565   5.608   0.281   2.174  0.1602 -0.3748  0.0036
 9457TIP3    H152566   5.677   0.225   2.140 -0.3985 -0.2958 -1.3188
 9457TIP3    H252567   5.531   0.258   2.123 -0.4176  0.6205  0.3968
 9458TIP3   OH252568   0.263   0.134   1.244 -0.2808 -0.2168 -0.0230
 9458TIP3    H152569   0.234   0.141   1.335  2.3590 -1.2854  1.0096
 9458TIP3    H252570   0.348   0.180   1.242  0.5585 -1.7178 -1.4580
 9459TIP3   OH252571   4.854   6.568   3.321  0.6923 -0.3778  0.1037
 9459TIP3    H152572   4.768   6.556   3.362  0.6958 -1.4829 -0.1648
 9459TIP3    H252573   4.880   6.657   3.344  0.1073 -0.5187  1.3973
 9460TIP3   OH252574   6.081   6.026   0.813  0.3102  0.4569  0.2232
 9460TIP3    H152575   6.053   5.937   0.833 -0.1390 -0.1072 -2.4653
 9460TIP3    H252576   6.177   6.023   0.818  0.3268 -0.3680 -0.4145
 9461TIP3   OH252577   6.100   7.497   1.878  0.1584 -0.5076 -0.2727
 9461TIP3    H152578   6.111   7.553   1.954 -0.1981 -1.4069  0.4528
 9461TIP3    H252579   6.094   7.558   1.804  2.4408  0.3156  0.1591
 9462TIP3   OH252580   4.086   0.329   1.411 -0.6812  0.1136  0.4703
 9462TIP3    H152581   4.104   0.254   1.468 -0.6522  0.3574  0.7859
 9462TIP3    H252582   4.142   0.316   1.335  0.3959  0.5565  1.1723
 9463TIP3   OH252583   0.049   7.386   1.707 -0.1214  0.4849  0.2213
 9463TIP3    H152584   0.108   7.394   1.782  1.3124 -0.4607 -0.7558
 9463TIP3    H252585   0.025   7.293   1.706  0.2083  0.4054 -0.7254
 9464TIP3   OH252586   5.928   6.019   2.056  0.8289 -1.1382 -0.1441
 9464TIP3    H152587   5.933   5.955   2.127 -0.6742 -0.7259  0.3851
 9464TIP3    H252588   5.838   6.053   2.062  1.7266  1.4378 -0.0232
 9465TIP3   OH252589   1.929   3.131   0.637 -0.3712  0.0941  0.5291
 9465TIP3    H152590   1.977   3.057   0.599  1.3844  0.9892  0.8821
 9465TIP3    H252591   1.869   3.090   0.700  2.5228 -1.0067  2.8243
 9466TIP3   OH252592   2.317   3.050   2.135  0.0958  0.0361 -0.0302
 9466TIP3    H152593   2.368   3.009   2.205  1.7820 -0.0917 -1.3022
 9466TIP3    H252594   2.269   2.978   2.095  0.0160 -0.0680  0.2484
 9467TIP3   OH252595   3.108   4.774   2.945  0.2551  0.4679  0.6083
 9467TIP3    H152596   3.150   4.744   2.864 -1.5729  0.0769 -0.2523
 9467TIP3    H252597   3.180   4.811   2.997  2.2084 -2.7520  0.5049
 9468TIP3   OH252598   5.861   1.979   1.151  0.0573  0.7424 -0.2632
 9468TIP3    H152599   5.927   1.912   1.168  1.3595  2.0001 -0.1282
 9468TIP3    H252600   5.794   1.935   1.098  1.1441 -0.4935 -0.6509
 9469TIP3   OH252601   2.011   0.754   2.869  0.2296 -0.0823  0.3764
 9469TIP3    H152602   2.049   0.756   2.782 -1.1553 -0.3193 -0.2632
 9469TIP3    H252603   2.069   0.809   2.922  1.1346 -0.0059 -0.6611
 9470TIP3   OH252604   2.762   0.173   0.661  0.0253  0.3928  0.0015
 9470TIP3    H152605   2.850   0.213   0.661 -0.1960  1.0221 -2.1853
 9470TIP3    H252606   2.702   0.247   0.667 -0.3670  0.1365 -0.6823
 9471TIP3   OH252607   7.603   2.108   1.428  0.5617  0.3921  0.2082
 9471TIP3    H152608   7.664   2.050   1.382 -0.3580 -0.4690  0.0452
 9471TIP3    H252609   7.583   2.177   1.364 -0.1520 -0.4050 -0.4433
 9472TIP3   OH252610   0.960   2.925   1.114 -0.2735 -0.3833  0.6062
 9472TIP3    H152611   0.968   2.843   1.163 -0.1289  0.7790  2.6388
 9472TIP3    H252612   1.027   2.982   1.151 -0.3550  0.6554 -0.7830
 9473TIP3   OH252613   7.562   0.236   1.722  0.3383 -0.4802 -0.3298
 9473TIP3    H152614   7.596   0.248   1.811 -1.9266 -1.0740  0.6888
 9473TIP3    H252615   7.615   0.167   1.685  1.7820  0.2573  0.2837
 9474TIP3   OH252616   7.259   4.609   3.259  0.3566  0.3837 -0.2405
 9474TIP3    H152617   7.329   4.548   3.237 -0.4142 -0.2496 -0.9806
 9474TIP3    H252618   7.180   4.555   3.266 -0.4543  1.3499 -1.5378
 9475TIP3   OH252619   2.908   6.761   2.337 -0.0678  0.3636 -0.4965
 9475TIP3    H152620   2.875   6.701   2.404  2.3491  0.1007  0.5529
 9475TIP3    H252621   2.918   6.707   2.259  0.5157 -0.2087 -0.0315
 9476TIP3   OH252622   4.111   2.284   3.098 -0.3528  0.1040  0.2390
 9476TIP3    H152623   4.197   2.250   3.119 -0.7605 -1.5862 -0.6419
 9476TIP3    H252624   4.127   2.372   3.063  1.0584 -0.4262 -0.4753
 9477TIP3   OH252625   0.649   7.273   0.533  0.4496  0.0491  0.0861
 9477TIP3    H152626   0.704   7.195   0.531  0.2071 -0.1335  0.3233
 9477TIP3    H252627   0.705   7.344   0.503  0.9106 -0.0761  0.6282
 9478TIP3   OH252628   4.455   5.810   3.068  0.6097  0.1083  0.1630
 9478TIP3    H152629   4.391   5.847   3.128  1.2929  0.9990  0.3601
 9478TIP3    H252630   4.538   5.812   3.116  0.4640 -3.0953  0.7746
 9479TIP3   OH252631   6.501   6.405   1.403 -0.2456  0.0527  0.1637
 9479TIP3    H152632   6.493   6.309   1.408  0.4498 -0.0479 -0.4008
 9479TIP3    H252633   6.412   6.436   1.387 -0.6560 -0.4083  1.4007
 9480TIP3   OH252634   7.152   4.374   1.600  0.0703  0.0326  0.3955
 9480TIP3    H152635   7.190   4.453   1.561 -0.3718  0.1958  0.2951
 9480TIP3    H252636   7.072   4.405   1.643 -0.2149 -0.3977  0.1784
 9481TIP3   OH252637   6.972   4.031   2.074 -0.3910  0.8977  0.3706
 9481TIP3    H152638   7.064   4.048   2.092 -0.9469  3.5227  1.2148
 9481TIP3    H252639   6.966   3.936   2.064  2.0309  0.4213  2.5088
 9482TIP3   OH252640   0.520   3.516   0.598 -0.0803 -0.2548 -0.9142
 9482TIP3    H152641   0.498   3.580   0.530  2.7601 -0.0745 -1.7797
 9482TIP3    H252642   0.508   3.563   0.680 -0.5406  0.5253 -1.4170
 9483TIP3   OH252643   6.816   1.187   1.577  0.5937  0.4621  0.2025
 9483TIP3    H152644   6.723   1.185   1.599  0.9264  0.9550  1.7785
 9483TIP3    H252645   6.844   1.096   1.582  0.1466  0.2698 -0.5879
 9484TIP3   OH252646   0.934   0.113   3.178  0.4271  0.5207  0.0716
 9484TIP3    H152647   1.007   0.052   3.174 -0.2166 -0.2636  0.0377
 9484TIP3    H252648   0.888   0.101   3.095 -1.4426 -1.1845  1.2720
 9485TIP3   OH252649   6.294   5.721   1.132 -0.1978 -0.1150  0.6926
 9485TIP3    H152650   6.341   5.737   1.214  1.0808  0.9694 -0.2111
 9485TIP3    H252651   6.228   5.790   1.128  0.8650  0.8955  0.0246
 9486TIP3   OH252652   2.419   4.739   0.994 -0.5937 -0.8226 -0.0539
 9486TIP3    H152653   2.358   4.811   1.006  0.7838  0.2265  0.9840
 9486TIP3    H252654   2.394   4.700   0.910 -2.5215 -0.3195  0.2375
 9487TIP3   OH252655   1.466   5.812   3.332  0.1516  0.5697  0.1019
 9487TIP3    H152656   1.417   5.807   3.250 -0.0559 -1.2553  0.2988
 9487TIP3    H252657   1.526   5.738   3.329  0.7316  0.9680  1.2379
 9488TIP3   OH252658   4.081   5.910   1.301  0.3963 -0.2653  0.0897
 9488TIP3    H152659   4.043   5.880   1.384 -1.6593 -0.4721 -0.8732
 9488TIP3    H252660   4.134   5.986   1.324  1.0297 -1.1740  1.7768
 9489TIP3   OH252661   2.259   5.162   1.772  0.1571  0.0304 -0.3145
 9489TIP3    H152662   2.231   5.093   1.711 -1.6134 -0.1266  0.6083
 9489TIP3    H252663   2.267   5.240   1.717 -2.5621  0.1732 -0.6424
 9490TIP3   OH252664   1.682   6.417   1.723  0.0726 -0.3548  0.1669
 9490TIP3    H152665   1.649   6.484   1.784 -0.4636  0.7773 -1.3001
 9490TIP3    H252666   1.606   6.361   1.707 -0.5993  0.9275 -1.4647
 9491TIP3   OH252667   4.567   2.905   0.991  0.3304  0.0649 -0.2279
 9491TIP3    H152668   4.570   2.855   1.073 -1.2120  0.6295  0.2133
 9491TIP3    H252669   4.484   2.881   0.951  1.1726 -0.3686 -1.7648
 9492TIP3   OH252670   2.542   2.550   0.740 -0.0163  0.4342 -0.3203
 9492TIP3    H152671   2.589   2.476   0.778  1.8196  1.2763 -0.8304
 9492TIP3    H252672   2.489   2.584   0.811  2.2430  1.0950  1.1700
 9493TIP3   OH252673   1.888   5.373   2.449 -0.2889 -0.0814 -0.6668
 9493TIP3    H152674   1.896   5.309   2.378  0.3154  1.1122 -1.7228
 9493TIP3    H252675   1.854   5.452   2.405  1.2346  1.0576  0.1297
 9494TIP3   OH252676   5.213   0.130   2.286  0.4672 -0.2198 -0.0366
 9494TIP3    H152677   5.277   0.159   2.221 -0.5494  0.9148 -0.5816
 9494TIP3    H252678   5.129   0.156   2.249 -0.3393 -1.8455  0.5748
 9495TIP3   OH252679   5.320   5.626   1.275  0.4988  0.5411  0.1208
 9495TIP3    H152680   5.373   5.619   1.195 -2.3189  0.0011 -1.8288
 9495TIP3    H252681   5.300   5.535   1.297 -0.2300  0.7689  0.3941
 9496TIP3   OH252682   3.275   4.358   1.761 -0.7720 -0.0303 -0.5118
 9496TIP3    H152683   3.182   4.376   1.777 -0.6539 -1.1532  1.8530
 9496TIP3    H252684   3.279   4.264   1.744  0.0521 -0.2467  0.7635
 9497TIP3   OH252685   1.849   4.566   1.135 -0.1397 -1.0109 -0.5142
 9497TIP3    H152686   1.785   4.604   1.195 -1.0169 -2.4994 -0.4620
 9497TIP3    H252687   1.879   4.640   1.083  2.7787  1.0296  3.4543
 9498TIP3   OH252688   4.489   4.296   1.275  0.1825 -0.1490 -0.3851
 9498TIP3    H152689   4.536   4.240   1.337 -1.5445 -0.4404  0.7131
 9498TIP3    H252690   4.495   4.250   1.191  0.8411 -0.7468 -0.0202
 9499TIP3   OH252691   4.656   2.713   1.429 -0.1093 -0.4391 -0.8486
 9499TIP3    H152692   4.740   2.753   1.453 -0.4046 -0.5842  0.4860
 9499TIP3    H252693   4.659   2.709   1.333  0.6724  1.1384 -0.9279
 9500TIP3   OH252694   0.169   0.938   1.541 -0.2290 -0.0737  0.0860
 9500TIP3    H152695   0.131   0.878   1.477 -0.2928  0.0435  0.0137
 9500TIP3    H252696   0.124   0.918   1.622 -1.3198  0.8862 -0.2579
 9501TIP3   OH252697   3.416   3.615   0.867  0.5499 -0.0856  0.2800
 9501TIP3    H152698   3.335   3.650   0.830  0.7583  0.5893  0.4377
 9501TIP3    H252699   3.406   3.520   0.864  0.4912 -0.0479 -1.3437
 9502TIP3   OH252700   3.115   2.705   2.284 -0.0076  0.4470  0.2614
 9502TIP3    H152701   3.115   2.698   2.379  1.9156 -2.1174  0.1757
 9502TIP3    H252702   3.048   2.770   2.265 -3.1384 -1.5796  3.1860
 9503TIP3   OH252703   0.192   6.683   1.593  0.1717 -0.3696 -0.1921
 9503TIP3    H152704   0.242   6.765   1.597  1.5320 -1.1808  0.0487
 9503TIP3    H252705   0.138   6.685   1.673  1.0390 -0.2282  0.4001
 9504TIP3   OH252706   3.697   2.409   1.105  0.1984 -0.0854 -0.0329
 9504TIP3    H152707   3.705   2.349   1.179 -2.5128  0.9917  1.2733
 9504TIP3    H252708   3.603   2.416   1.090  0.4018  3.3400 -0.4693
 9505TIP3   OH252709   6.694   1.719   2.514 -0.2375 -0.5439  0.0444
 9505TIP3    H152710   6.642   1.649   2.474 -1.2612  1.4454 -2.3132
 9505TIP3    H252711   6.631   1.789   2.530  1.5161  1.7535 -2.4093
 9506TIP3   OH252712   2.507   7.031   2.246 -0.1055 -0.1462 -0.5382
 9506TIP3    H152713   2.556   6.952   2.221  0.0265  0.5327 -2.6744
 9506TIP3    H252714   2.574   7.090   2.282 -0.4451 -1.4968  2.6224
 9507TIP3   OH252715   6.233   4.294   0.639 -0.7382 -0.1536  0.2202
 9507TIP3    H152716   6.176   4.368   0.617 -0.8273 -0.2353  0.1738
 9507TIP3    H252717   6.321   4.323   0.615 -0.4058  0.8788  2.4636
 9508TIP3   OH252718   2.014   0.091   0.492 -0.1083 -0.1418  0.3001
 9508TIP3    H152719   2.048   0.172   0.532  2.1692 -0.6779 -0.4081
 9508TIP3    H252720   2.047   0.021   0.548  1.1524 -0.7630 -1.1370
 9509TIP3   OH252721   0.179   1.987   0.991  0.4411  0.0263 -0.5868
 9509TIP3    H152722   0.208   1.913   1.045  1.8173  0.1657 -1.0969
 9509TIP3    H252723   0.260   2.030   0.965 -0.3125  1.2211 -1.0040
 9510TIP3   OH252724   1.247   0.749   1.250  0.6617 -0.1646  0.3119
 9510TIP3    H152725   1.167   0.712   1.214  0.9813 -0.7793  0.2193
 9510TIP3    H252726   1.317   0.713   1.196  1.0146  0.2254  0.5040
 9511TIP3   OH252727   2.589   2.623   1.974  0.7832 -0.0213 -0.1138
 9511TIP3    H152728   2.615   2.714   1.985  0.8258  0.0035 -0.4192
 9511TIP3    H252729   2.563   2.616   1.882  1.4513 -0.4876 -0.2724
 9512TIP3   OH252730   3.581   5.134   0.713 -0.5507 -0.6031  0.9632
 9512TIP3    H152731   3.669   5.120   0.677 -0.4380 -0.2227  1.0898
 9512TIP3    H252732   3.552   5.046   0.740 -0.7641 -0.9459 -0.3297
 9513TIP3   OH252733   4.812   2.105   2.462  0.1212  0.0177  0.4700
 9513TIP3    H152734   4.850   2.017   2.460  1.8144  0.7030  1.2057
 9513TIP3    H252735   4.857   2.150   2.533 -0.9428  1.3967  0.3191
 9514TIP3   OH252736   2.817   6.637   1.352  0.0449 -0.0693 -0.2268
 9514TIP3    H152737   2.790   6.701   1.418  0.4404  0.3826 -0.4972
 9514TIP3    H252738   2.825   6.688   1.271 -0.7463 -0.6746 -0.7055
 9515TIP3   OH252739   3.589   6.811   0.667  0.1071  0.3075 -0.3657
 9515TIP3    H152740   3.639   6.758   0.730 -1.2507  0.7496  1.1609
 9515TIP3    H252741   3.646   6.885   0.648  1.3159 -0.7784 -1.1759
 9516TIP3   OH252742   7.562   5.651   2.164  0.0330 -0.2089 -0.1453
 9516TIP3    H152743   7.544   5.734   2.208  0.8615 -1.0659  1.9546
 9516TIP3    H252744   7.477   5.607   2.160 -0.0235 -0.1913  0.7812
 9517TIP3   OH252745   6.796   6.584   2.367 -0.0522  0.0945 -0.8045
 9517TIP3    H152746   6.827   6.661   2.319  0.7989  0.4056  0.2052
 9517TIP3    H252747   6.853   6.513   2.337  0.9304  0.4303  0.2181
 9518TIP3   OH252748   5.525   6.659   1.961 -0.3438  1.0275  0.7651
 9518TIP3    H152749   5.606   6.701   1.990 -0.6680  1.8240  0.5595
 9518TIP3    H252750   5.485   6.723   1.901 -1.1036  0.6324  0.8341
 9519TIP3   OH252751   2.852   4.732   2.504 -0.5579 -0.1378 -0.2196
 9519TIP3    H152752   2.853   4.659   2.442 -1.2298 -0.5929  0.2805
 9519TIP3    H252753   2.771   4.719   2.554 -0.4606  0.7051  0.1711
 9520TIP3   OH252754   3.945   4.919   1.933 -0.0715  0.1363  0.0589
 9520TIP3    H152755   4.031   4.881   1.915 -1.0820 -2.7275  0.6428
 9520TIP3    H252756   3.951   5.009   1.902  3.1721  0.1079  0.2890
 9521TIP3   OH252757   4.166   4.584   0.836 -0.2479 -0.8158 -0.0251
 9521TIP3    H152758   4.131   4.561   0.922  0.9241  0.9659  0.9670
 9521TIP3    H252759   4.254   4.617   0.853  0.3474 -1.2258 -2.0129
 9522TIP3   OH252760   6.155   2.333   2.649 -0.1326 -0.0798 -0.0111
 9522TIP3    H152761   6.101   2.413   2.651 -0.5912 -0.3988  0.5233
 9522TIP3    H252762   6.163   2.307   2.740  0.1025 -0.5986 -0.1749
 9523TIP3   OH252763   4.814   1.519   0.902  0.1090  0.2977  0.2273
 9523TIP3    H152764   4.738   1.505   0.845  0.0030 -0.3240  0.5099
 9523TIP3    H252765   4.830   1.614   0.898 -1.1925  0.5694  0.7973
 9524TIP3   OH252766   4.064   6.638   3.084  0.5737 -0.2526  0.4550
 9524TIP3    H152767   4.020   6.715   3.047  1.8401  0.6706  0.8192
 9524TIP3    H252768   4.145   6.630   3.034  1.4538 -0.0711  1.8208
 9525TIP3   OH252769   2.029   3.285   1.857 -0.3963 -0.1433 -0.3442
 9525TIP3    H152770   2.009   3.374   1.825 -0.8171 -0.2647 -0.4228
 9525TIP3    H252771   2.068   3.299   1.943 -0.1441  0.1373 -0.5009
 9526TIP3   OH252772   1.176   7.038   1.370 -0.2470 -0.2177 -0.0392
 9526TIP3    H152773   1.089   7.073   1.391 -1.1506 -1.3802 -1.6050
 9526TIP3    H252774   1.237   7.108   1.396 -1.7665  1.3724 -0.5358
 9527TIP3   OH252775   7.506   5.996   1.700  0.8468 -0.5662  0.2031
 9527TIP3    H152776   7.499   5.988   1.795  1.2137 -1.1780  0.1836
 9527TIP3    H252777   7.536   5.910   1.671 -1.5308 -1.1772 -0.7014
 9528TIP3   OH252778   0.762   4.155   2.323 -0.3669 -0.1807 -0.0037
 9528TIP3    H152779   0.733   4.204   2.246 -0.9588 -1.2162 -0.4522
 9528TIP3    H252780   0.699   4.177   2.391  1.2019  2.2271  0.8081
 9529TIP3   OH252781   4.765   2.995   1.547  0.2833  0.6048 -0.0032
 9529TIP3    H152782   4.838   2.949   1.505  0.6193  0.4946  0.7008
 9529TIP3    H252783   4.800   3.027   1.630 -0.2252  1.2983 -0.0428
 9530TIP3   OH252784   2.541   7.301   2.820 -0.1001 -0.2404 -0.1480
 9530TIP3    H152785   2.564   7.272   2.732 -1.4044 -0.4162 -0.4479
 9530TIP3    H252786   2.592   7.381   2.833  0.2033 -0.2845 -1.0081
 9531TIP3   OH252787   4.741   4.774   2.627  0.0312  0.1558 -0.0475
 9531TIP3    H152788   4.757   4.699   2.685 -0.1490 -0.0581 -0.2775
 9531TIP3    H252789   4.717   4.735   2.543  0.3706  0.4659 -0.2926
 9532TIP3   OH252790   5.711   6.978   1.731 -0.2661 -0.3146  0.1898
 9532TIP3    H152791   5.752   7.000   1.647 -2.0646 -0.9231 -0.9210
 9532TIP3    H252792   5.784   6.958   1.789  1.0343 -0.0661 -1.2849
 9533TIP3   OH252793   0.099   2.264   3.241 -0.3302 -0.0752  0.0705
 9533TIP3    H152794   0.034   2.239   3.308 -0.3672  0.4413  0.2321
 9533TIP3    H252795   0.183   2.259   3.287 -0.0999 -1.9135 -0.4532
 9534TIP3   OH252796   1.030   5.173   2.932  0.0721 -0.1328  0.1723
 9534TIP3    H152797   1.007   5.081   2.929 -0.3694 -0.0335  0.3806
 9534TIP3    H252798   1.125   5.175   2.925  0.1593 -0.6582  1.0908
 9535TIP3   OH252799   2.990   3.475   2.341  0.1217  0.4877 -0.2368
 9535TIP3    H152800   2.954   3.427   2.415 -2.2100  0.3325 -1.3942
 9535TIP3    H252801   3.058   3.417   2.305 -1.1370 -0.9906 -0.2964
 9536TIP3   OH252802   0.680   7.201   0.845 -0.2799 -0.0426 -0.3685
 9536TIP3    H152803   0.661   7.227   0.935 -0.2111  0.0613 -0.3835
 9536TIP3    H252804   0.617   7.131   0.827  1.7534 -2.2909  0.8018
 9537TIP3   OH252805   2.678   3.847   2.748 -0.5310 -0.2766  0.0431
 9537TIP3    H152806   2.693   3.927   2.698  0.0715 -1.1504 -1.2038
 9537TIP3    H252807   2.685   3.876   2.840  1.4910  0.7895 -0.3738
 9538TIP3   OH252808   5.705   5.681   0.666 -0.1334  0.0520  0.4871
 9538TIP3    H152809   5.717   5.586   0.660 -0.2959  0.0385  0.3750
 9538TIP3    H252810   5.613   5.692   0.688  0.1722  0.1424  1.7805
 9539TIP3   OH252811   6.224   4.508   2.321 -0.0713  0.3606 -0.0974
 9539TIP3    H152812   6.215   4.473   2.233  0.3199 -0.1274  0.0539
 9539TIP3    H252813   6.139   4.494   2.362 -0.7162  1.8637 -0.8410
 9540TIP3   OH252814   5.060   3.665   1.055  0.3719 -1.3249  0.4147
 9540TIP3    H152815   5.104   3.663   0.969 -0.3533 -0.5631  0.0178
 9540TIP3    H252816   4.994   3.597   1.050 -2.1798  1.0599 -1.0445
 9541TIP3   OH252817   0.936   6.386   1.201 -0.3709 -0.4184 -0.7377
 9541TIP3    H152818   0.890   6.466   1.227  0.8863  0.2946 -0.6263
 9541TIP3    H252819   0.904   6.319   1.261  0.3469  0.5550  0.7966
 9542TIP3   OH252820   1.876   6.360   3.008 -0.3367 -0.1144  0.1139
 9542TIP3    H152821   1.926   6.308   2.945  0.6946  0.4643  0.4347
 9542TIP3    H252822   1.879   6.449   2.973 -1.7696 -0.1806 -0.2313
 9543TIP3   OH252823   1.810   6.698   1.650  0.3360  0.3401 -0.8325
 9543TIP3    H152824   1.875   6.736   1.709 -0.9064  0.1302  0.7593
 9543TIP3    H252825   1.849   6.615   1.622  0.4631 -0.1872  0.7712
 9544TIP3   OH252826   0.292   2.132   2.447  0.2504  0.1282 -0.1843
 9544TIP3    H152827   0.257   2.219   2.467  0.0016  0.2272 -1.0122
 9544TIP3    H252828   0.252   2.075   2.512 -0.4314  0.4597 -0.3046
 9545TIP3   OH252829   4.278   4.477   2.407  0.0761  0.5547 -0.0686
 9545TIP3    H152830   4.261   4.403   2.349  0.3587  0.1219  0.3932
 9545TIP3    H252831   4.321   4.438   2.483 -0.6446  1.0613  0.6068
 9546TIP3   OH252832   4.200   6.594   1.226 -0.0062 -0.0482 -0.0734
 9546TIP3    H152833   4.279   6.649   1.224  0.0194 -0.0932 -0.5631
 9546TIP3    H252834   4.145   6.629   1.155  1.1471 -2.2921 -2.2319
 9547TIP3   OH252835   4.692   4.546   2.178 -0.7468  0.4765  0.2192
 9547TIP3    H152836   4.772   4.495   2.187 -0.9150  0.6014  3.4021
 9547TIP3    H252837   4.639   4.496   2.116  1.4990  0.1195 -1.5509
 9548TIP3   OH252838   6.248   0.028   1.694 -0.1236 -0.0503  0.3086
 9548TIP3    H152839   6.194   0.104   1.672  0.1382  0.5084  1.5244
 9548TIP3    H252840   6.274   0.042   1.785 -1.2903 -2.3400  1.0675
 9549TIP3   OH252841   4.925   2.825   1.047  0.3258 -0.2719  0.4584
 9549TIP3    H152842   4.933   2.738   1.087 -1.5932 -0.0393  1.4876
 9549TIP3    H252843   5.005   2.836   0.997  0.4113 -2.8486 -0.1130
 9550TIP3   OH252844   5.966   3.680   0.622  0.2956  0.1537  0.3081
 9550TIP3    H152845   5.912   3.755   0.597  0.3181 -0.1712 -0.7577
 9550TIP3    H252846   5.914   3.635   0.689 -0.6192  0.0175 -0.4734
 9551TIP3   OH252847   0.423   3.591   1.771  0.2578 -0.1323 -0.2557
 9551TIP3    H152848   0.443   3.558   1.858  0.4244  1.3282  0.2886
 9551TIP3    H252849   0.356   3.532   1.737 -1.9586  0.9036  2.0143
 9552TIP3   OH252850   7.237   3.386   0.877 -0.2552  0.3407 -0.6280
 9552TIP3    H152851   7.195   3.345   0.952 -1.3307  0.4288 -1.1615
 9552TIP3    H252852   7.252   3.315   0.815 -3.0053  0.7906 -1.9617
 9553TIP3   OH252853   3.232   1.421   2.256 -0.5451  0.0897  0.2669
 9553TIP3    H152854   3.216   1.333   2.222  0.0543  0.9135 -2.4289
 9553TIP3    H252855   3.272   1.408   2.342  1.0503 -2.3320 -0.7440
 9554TIP3   OH252856   6.716   7.021   2.476 -0.5567 -0.3583  0.0981
 9554TIP3    H152857   6.755   6.986   2.556  1.4071 -0.2970 -0.7673
 9554TIP3    H252858   6.783   7.081   2.441 -2.6852  2.2330  0.1077
 9555TIP3   OH252859   2.221   2.724   1.167  0.4686  0.2042  0.4309
 9555TIP3    H152860   2.296   2.734   1.226 -0.0299  1.8243  0.8452
 9555TIP3    H252861   2.149   2.768   1.212 -0.6715 -1.0229 -0.1107
 9556TIP3   OH252862   1.029   6.785   1.033  0.0419  0.5244 -0.2152
 9556TIP3    H152863   1.089   6.857   1.013  1.3794 -0.6966 -0.7859
 9556TIP3    H252864   1.071   6.708   0.995 -0.1111 -0.9843  2.4094
 9557TIP3   OH252865   0.258   1.083   1.286  0.7628  0.0182  0.3949
 9557TIP3    H152866   0.224   0.995   1.300 -0.9044  0.3416 -1.1635
 9557TIP3    H252867   0.257   1.124   1.372  0.8161 -1.2300  1.0053
 9558TIP3   OH252868   0.151   0.494   1.082 -0.1435  0.0014  0.1284
 9558TIP3    H152869   0.173   0.444   1.003  0.7487  1.6031 -0.6832
 9558TIP3    H252870   0.076   0.547   1.057  0.3977  0.8244  0.1996
 9559TIP3   OH252871   5.046   4.788   1.474 -0.3517  0.0688 -0.1221
 9559TIP3    H152872   5.111   4.727   1.440 -0.6923  0.6153 -1.8151
 9559TIP3    H252873   5.057   4.784   1.569  1.0129 -1.0850 -0.3034
 9560TIP3   OH252874   7.246   5.059   0.778  0.3955 -0.4193  0.5018
 9560TIP3    H152875   7.186   5.040   0.850 -0.8281 -1.2030 -0.6799
 9560TIP3    H252876   7.301   5.130   0.811 -2.2857  1.5450  1.0543
 9561TIP3   OH252877   4.982   3.521   0.816  0.0339  0.7071 -0.0674
 9561TIP3    H152878   4.889   3.540   0.807 -0.1198 -0.1210 -0.3416
 9561TIP3    H252879   4.989   3.427   0.796  0.3486 -0.2565  3.8393
 9562TIP3   OH252880   0.621   4.952   2.988 -0.4399 -0.0092 -0.4418
 9562TIP3    H152881   0.542   4.982   3.033 -0.4387 -0.5874 -0.0426
 9562TIP3    H252882   0.625   5.006   2.909 -1.4660 -0.2303 -0.6721
 9563TIP3   OH252883   0.148   4.851   2.724  0.4982 -0.0405 -0.2250
 9563TIP3    H152884   0.180   4.940   2.741  0.4702  0.0908 -0.8408
 9563TIP3    H252885   0.226   4.796   2.729  0.5996  0.0906 -0.3538
 9564TIP3   OH252886   5.421   0.790   1.425 -0.1979 -0.3648 -0.1648
 9564TIP3    H152887   5.366   0.844   1.369 -0.0569 -0.7713 -0.7051
 9564TIP3    H252888   5.471   0.852   1.478 -1.3564  0.0150  0.5282
 9565TIP3   OH252889   2.609   3.341   3.561  0.0263  1.0474 -0.6044
 9565TIP3    H152890   2.599   3.411   3.496 -2.9185 -0.4221 -1.9202
 9565TIP3    H252891   2.532   3.350   3.617 -0.0048 -0.6784 -0.3409
 9566TIP3   OH252892   1.505   4.529   0.674 -0.0211 -0.4009 -0.4436
 9566TIP3    H152893   1.449   4.471   0.622  0.6149 -0.1668 -1.4055
 9566TIP3    H252894   1.447   4.563   0.742 -0.7508 -1.0753 -0.7102
 9567TIP3   OH252895   2.000   4.870   2.903  0.2354 -0.2696 -0.1443
 9567TIP3    H152896   2.014   4.801   2.968  0.8755  0.9435  1.0574
 9567TIP3    H252897   2.000   4.951   2.954  1.0000  0.7533 -1.7032
 9568TIP3   OH252898   0.851   5.003   2.024  0.3732 -0.8707 -0.0050
 9568TIP3    H152899   0.822   4.970   2.109 -0.8810  1.6736  0.6652
 9568TIP3    H252900   0.785   4.972   1.962  0.0680 -0.9230  0.3416
 9569TIP3   OH252901   3.132   6.344   2.441 -0.0443 -0.8332  0.8618
 9569TIP3    H152902   3.131   6.252   2.414  0.8557 -0.6897  0.2922
 9569TIP3    H252903   3.043   6.374   2.425 -0.3270 -1.5897  0.9830
 9570TIP3   OH252904   7.076   3.412   1.283  0.2134  0.1339  0.4946
 9570TIP3    H152905   7.022   3.471   1.230  1.5571  1.4287  0.4856
 9570TIP3    H252906   7.110   3.468   1.353  0.7264 -0.8824  1.0729
 9571TIP3   OH252907   2.487   1.649   0.890  0.4640 -0.4585  0.0224
 9571TIP3    H152908   2.503   1.587   0.961  1.8497 -2.1261 -1.6209
 9571TIP3    H252909   2.528   1.730   0.919  1.4944 -1.2681  0.9165
 9572TIP3   OH252910   5.007   1.126   2.272  0.0440  0.3973 -0.2203
 9572TIP3    H152911   4.984   1.064   2.203 -2.0205 -1.0814  1.6430
 9572TIP3    H252912   5.100   1.112   2.287 -0.0204 -1.0810 -0.9803
 9573TIP3   OH252913   7.198   6.740   2.684  0.1068 -0.5767  0.0287
 9573TIP3    H152914   7.177   6.662   2.632  1.4483 -0.0960 -1.3307
 9573TIP3    H252915   7.157   6.812   2.636  0.0034 -0.2994  0.5353
 9574TIP3   OH252916   5.817   2.475   1.014 -0.6528  0.3329  0.2716
 9574TIP3    H152917   5.751   2.409   1.033  0.5345 -1.1164 -0.4461
 9574TIP3    H252918   5.781   2.526   0.941 -0.3096 -1.5471 -1.2835
 9575TIP3   OH252919   7.547   0.440   2.320  0.2262  0.4306 -0.0159
 9575TIP3    H152920   7.502   0.393   2.391  1.0384  1.1697  1.0280
 9575TIP3    H252921   7.628   0.390   2.307 -0.8980 -0.9959 -2.0069
 9576TIP3   OH252922   7.371   5.859   2.729  0.1407 -0.3263 -0.3335
 9576TIP3    H152923   7.402   5.897   2.811 -1.2378  0.1704 -0.0195
 9576TIP3    H252924   7.308   5.922   2.695 -3.6773 -2.9898  1.1472
 9577TIP3   OH252925   5.751   5.596   1.841  0.7440  0.1715  0.8799
 9577TIP3    H152926   5.673   5.633   1.883 -0.7745  1.7099 -2.8557
 9577TIP3    H252927   5.736   5.502   1.839 -0.5011  0.3483  1.2370
 9578TIP3   OH252928   7.502   4.065   3.402  0.2356 -0.2526 -0.4535
 9578TIP3    H152929   7.414   4.094   3.428 -0.0141 -1.5317  0.2290
 9578TIP3    H252930   7.487   4.005   3.329  0.4268 -1.3171  0.3571
 9579TIP3   OH252931   4.636   6.822   0.986 -0.3316 -0.3338  0.1074
 9579TIP3    H152932   4.653   6.740   1.032 -3.7184 -0.0727  2.1248
 9579TIP3    H252933   4.587   6.796   0.908 -1.2373 -0.2612  0.6468
 9580TIP3   OH252934   0.198   5.261   1.337  0.4396 -0.3043 -0.2628
 9580TIP3    H152935   0.133   5.331   1.329  1.2092  0.3471 -0.9456
 9580TIP3    H252936   0.161   5.189   1.287  1.0828  0.7104 -2.3280
 9581TIP3   OH252937   5.478   4.527   0.902  0.1125 -0.0532 -0.3960
 9581TIP3    H152938   5.457   4.603   0.846 -1.6752 -0.5930 -0.5038
 9581TIP3    H252939   5.511   4.566   0.983 -1.0829  0.8632 -0.3254
 9582TIP3   OH252940   5.291   2.302   1.259  0.3725  0.5392  0.2643
 9582TIP3    H152941   5.363   2.239   1.266  0.0204 -0.0073 -0.7477
 9582TIP3    H252942   5.284   2.320   1.165 -1.1058  0.2186  0.2900
 9583TIP3   OH252943   6.212   2.362   1.839 -0.8192 -0.3382 -0.3860
 9583TIP3    H152944   6.261   2.280   1.829 -1.5071 -0.8640  0.3410
 9583TIP3    H252945   6.184   2.384   1.750  0.0533 -0.4590 -0.6955
 9584TIP3   OH252946   3.556   6.092   1.967  0.0049  0.4030 -0.3586
 9584TIP3    H152947   3.590   6.002   1.965 -0.4367  0.1883  0.9730
 9584TIP3    H252948   3.467   6.084   1.932 -0.0851  0.3010 -0.1052
 9585TIP3   OH252949   6.151   5.462   3.118  0.6479 -0.3044 -0.5935
 9585TIP3    H152950   6.218   5.424   3.060 -0.1731  0.0481 -1.8087
 9585TIP3    H252951   6.099   5.518   3.060  0.3214  0.7414  0.6707
 9586TIP3   OH252952   0.774   6.677   2.959  0.0091 -0.0251  0.3237
 9586TIP3    H152953   0.863   6.654   2.935 -0.0466  0.6732 -0.6215
 9586TIP3    H252954   0.784   6.739   3.031  0.1598 -2.6208  2.7106
 9587TIP3   OH252955   6.944   3.577   1.662  0.1784 -0.8856  0.0563
 9587TIP3    H152956   6.885   3.506   1.687 -0.0248 -1.2542 -1.3675
 9587TIP3    H252957   6.993   3.543   1.587 -0.5997  0.7912 -1.2874
 9588TIP3   OH252958   3.175   6.951   1.264  0.5884 -0.0698 -0.1956
 9588TIP3    H152959   3.259   6.909   1.247  1.2984  1.0185  0.4602
 9588TIP3    H252960   3.152   6.923   1.353  0.5684  0.1394 -0.1352
 9589TIP3   OH252961   7.520   1.424   0.421 -0.4330 -0.2366 -0.6834
 9589TIP3    H152962   7.560   1.443   0.506  1.5032 -0.3409 -1.5112
 9589TIP3    H252963   7.429   1.405   0.441 -0.0281 -0.2617  1.3710
 9590TIP3   OH252964   1.031   6.216   0.998  0.0521 -0.2172  0.1738
 9590TIP3    H152965   0.967   6.146   0.982 -0.0062  0.3215 -2.2835
 9590TIP3    H252966   0.984   6.278   1.054 -1.0661 -0.5630 -0.3355
 9591TIP3   OH252967   5.205   2.835   1.013  0.1439  0.4249 -0.8035
 9591TIP3    H152968   5.205   2.920   0.970 -1.8186  0.7399 -0.3001
 9591TIP3    H252969   5.243   2.850   1.099  1.3094  0.4166 -1.2946
 9592TIP3   OH252970   2.423   2.720   1.393 -0.4030 -0.3185  0.0280
 9592TIP3    H152971   2.508   2.677   1.390 -0.1212  0.2498 -0.3756
 9592TIP3    H252972   2.444   2.813   1.385 -0.9317 -0.0198  1.6620
 9593TIP3   OH252973   3.581   5.877   2.628  0.8623  0.8874 -0.2479
 9593TIP3    H152974   3.551   5.915   2.545 -0.5202 -0.6533 -0.5128
 9593TIP3    H252975   3.510   5.893   2.689 -0.2201 -1.9193 -0.6076
 9594TIP3   OH252976   3.729   7.018   1.186 -0.1733 -0.0466 -0.7720
 9594TIP3    H152977   3.638   7.044   1.170 -0.2926  0.8375  1.0116
 9594TIP3    H252978   3.723   6.932   1.226 -0.2909  0.2502 -0.1312
 9595TIP3   OH252979   5.142   1.336   2.016  0.1272  0.2411 -0.4047
 9595TIP3    H152980   5.115   1.244   2.015  0.2888  0.1827 -1.6625
 9595TIP3    H252981   5.121   1.368   1.928  0.8537  1.1666 -0.2604
 9596TIP3   OH252982   6.410   5.973   1.755 -0.7425 -0.1832  0.0573
 9596TIP3    H152983   6.450   5.962   1.668 -2.1348  1.9541 -0.9275
 9596TIP3    H252984   6.431   6.063   1.780 -1.7819 -0.2319  1.1859
 9597TIP3   OH252985   1.066   3.537   2.313  0.2912 -0.2578 -0.1051
 9597TIP3    H152986   1.103   3.499   2.392  1.5299 -0.1066 -0.5865
 9597TIP3    H252987   1.021   3.616   2.342 -1.2082 -1.3668  0.7285
 9598TIP3   OH252988   2.984   0.926   0.673 -0.1341 -0.0929 -0.4470
 9598TIP3    H152989   2.907   0.964   0.715  0.5339  0.4686  0.3039
 9598TIP3    H252990   3.040   1.001   0.653 -0.3226 -0.3627 -2.1578
 9599TIP3   OH252991   2.217   5.330   1.526  0.0878  0.2005  0.9724
 9599TIP3    H152992   2.172   5.348   1.443 -0.9137 -1.2419  1.1648
 9599TIP3    H252993   2.256   5.244   1.514  0.7584  0.3937  1.6789
 9600TIP3   OH252994   4.314   3.168   0.725 -0.3811  0.2931 -0.6197
 9600TIP3    H152995   4.232   3.207   0.754 -0.6420 -1.8103  1.8045
 9600TIP3    H252996   4.378   3.193   0.792  0.1525 -0.7722 -0.6988
 9601TIP3   OH252997   1.438   1.505   2.099  0.1730  0.0625 -0.1113
 9601TIP3    H152998   1.493   1.445   2.150 -2.4746 -0.3839  2.5172
 9601TIP3    H252999   1.399   1.450   2.031  1.8276  0.0949 -1.1421
 9602TIP3   OH253000   1.383   3.893   2.330 -0.2175 -0.0845  0.6265
 9602TIP3    H153001   1.423   3.979   2.321  1.3834 -1.0026 -2.6522
 9602TIP3    H253002   1.329   3.883   2.252 -3.1036 -0.8529  2.5563
 9603TIP3   OH253003   7.612   4.384   2.362 -0.4605  0.4773  0.2775
 9603TIP3    H153004   7.689   4.344   2.322 -1.8274 -1.8598 -0.2376
 9603TIP3    H253005   7.634   4.477   2.371  1.2343  0.5057 -2.7470
 9604TIP3   OH253006   7.369   4.454   2.857 -0.1180 -0.6340 -0.1012
 9604TIP3    H153007   7.438   4.516   2.832 -1.0786  0.4870 -0.0669
 9604TIP3    H253008   7.412   4.369   2.855  1.2002  0.0024 -0.3411
 9605TIP3   OH253009   0.532   5.522   2.604  0.2490  0.4625 -0.5366
 9605TIP3    H153010   0.589   5.451   2.573 -0.5642 -0.0425 -0.9309
 9605TIP3    H253011   0.591   5.582   2.649  0.7882 -1.1199  0.9931
 9606TIP3   OH253012   0.731   3.041   0.936 -0.0147  0.4537 -0.5088
 9606TIP3    H153013   0.662   2.980   0.964  0.6516  0.0996  0.4406
 9606TIP3    H253014   0.812   3.002   0.970  0.3543  2.2284  0.8077
 9607TIP3   OH253015   1.324   2.080   3.011 -0.3697  0.5379 -0.3766
 9607TIP3    H153016   1.363   2.048   2.930  2.5755 -0.6620  1.3545
 9607TIP3    H253017   1.304   2.001   3.061 -0.4081  1.2691  0.8035
 9608TIP3   OH253018   1.079   6.427   2.510  0.5718 -0.2551 -0.3509
 9608TIP3    H153019   1.098   6.363   2.579 -1.7481 -1.0128 -0.3367
 9608TIP3    H253020   1.048   6.375   2.436 -2.1126  0.7857 -0.0888
 9609TIP3   OH253021   6.193   0.167   3.099  0.1088 -0.1977 -0.1033
 9609TIP3    H153022   6.229   0.254   3.116  0.2736 -0.6309  2.0053
 9609TIP3    H253023   6.269   0.115   3.071  0.1693  0.1018 -0.5076
 9610TIP3   OH253024   6.023   1.456   1.831 -0.0605  0.1769 -0.5135
 9610TIP3    H153025   5.997   1.481   1.742 -0.1488 -1.0963 -0.8567
 9610TIP3    H253026   5.998   1.531   1.885 -0.9494  0.5416 -1.4003
 9611TIP3   OH253027   6.976   4.182   1.516  0.2405 -0.3734 -0.1999
 9611TIP3    H153028   6.968   4.131   1.597 -2.1137  0.7799  0.3699
 9611TIP3    H253029   7.044   4.247   1.536 -0.3998 -0.0155  0.9254
 9612TIP3   OH253030   4.270   7.570   1.478  0.3241 -0.1257 -0.4512
 9612TIP3    H153031   4.339   7.529   1.426  0.0683 -0.2765 -0.6725
 9612TIP3    H253032   4.282   7.535   1.566  0.5706 -0.1013 -0.4757
 9613TIP3   OH253033   0.027   3.424   3.676  0.2483  0.3272 -0.5306
 9613TIP3    H153034  -0.010   3.513   3.673  1.3774  0.8446  0.2029
 9613TIP3    H253035  -0.027   3.374   3.616 -0.5318  1.4729 -0.8221
 9614TIP3   OH253036   1.014   4.848   3.263  0.0618 -0.0152 -0.0163
 9614TIP3    H153037   1.062   4.819   3.341  0.8258  2.1972  0.3927
 9614TIP3    H253038   1.072   4.910   3.220 -0.8142 -0.3608 -1.7855
 9615TIP3   OH253039   1.469   2.585   1.389 -0.1457  0.2511  0.4934
 9615TIP3    H153040   1.471   2.637   1.308 -2.4181  0.3209  0.4225
 9615TIP3    H253041   1.445   2.648   1.457  2.4367  0.3471  1.4327
 9616TIP3   OH253042   2.270   6.744   0.555 -0.2191 -0.3295  0.2486
 9616TIP3    H153043   2.327   6.670   0.575 -0.5205 -0.5206  0.4144
 9616TIP3    H253044   2.186   6.704   0.531  0.2565 -0.1491 -1.9221
 9617TIP3   OH253045   3.085   4.723   1.563  0.2675  0.0416 -0.1151
 9617TIP3    H153046   3.083   4.655   1.496 -1.1574 -0.7618  0.6788
 9617TIP3    H253047   3.013   4.700   1.622  1.6668  0.5286  1.8781
 9618TIP3   OH253048   6.427   2.502   2.634 -0.2844 -0.4976 -0.0124
 9618TIP3    H153049   6.453   2.411   2.642 -1.8726 -0.9291  0.5681
 9618TIP3    H253050   6.343   2.500   2.590 -0.8896  0.5943  1.0296
 9619TIP3   OH253051   1.740   4.543   3.591  0.2115 -0.5321  0.1108
 9619TIP3    H153052   1.747   4.452   3.620 -0.3659 -0.6660 -0.1476
 9619TIP3    H253053   1.774   4.594   3.664  1.7800 -1.0028 -0.2435
 9620TIP3   OH253054   7.587   5.296   1.656  0.0350 -0.1624  0.3103
 9620TIP3    H153055   7.572   5.247   1.736 -1.6592  2.5121  1.7877
 9620TIP3    H253056   7.682   5.292   1.642  0.2242 -1.6503  1.7587
 9621TIP3   OH253057   1.836   3.456   3.832  0.0482  0.4143 -0.0245
 9621TIP3    H153058   1.750   3.414   3.833 -0.4227  1.3495  0.9754
 9621TIP3    H253059   1.898   3.384   3.843 -0.6018 -0.2612 -0.6770
 9622TIP3   OH253060   3.780   7.548   0.994  0.3085  0.0178  0.6239
 9622TIP3    H153061   3.875   7.545   1.000  0.1935 -0.6850  3.4155
 9622TIP3    H253062   3.751   7.462   1.023 -1.1918  1.0098  2.2685
 9623TIP3   OH253063   0.658   6.882   1.989  0.0816  0.2275  0.0518
 9623TIP3    H153064   0.689   6.854   2.076  0.4877  0.8804  0.1249
 9623TIP3    H253065   0.734   6.871   1.932 -0.4209 -1.0092 -0.4238
 9624TIP3   OH253066   7.236   4.498   0.470 -0.5179  0.3210 -0.3710
 9624TIP3    H153067   7.310   4.532   0.520  1.0667 -1.4082 -1.4059
 9624TIP3    H253068   7.161   4.510   0.528  0.2631  3.4571  0.1346
 9625TIP3   OH253069   3.226   0.487   0.706  0.1907  0.1398 -0.0770
 9625TIP3    H153070   3.205   0.454   0.794  0.5417 -0.4102 -0.1952
 9625TIP3    H253071   3.149   0.466   0.654 -0.3309  1.1315  0.2570
 9626TIP3   OH253072   0.970   5.699   2.320  0.0736 -0.6360 -0.0314
 9626TIP3    H153073   0.971   5.621   2.265 -0.0078 -0.6380 -0.0303
 9626TIP3    H253074   1.018   5.674   2.399 -2.1877 -1.5645  1.1720
 9627TIP3   OH253075   7.184   3.899   2.361 -0.6680  0.0035 -0.0016
 9627TIP3    H153076   7.141   3.842   2.297 -2.7621  1.4768 -0.0505
 9627TIP3    H253077   7.111   3.935   2.413  0.5763  2.1057  0.4191
 9628TIP3   OH253078   0.404   3.735   0.423 -0.1784  0.9645  0.1504
 9628TIP3    H153079   0.362   3.683   0.354 -0.5075  0.7204  0.5289
 9628TIP3    H253080   0.332   3.784   0.463 -0.2728 -0.1195  1.3873
 9629TIP3   OH253081   1.425   1.301   0.698  0.1824  0.0066  0.0596
 9629TIP3    H153082   1.481   1.379   0.693 -0.8212  0.8445  1.2183
 9629TIP3    H253083   1.344   1.328   0.655  0.7955 -1.3889 -2.1487
 9630TIP3   OH253084   7.509   3.242   1.659  0.0549 -0.1372 -0.5012
 9630TIP3    H153085   7.546   3.224   1.745 -1.6541  0.6871  0.4786
 9630TIP3    H253086   7.479   3.157   1.627 -3.4214  0.0149  1.8332
 9631TIP3   OH253087   2.393   3.323   1.903  0.1638 -0.0410 -0.4067
 9631TIP3    H153088   2.329   3.339   1.972 -0.4310 -1.1871 -0.6643
 9631TIP3    H253089   2.429   3.237   1.922  0.5389 -0.0482 -1.1004
 9632TIP3   OH253090   5.095   4.027   2.191  0.6542 -0.1227  0.1493
 9632TIP3    H153091   5.007   4.038   2.156  0.1885 -2.4183  0.4305
 9632TIP3    H253092   5.092   4.069   2.277  0.5151  1.6810 -0.6912
 9633TIP3   OH253093   7.003   0.176   1.552 -0.5465  0.2382 -0.0487
 9633TIP3    H153094   7.080   0.232   1.542 -0.7177  0.3285 -0.9594
 9633TIP3    H253095   7.031   0.106   1.612 -0.4191  1.4407  1.3555
 9634TIP3   OH253096   6.824   3.388   0.588 -0.1333 -0.2342 -0.2617
 9634TIP3    H153097   6.794   3.300   0.608  0.2190 -0.3703 -0.3157
 9634TIP3    H253098   6.749   3.445   0.605 -0.2676 -0.5103  0.0577
 9635TIP3   OH253099   0.307   2.302   1.581 -0.5400  0.1659  0.1037
 9635TIP3    H153100   0.358   2.293   1.501  0.1515 -1.2695  0.6630
 9635TIP3    H253101   0.223   2.340   1.553  0.4039  1.5806 -0.9850
 9636TIP3   OH253102   6.413   5.077   3.596  0.2868 -0.1608 -0.1893
 9636TIP3    H153103   6.481   5.009   3.593 -1.5657 -2.0653 -1.6274
 9636TIP3    H253104   6.331   5.028   3.601 -1.0260  2.0788  2.0179
 9637TIP3   OH253105   3.655   0.068   2.101  0.2551  0.0632 -0.3804
 9637TIP3    H153106   3.714   0.108   2.037 -0.2392 -0.6646 -1.3200
 9637TIP3    H253107   3.627  -0.014   2.059  1.5920 -1.5212  1.6284
 9638TIP3   OH253108   1.331   6.450   1.864  0.4801 -0.0742  0.6976
 9638TIP3    H153109   1.240   6.432   1.889 -0.2996  0.8737 -1.1904
 9638TIP3    H253110   1.336   6.423   1.772  1.8839  0.6331  0.5386
 9639TIP3   OH253111   4.923   4.802   2.243  0.0556 -0.1531  0.1688
 9639TIP3    H153112   4.969   4.722   2.216  0.8297 -0.2889  1.7453
 9639TIP3    H253113   4.946   4.813   2.336 -0.1939  1.7932  0.0522
 9640TIP3   OH253114   5.610   2.238   1.002 -0.6091 -0.6304  0.1870
 9640TIP3    H153115   5.565   2.287   0.934  1.3768  0.5262 -0.3719
 9640TIP3    H253116   5.677   2.186   0.956  3.3322  2.9263  1.2237
 9641TIP3   OH253117   0.662   2.456   2.060  0.2784 -0.3106  0.1652
 9641TIP3    H153118   0.629   2.542   2.032  0.9349 -0.1508 -0.1488
 9641TIP3    H253119   0.689   2.414   1.978  0.1508 -0.7363  0.3414
 9642TIP3   OH253120   3.971   6.805   2.429 -0.0256 -0.0701 -0.0230
 9642TIP3    H153121   3.997   6.730   2.376  2.7884  0.0356  1.0331
 9642TIP3    H253122   3.971   6.879   2.368  0.0953 -0.4599 -0.4993
 9643TIP3   OH253123   1.968   4.536   2.923 -0.4120  0.7802 -0.4358
 9643TIP3    H153124   1.962   4.536   3.018  1.2329  1.7721 -0.2749
 9643TIP3    H253125   1.881   4.559   2.892 -1.7397 -2.2898  0.6690
 9644TIP3   OH253126   6.611   5.289   0.547 -0.0764  0.1811  0.1367
 9644TIP3    H153127   6.567   5.205   0.562 -0.3232  0.3774  0.5251
 9644TIP3    H253128   6.547   5.342   0.500  0.2011  0.0412 -0.4113
 9645TIP3   OH253129   0.189   6.576   0.450  0.4433  0.0429 -0.3116
 9645TIP3    H153130   0.224   6.530   0.374  1.5850 -0.6841  0.6225
 9645TIP3    H253131   0.259   6.635   0.477 -0.2095  0.7948 -0.2064
 9646TIP3   OH253132   3.745   4.817   1.462  0.2578  0.3734  0.4715
 9646TIP3    H153133   3.709   4.728   1.468 -0.4350  0.6602  0.5885
 9646TIP3    H253134   3.840   4.803   1.457  0.1092 -0.6271 -3.6629
 9647TIP3   OH253135   2.565   3.786   0.686 -0.0249 -0.1258 -0.5662
 9647TIP3    H153136   2.564   3.800   0.781 -2.6170  0.8312 -0.6428
 9647TIP3    H253137   2.656   3.764   0.666  1.1053  1.8268  1.8299
 9648TIP3   OH253138   7.607   0.975   1.020 -0.0869  0.4255 -0.0850
 9648TIP3    H153139   7.598   1.070   1.023 -1.3945  0.2761  1.9370
 9648TIP3    H253140   7.518   0.942   1.030  0.4807 -1.0149  0.3849
 9649TIP3   OH253141   2.197   1.785   1.685  0.3191 -0.4709 -0.0025
 9649TIP3    H153142   2.188   1.860   1.627 -1.8819 -2.4183 -2.4639
 9649TIP3    H253143   2.132   1.799   1.753 -0.1949 -0.1795 -0.5441
 9650TIP3   OH253144   6.336   4.094   1.014  0.0817 -0.0696  0.4850
 9650TIP3    H153145   6.405   4.126   1.073 -0.9247  1.3563  0.9706
 9650TIP3    H253146   6.285   4.173   0.993  0.2515 -0.5705 -2.1399
 9651TIP3   OH253147   5.457   3.053   1.642  0.2326 -0.0440 -0.7101
 9651TIP3    H153148   5.404   3.069   1.564  0.6396  0.5828 -0.8640
 9651TIP3    H253149   5.405   3.087   1.715 -0.6404 -1.6336 -0.5602
 9652TIP3   OH253150   0.185   0.005   0.714 -0.1026 -0.1277 -0.0667
 9652TIP3    H153151   0.221   0.022   0.626  1.4318  0.7049  0.6817
 9652TIP3    H253152   0.215   0.079   0.767 -1.2998 -0.4424  1.0922
 9653TIP3   OH253153   1.364   5.756   3.063  0.5369 -0.1495 -0.2897
 9653TIP3    H153154   1.380   5.786   2.973 -0.7606 -0.4842 -0.6563
 9653TIP3    H253155   1.402   5.668   3.066  0.7876 -0.0475 -0.4434
 9654TIP3   OH253156   0.280   2.769   1.150 -0.4185  0.4358  0.3367
 9654TIP3    H153157   0.352   2.754   1.212 -0.8727  0.3660  0.8558
 9654TIP3    H253158   0.208   2.802   1.205 -0.9296  0.0636 -0.1049
 9655TIP3   OH253159   6.212   1.198   1.296 -0.2394  0.3009 -0.5427
 9655TIP3    H153160   6.248   1.270   1.347 -2.6212  0.9999  0.2675
 9655TIP3    H253161   6.125   1.228   1.270 -0.5156 -1.5147 -1.8882
 9656TIP3   OH253162   6.655   3.154   2.197 -0.0111 -0.0180  0.0969
 9656TIP3    H153163   6.740   3.178   2.233  0.3157  0.2500 -0.8321
 9656TIP3    H253164   6.604   3.235   2.196  0.1957  0.1111 -0.6047
 9657TIP3   OH253165   7.563   1.070   1.325 -0.3862  0.3778  0.1038
 9657TIP3    H153166   7.601   0.985   1.348  0.7662  0.2922 -1.8744
 9657TIP3    H253167   7.471   1.051   1.303  0.1444 -0.6171 -1.4354
 9658TIP3   OH253168   4.609   6.639   0.669  0.4208 -0.6901  0.7477
 9658TIP3    H153169   4.557   6.619   0.591  1.9793  0.8770 -0.7870
 9658TIP3    H253170   4.545   6.652   0.739 -1.1249 -0.6612 -0.6294
 9659TIP3   OH253171   1.203   2.144   1.190  0.1467  0.0381  0.0490
 9659TIP3    H153172   1.228   2.235   1.177 -1.4429  0.8332  1.9786
 9659TIP3    H253173   1.189   2.110   1.102  0.8380  1.6367 -0.7093
 9660TIP3   OH253174   7.221   2.202   2.082  0.0294 -0.4240  0.0066
 9660TIP3    H153175   7.142   2.258   2.079  0.1027 -0.2655  0.7892
 9660TIP3    H253176   7.290   2.257   2.044  0.0867  0.0130  0.7141
 9661TIP3   OH253177   1.225   1.404   0.563  0.3825 -0.4419 -0.2443
 9661TIP3    H153178   1.169   1.361   0.498 -0.7098 -0.9428  0.9665
 9661TIP3    H253179   1.190   1.492   0.571  0.9812 -0.1418 -0.8492
 9662TIP3   OH253180   6.008   5.445   1.178 -0.2524  0.2008  0.5064
 9662TIP3    H153181   5.987   5.378   1.113 -0.9437 -0.3647  1.2956
 9662TIP3    H253182   5.944   5.514   1.162 -1.6360 -0.7408  1.7484
 9663TIP3   OH253183   7.594   6.402   1.128  0.2136  0.0847  0.5158
 9663TIP3    H153184   7.511   6.439   1.156 -0.4535 -0.2332 -0.9714
 9663TIP3    H253185   7.645   6.477   1.096 -0.4862 -0.0133 -0.9063
 9664TIP3   OH253186   2.000   1.871   0.470  0.2476  0.7049 -0.4092
 9664TIP3    H153187   2.047   1.884   0.388 -0.3064  0.2987 -0.7966
 9664TIP3    H253188   2.053   1.807   0.518 -0.0687 -0.0101 -0.9892
 9665TIP3   OH253189   2.266   6.860   2.206 -0.0368 -0.0593 -0.3534
 9665TIP3    H153190   2.336   6.925   2.207  0.8493 -0.9593  1.3954
 9665TIP3    H253191   2.191   6.905   2.246 -0.0499  0.4830 -0.9726
 9666TIP3   OH253192   4.680   5.910   0.962 -0.1898  0.3358 -0.4019
 9666TIP3    H153193   4.754   5.948   0.914 -0.0048 -0.7397 -1.0236
 9666TIP3    H253194   4.648   5.840   0.904 -1.5290  0.6127 -0.0225
 9667TIP3   OH253195   6.010   7.220   1.779 -0.1930 -0.1160  0.3673
 9667TIP3    H153196   5.921   7.240   1.752 -0.3756  1.5047  1.9839
 9667TIP3    H253197   6.053   7.306   1.784  1.0536 -0.7473  0.9398
 9668TIP3   OH253198   3.127   2.520   1.077 -0.2078 -0.1260  0.3150
 9668TIP3    H153199   3.162   2.610   1.079 -2.2445  0.7920 -1.4574
 9668TIP3    H253200   3.186   2.473   1.019 -0.6872  0.8640 -1.0366
 9669TIP3   OH253201   5.354   5.364   2.270 -0.0108  0.0916 -0.1066
 9669TIP3    H153202   5.369   5.421   2.346  1.7354 -0.7861  0.2638
 9669TIP3    H253203   5.335   5.278   2.308 -2.3945  0.3036 -0.6654
 9670TIP3   OH253204   3.484   3.949   2.627 -0.3249  0.0136 -0.0279
 9670TIP3    H153205   3.463   4.020   2.567  1.5458 -0.1187 -0.8873
 9670TIP3    H253206   3.523   3.992   2.703  2.1718 -0.0986 -1.1539
 9671TIP3   OH253207   0.572   1.707   2.127  0.0307 -0.3208 -0.2494
 9671TIP3    H153208   0.507   1.776   2.131  0.5084  0.0962  0.9824
 9671TIP3    H253209   0.646   1.747   2.081  0.4682  0.1615  0.8297
 9672TIP3   OH253210   6.001   5.707   1.725  0.0925 -0.2727  0.4189
 9672TIP3    H153211   5.909   5.694   1.747  0.3328 -1.8515  0.5856
 9672TIP3    H253212   6.002   5.710   1.629 -0.2205  0.6707  0.4281
 9673TIP3   OH253213   5.509   5.969   2.584  0.5713  0.0847 -0.5299
 9673TIP3    H153214   5.475   6.050   2.546 -0.0578  0.0864  0.0395
 9673TIP3    H253215   5.589   5.996   2.629  0.1636  0.4590 -0.0182
 9674TIP3   OH253216   4.833   1.054   1.197  0.3048 -0.2389  0.1767
 9674TIP3    H153217   4.863   1.031   1.109 -0.4057  0.7483 -0.3402
 9674TIP3    H253218   4.895   1.011   1.255  0.0810 -1.9373 -0.7670
 9675TIP3   OH253219   1.616   5.940   1.441  0.0717 -0.3847 -0.4819
 9675TIP3    H153220   1.678   5.872   1.415  0.5159 -0.3890  0.5523
 9675TIP3    H253221   1.657   5.983   1.516 -2.2885 -2.1319  2.0418
 9676TIP3   OH253222   4.748   6.420   0.990 -0.0771  0.2018 -0.9342
 9676TIP3    H153223   4.768   6.405   0.897  0.3599 -0.2618 -0.7690
 9676TIP3    H253224   4.710   6.338   1.019 -1.2498  0.7103 -0.9683
 9677TIP3   OH253225   2.531   1.216   0.958 -0.0665 -0.3066  0.4271
 9677TIP3    H153226   2.453   1.213   0.902 -0.5682 -1.6760  1.1549
 9677TIP3    H253227   2.602   1.236   0.897 -1.0308  1.7488 -0.1447
 9678TIP3   OH253228   6.947   1.878   0.408 -0.4830  0.6526 -0.2843
 9678TIP3    H153229   7.035   1.854   0.437 -1.1357 -1.3206  0.2089
 9678TIP3    H253230   6.944   1.853   0.316 -0.7221  0.1393 -0.1381
 9679TIP3   OH253231   2.404   0.147   2.101  0.0313 -0.2020 -0.9429
 9679TIP3    H153232   2.317   0.115   2.126 -0.1042  0.7820 -0.0300
 9679TIP3    H253233   2.397   0.242   2.110  1.0926 -0.0877 -1.2219
 9680TIP3   OH253234   1.992   7.352   2.488  0.2846  0.0147 -0.4851
 9680TIP3    H153235   1.985   7.324   2.579 -2.1163 -0.8470 -0.8699
 9680TIP3    H253236   2.029   7.440   2.492  1.8705 -0.6684  1.1743
 9681TIP3   OH253237   1.661   1.482   0.716 -0.3774  0.1766 -0.3284
 9681TIP3    H153238   1.743   1.492   0.668 -0.1521 -1.2737 -0.2949
 9681TIP3    H253239   1.601   1.544   0.674  0.2249 -0.0309 -1.5439
 9682TIP3   OH253240   7.070   2.135   2.472 -0.6899 -0.2557  0.0894
 9682TIP3    H153241   7.083   2.043   2.451  1.6552  0.1530 -0.5050
 9682TIP3    H253242   7.148   2.161   2.520  0.1501  2.1055 -2.2901
 9683TIP3   OH253243   3.270   3.610   0.366 -0.7202 -0.0953 -0.0459
 9683TIP3    H153244   3.323   3.655   0.299 -1.8603  0.4661 -0.6025
 9683TIP3    H253245   3.334   3.562   0.419  0.2254 -0.5960 -1.5657
 9684TIP3   OH253246   1.204   1.639   2.120 -0.2821 -0.4195 -0.0780
 9684TIP3    H153247   1.149   1.567   2.151 -1.0420 -0.2344 -0.9619
 9684TIP3    H253248   1.292   1.602   2.117 -0.2131 -0.5390  1.9596
 9685TIP3   OH253249   1.908   6.384   2.170  0.8570 -0.0957  0.2519
 9685TIP3    H153250   1.856   6.328   2.112  0.6747 -1.5249  1.7409
 9685TIP3    H253251   1.850   6.458   2.189  0.9135  0.3973 -1.3294
 9686TIP3   OH253252   0.911   3.953   1.621 -0.5565 -0.0285  0.0036
 9686TIP3    H153253   0.940   4.042   1.597 -1.3188  0.2943  0.2545
 9686TIP3    H253254   0.816   3.958   1.620 -0.6031 -0.6915  0.6126
 9687TIP3   OH253255   6.253   6.880   2.972  0.4547  0.2780 -0.1540
 9687TIP3    H153256   6.317   6.891   2.902 -0.4398 -0.2468 -1.0836
 9687TIP3    H253257   6.303   6.847   3.046  1.4231  0.8707 -0.5355
 9688TIP3   OH253258   1.340   5.816   1.266 -0.4366 -0.0586  0.1830
 9688TIP3    H153259   1.255   5.829   1.223 -1.6987 -1.5098  2.0872
 9688TIP3    H253260   1.383   5.748   1.213 -1.1236 -0.4266  0.0771
 9689TIP3   OH253261   0.839   7.098   2.941  0.4428 -0.4112  0.2714
 9689TIP3    H153262   0.807   7.126   2.855  0.7207  1.2914  0.6840
 9689TIP3    H253263   0.794   7.155   3.003  0.8962 -1.0344  1.1893
 9690TIP3   OH253264   5.885   3.432   1.228 -0.0194  0.0020 -0.3683
 9690TIP3    H153265   5.918   3.390   1.148  0.2821 -1.2831  0.3987
 9690TIP3    H253266   5.834   3.363   1.271  2.0473 -0.2395  1.8911
 9691TIP3   OH253267   4.212   4.498   1.280 -0.0949  0.2318 -0.2482
 9691TIP3    H153268   4.212   4.583   1.236 -0.7699 -0.4916 -1.6948
 9691TIP3    H253269   4.303   4.469   1.275 -0.1494  0.1885 -1.1350
 9692TIP3   OH253270   3.297   2.573   1.907  0.0598 -0.0922 -0.4362
 9692TIP3    H153271   3.242   2.554   1.984  0.5553  0.2407  0.0047
 9692TIP3    H253272   3.250   2.643   1.861 -1.9947 -2.4794 -2.2895
 9693TIP3   OH253273   1.326   4.332   2.163 -0.0236  0.4174 -0.4376
 9693TIP3    H153274   1.398   4.273   2.142  0.3716 -0.9204  3.8533
 9693TIP3    H253275   1.369   4.410   2.200 -0.6607 -0.1413  1.5947
 9694TIP3   OH253276   6.822   2.485   0.706  0.1594  0.0825 -0.7430
 9694TIP3    H153277   6.884   2.465   0.636 -0.4407 -3.7687 -0.3731
 9694TIP3    H253278   6.756   2.416   0.700 -2.3112  2.0805  1.0095
 9695TIP3   OH253279   4.554   1.827   0.932 -0.3856  0.6422  0.5134
 9695TIP3    H153280   4.473   1.797   0.974 -1.6009 -1.2775 -2.7943
 9695TIP3    H253281   4.549   1.922   0.937 -3.1441  0.6082  0.0240
 9696TIP3   OH253282   7.378   1.232   2.611  0.3178  0.0406 -0.0150
 9696TIP3    H153283   7.392   1.327   2.607 -0.7237  0.1891 -0.5069
 9696TIP3    H253284   7.371   1.213   2.705  0.2837  0.4926  0.0757
 9697TIP3   OH253285   3.589   5.161   3.233  0.2600  0.6716 -0.1848
 9697TIP3    H153286   3.607   5.243   3.188  0.3713  0.5930 -0.2828
 9697TIP3    H253287   3.664   5.105   3.214 -1.0922 -0.4794 -2.5250
 9698TIP3   OH253288   4.215   1.482   1.938 -0.1935  0.0965 -0.0289
 9698TIP3    H153289   4.235   1.574   1.921  0.5817 -0.1475 -0.4950
 9698TIP3    H253290   4.191   1.447   1.853 -2.2475  0.2624  0.4362
 9699TIP3   OH253291   1.510   6.331   1.214 -0.2024 -0.4206 -0.3518
 9699TIP3    H153292   1.424   6.373   1.218 -0.3985 -0.8368 -0.1251
 9699TIP3    H253293   1.494   6.241   1.241  0.7781  0.1814  2.5944
 9700TIP3   OH253294   1.898   7.443   0.813 -0.0844 -0.4496 -0.4880
 9700TIP3    H153295   1.802   7.445   0.808 -0.0497  1.4631 -1.7546
 9700TIP3    H253296   1.919   7.352   0.833 -2.0603 -1.6708 -3.2510
 9701TIP3   OH253297   0.037   0.552   2.517 -0.1509 -0.1426 -0.6492
 9701TIP3    H153298  -0.032   0.527   2.578  0.8574  0.2734  0.7122
 9701TIP3    H253299   0.093   0.474   2.512  1.1905  0.6274  1.0492
 9702TIP3   OH253300   7.268   4.124   2.624  0.0694  0.6314 -0.4024
 9702TIP3    H153301   7.267   4.125   2.720 -1.4969 -0.4453 -0.3560
 9702TIP3    H253302   7.188   4.077   2.600  0.3141  1.0693 -2.2528
 9703TIP3   OH253303   4.509   0.603   1.370  0.3089 -0.3757 -0.2964
 9703TIP3    H153304   4.450   0.677   1.359  0.0413 -0.5340  0.0479
 9703TIP3    H253305   4.597   0.641   1.360  0.2536  0.3121  1.4670
 9704TIP3   OH253306   4.735   1.557   2.143  0.6865 -0.1374  0.0022
 9704TIP3    H153307   4.797   1.500   2.190  0.7320 -0.4503 -0.4379
 9704TIP3    H253308   4.677   1.497   2.097 -0.5011  0.1308  1.1004
 9705TIP3   OH253309   0.958   3.433   2.621 -0.3744 -0.0455  0.2183
 9705TIP3    H153310   0.866   3.443   2.598 -0.1888 -1.8989 -1.6285
 9705TIP3    H253311   0.976   3.505   2.681 -2.7714  0.9092 -0.1100
 9706TIP3   OH253312   4.628   5.348   1.822 -0.1487 -0.0669  0.2093
 9706TIP3    H153313   4.618   5.443   1.814 -0.3226 -0.1432 -0.5410
 9706TIP3    H253314   4.712   5.337   1.867 -0.2149  0.4472  0.4638
 9707TIP3   OH253315   4.039   5.888   0.677 -0.0803  0.0010  0.1640
 9707TIP3    H153316   4.074   5.922   0.759  0.8688 -1.0833  0.2300
 9707TIP3    H253317   4.008   5.966   0.630 -0.2624  0.6730  1.3602
 9708TIP3   OH253318   2.051   7.597   1.479 -0.5247  0.3698 -0.6556
 9708TIP3    H153319   1.975   7.545   1.453  0.0463  0.5334 -2.8134
 9708TIP3    H253320   2.027   7.633   1.564 -1.5684 -2.0989  0.1858
 9709TIP3   OH253321   3.226   1.156   1.553  0.4475  0.0299  0.0933
 9709TIP3    H153322   3.297   1.124   1.498  0.2296 -0.3979  0.0594
 9709TIP3    H253323   3.267   1.172   1.639  0.4327 -0.9254  0.2857
 9710TIP3   OH253324   0.904   5.453   0.821 -0.1618 -0.1312 -0.0410
 9710TIP3    H153325   0.812   5.471   0.800 -0.3733 -0.2494  0.7588
 9710TIP3    H253326   0.951   5.469   0.739 -0.5080  2.6089  0.1842
 9711TIP3   OH253327   3.272   1.580   1.730 -0.1475 -0.1568  0.1193
 9711TIP3    H153328   3.284   1.509   1.793  0.7436  1.1266  1.4980
 9711TIP3    H253329   3.178   1.597   1.730 -0.3344 -1.1370 -0.0247
 9712TIP3   OH253330   6.137   0.370   2.554  0.0533 -0.1917 -0.5358
 9712TIP3    H153331   6.085   0.330   2.624  1.3017 -0.3979  0.3059
 9712TIP3    H253332   6.223   0.386   2.593  0.5313  0.4685 -1.7796
 9713TIP3   OH253333   1.248   1.485   1.467 -0.2096  0.5145 -0.0898
 9713TIP3    H153334   1.338   1.474   1.435 -0.5279  1.0839 -1.2018
 9713TIP3    H253335   1.194   1.484   1.389 -1.0864  1.1517  0.4952
 9714TIP3   OH253336   7.071   4.974   0.958 -0.4050 -0.3769 -0.0412
 9714TIP3    H153337   7.061   4.957   1.051 -2.5076  0.4557 -0.0715
 9714TIP3    H253338   7.068   4.887   0.918 -0.4681 -0.6644  0.5781
 9715TIP3   OH253339   6.837   5.259   1.234  0.2004 -0.0694  0.6849
 9715TIP3    H153340   6.758   5.247   1.181 -0.0093  0.6436  0.8362
 9715TIP3    H253341   6.897   5.306   1.177 -0.1297  0.9593  1.1650
 9716TIP3   OH253342   7.525   0.397   1.198 -0.5968  0.3662 -0.1406
 9716TIP3    H153343   7.507   0.333   1.129 -0.6440  1.1703 -0.8830
 9716TIP3    H253344   7.554   0.475   1.152  1.0028  0.3916  0.8416
 9717TIP3   OH253345   2.987   2.785   2.553 -0.4638  0.1525  0.1880
 9717TIP3    H153346   2.894   2.763   2.549 -0.4080 -0.2186  0.8860
 9717TIP3    H253347   2.990   2.877   2.525 -0.8765 -0.2247 -1.1530
 9718TIP3   OH253348   5.971   1.712   2.158  0.1270  0.0191 -0.6497
 9718TIP3    H153349   5.950   1.802   2.182 -0.9735 -0.9517  2.6908
 9718TIP3    H253350   5.887   1.673   2.136  0.6158 -0.2200 -2.2278
 9719TIP3   OH253351   5.846   6.607   2.439 -0.2487  0.2337  0.6331
 9719TIP3    H153352   5.872   6.675   2.500  0.3934 -1.5262  2.4177
 9719TIP3    H253353   5.925   6.587   2.390 -0.1068 -0.0753  0.9829
 9720TIP3   OH253354   1.563   0.451   2.760  0.0718  0.5160 -0.8308
 9720TIP3    H153355   1.620   0.376   2.741  0.5935  0.8971 -0.8021
 9720TIP3    H253356   1.564   0.503   2.680  0.2558  0.8365 -0.6224
 9721TIP3   OH253357   4.846   0.641   2.137 -0.2930 -0.0222  0.0058
 9721TIP3    H153358   4.898   0.613   2.213 -0.0048  1.6393  0.4651
 9721TIP3    H253359   4.755   0.626   2.164 -0.2782  1.8319  1.2882
 9722TIP3   OH253360   4.984   5.302   0.983  0.2411  0.1235 -0.1069
 9722TIP3    H153361   4.945   5.280   0.898  0.3526 -1.1389  0.1535
 9722TIP3    H253362   4.919   5.357   1.026 -0.0404  0.3403 -0.8064
 9723TIP3   OH253363   5.729   2.487   1.996 -0.0105  0.1889 -0.3863
 9723TIP3    H153364   5.666   2.560   1.993 -0.6081 -0.2490  0.7706
 9723TIP3    H253365   5.722   2.446   1.909 -2.4011 -0.6902  0.1274
 9724TIP3   OH253366   0.708   2.916   1.492 -0.0576  0.0044 -0.2445
 9724TIP3    H153367   0.713   2.874   1.406 -0.4010 -1.4362  0.4065
 9724TIP3    H253368   0.768   2.990   1.487  0.6738 -0.6510 -1.3977
 9725TIP3   OH253369   0.498   3.245   0.582 -0.2864  0.3795 -0.2748
 9725TIP3    H153370   0.576   3.211   0.538 -1.6590 -0.3447 -2.2965
 9725TIP3    H253371   0.516   3.338   0.594  2.0229 -0.2366  1.9727
 9726TIP3   OH253372   3.231   3.211   3.009 -0.5147  0.0464  0.0587
 9726TIP3    H153373   3.210   3.217   2.915 -0.3084  0.6281  0.0450
 9726TIP3    H253374   3.305   3.271   3.021 -0.7004  0.1674  0.6400
 9727TIP3   OH253375   5.139   2.563   2.298 -0.2112  0.2922 -0.2656
 9727TIP3    H153376   5.121   2.651   2.333 -0.2800 -0.0427  0.5511
 9727TIP3    H253377   5.059   2.514   2.315  1.1137 -1.0543  2.8703
 9728TIP3   OH253378   7.581   1.319   3.077 -0.2641 -0.2501 -0.1105
 9728TIP3    H153379   7.645   1.377   3.037  0.3471 -1.2796 -0.6539
 9728TIP3    H253380   7.538   1.373   3.144 -1.2466  1.4843 -2.0483
 9729TIP3   OH253381   0.583   4.809   2.651  0.8148 -0.2174 -0.2820
 9729TIP3    H153382   0.612   4.844   2.567 -1.3081  0.5579 -0.7476
 9729TIP3    H253383   0.576   4.885   2.708  0.6504 -0.5250  0.1141
 9730TIP3   OH253384   2.499   0.684   0.671 -0.3676  0.0664  0.2157
 9730TIP3    H153385   2.503   0.737   0.591 -0.3135 -0.3731 -0.0769
 9730TIP3    H253386   2.485   0.747   0.741 -0.2565  0.4729 -0.1248
 9731TIP3   OH253387   3.430   2.353   1.096  0.2319 -0.3284 -0.3389
 9731TIP3    H153388   3.414   2.320   1.185  0.4238  1.9869  0.6242
 9731TIP3    H253389   3.347   2.339   1.050 -0.0618 -1.0153  0.3780
 9732TIP3   OH253390   5.757   6.544   2.784 -0.2894  0.1875 -0.3712
 9732TIP3    H153391   5.835   6.587   2.819 -0.2678  0.7502 -1.0914
 9732TIP3    H253392   5.720   6.607   2.722 -0.9162 -0.3632 -0.5696
 9733TIP3   OH253393   7.161   1.316   0.687 -0.0845  0.3320  0.1117
 9733TIP3    H153394   7.221   1.390   0.696 -0.0407  0.5166 -1.3937
 9733TIP3    H253395   7.074   1.355   0.696 -0.0368  0.1912  1.4775
 9734TIP3   OH253396   7.253   5.045   1.783 -0.3763 -0.4841  0.0156
 9734TIP3    H153397   7.249   5.104   1.708 -0.8454 -1.0955 -0.4527
 9734TIP3    H253398   7.214   4.964   1.751  0.4517 -1.1166  0.5910
 9735TIP3   OH253399   4.486   7.328   1.845 -0.4112  0.1551 -0.0019
 9735TIP3    H153400   4.468   7.306   1.936  1.7571  0.5146  0.5700
 9735TIP3    H253401   4.494   7.243   1.801  1.5580 -0.1456  0.8370
 9736TIP3   OH253402   6.212   3.805   0.551 -0.6869 -0.2751  0.3047
 9736TIP3    H153403   6.130   3.757   0.563 -0.9600  0.4352  1.3602
 9736TIP3    H253404   6.185   3.897   0.545 -0.0017 -0.0720  0.3127
 9737TIP3   OH253405   1.578   3.753   2.117 -0.5624 -0.7487  0.2296
 9737TIP3    H153406   1.503   3.694   2.126 -0.3788 -1.1145 -0.5378
 9737TIP3    H253407   1.539   3.840   2.107 -0.8802 -0.9200 -0.0381
 9738TIP3   OH253408   0.782   1.220   2.402  0.5612  0.5170 -0.1685
 9738TIP3    H153409   0.726   1.144   2.387  0.9180 -0.5973  3.3022
 9738TIP3    H253410   0.870   1.192   2.377  0.6174 -0.0517  0.6680
 9739TIP3   OH253411   2.481   5.899   2.066  0.2075 -0.4638  0.5229
 9739TIP3    H153412   2.458   5.812   2.098  0.5171 -0.7071  0.0931
 9739TIP3    H253413   2.397   5.938   2.040 -0.1184 -0.0590  2.0900
 9740TIP3   OH253414   2.575   1.489   1.126 -0.0128 -0.0679 -0.5689
 9740TIP3    H153415   2.618   1.407   1.102  1.1286 -0.5688  2.6421
 9740TIP3    H253416   2.521   1.467   1.202 -1.0250  1.8356 -0.6747
 9741TIP3   OH253417   0.794   3.133   1.245  0.6388  0.1632 -0.0319
 9741TIP3    H153418   0.807   3.057   1.188  0.0554 -0.1988  0.3090
 9741TIP3    H253419   0.711   3.170   1.217  0.5382  0.2135  0.3267
 9742TIP3   OH253420   3.327   6.643   0.621 -0.3090  0.1699 -0.3757
 9742TIP3    H153421   3.321   6.549   0.607 -0.9640  0.0544  0.6338
 9742TIP3    H253422   3.419   6.659   0.644 -0.5626 -0.4721  1.1634
 9743TIP3   OH253423   6.249   5.169   1.811 -0.0829  0.4231  0.5533
 9743TIP3    H153424   6.198   5.089   1.817 -1.6641  1.1892 -1.4605
 9743TIP3    H253425   6.338   5.140   1.792 -1.0379 -0.9087 -2.3864
 9744TIP3   OH253426   7.047   3.879   1.487 -0.2819  0.2902 -0.4425
 9744TIP3    H153427   7.073   3.970   1.477  0.9700  0.0291  0.2393
 9744TIP3    H253428   7.015   3.873   1.577 -1.4339  0.2938 -0.8393
 9745TIP3   OH253429   4.991   6.478   2.656 -0.2204 -0.4251  0.1967
 9745TIP3    H153430   5.013   6.488   2.563  3.2497  3.6637  1.1445
 9745TIP3    H253431   5.064   6.429   2.693 -0.7146 -0.5371  1.0530
 9746TIP3   OH253432   6.557   2.705   2.152  0.4501  0.0925 -0.1766
 9746TIP3    H153433   6.618   2.714   2.079 -0.3682  1.9981 -0.6823
 9746TIP3    H253434   6.578   2.778   2.210 -1.1459  0.6241 -0.2237
 9747TIP3   OH253435   3.166   5.548   0.761  0.3836 -0.1651  0.5341
 9747TIP3    H153436   3.096   5.487   0.781  0.4765  0.1175  1.7553
 9747TIP3    H253437   3.121   5.622   0.718  0.4293 -1.6010 -2.2081
 9748TIP3   OH253438   3.657   6.894   2.986 -0.4582  0.2842  0.0495
 9748TIP3    H153439   3.740   6.884   2.940  0.6667 -0.4248  2.1214
 9748TIP3    H253440   3.591   6.872   2.920  1.1077 -1.6827 -0.9834
 9749TIP3   OH253441   2.450   5.657   2.224  0.0339 -0.1026  0.0628
 9749TIP3    H153442   2.412   5.722   2.283  0.7782  2.0227 -1.6354
 9749TIP3    H253443   2.374   5.612   2.186 -0.5989  0.7914  0.2154
 9750TIP3   OH253444   2.536   2.975   1.299 -0.2139  0.0321 -0.3049
 9750TIP3    H153445   2.615   2.923   1.314 -0.8091 -0.5548  0.9256
 9750TIP3    H253446   2.557   3.061   1.334 -0.7648 -0.6766  1.9965
 9751TIP3   OH253447   7.616   6.255   1.701 -0.3852  0.2236 -0.0368
 9751TIP3    H153448   7.600   6.161   1.685 -1.7727  0.6482 -1.4644
 9751TIP3    H253449   7.531   6.296   1.684  0.0251  1.6875  1.2352
 9752TIP3   OH253450   5.941   6.181   2.369 -0.3347 -0.6356 -0.8740
 9752TIP3    H153451   5.938   6.085   2.360  1.2681 -0.9781  1.2586
 9752TIP3    H253452   5.852   6.206   2.393 -0.4183 -1.8641  0.2562
 9753TIP3   OH253453   5.944   0.810   1.696 -0.5899  0.4028  0.0528
 9753TIP3    H153454   6.015   0.784   1.755 -1.2273  0.6786  0.9670
 9753TIP3    H253455   5.985   0.818   1.611  0.4019  0.1997  0.5000
 9754TIP3   OH253456   0.237   6.997   1.134  0.6909  0.0010  0.1554
 9754TIP3    H153457   0.190   7.066   1.181  0.4619 -0.6952  0.9645
 9754TIP3    H253458   0.267   6.937   1.202  3.2351  0.6723 -0.2626
 9755TIP3   OH253459   4.583   7.517   2.897 -0.3973  0.5406 -0.0073
 9755TIP3    H153460   4.534   7.509   2.979 -0.1314 -1.0687  0.0238
 9755TIP3    H253461   4.630   7.600   2.905 -0.0948  0.2479  1.6486
 9756TIP3   OH253462   4.648   1.595   1.181  0.2709  1.0615 -0.1904
 9756TIP3    H153463   4.727   1.647   1.187  1.0482 -0.2692  3.1524
 9756TIP3    H253464   4.678   1.509   1.150 -0.1544  1.0359 -0.5443
 9757TIP3   OH253465   6.343   3.218   1.927  0.2762  0.2203  0.1271
 9757TIP3    H153466   6.403   3.157   1.886  0.5640  0.3440  0.3591
 9757TIP3    H253467   6.288   3.164   1.983  1.5006  0.3347  1.4873
 9758TIP3   OH253468   2.881   0.702   1.194  0.1051 -0.4571  0.2449
 9758TIP3    H153469   2.914   0.711   1.105  0.9299 -0.4284  0.5499
 9758TIP3    H253470   2.867   0.608   1.206 -0.5452 -0.4123 -0.0961
 9759TIP3   OH253471   2.324   6.637   2.051  0.0365  0.1809  0.8884
 9759TIP3    H153472   2.251   6.575   2.048  0.1792  0.0466 -0.7648
 9759TIP3    H253473   2.286   6.718   2.083 -0.8507  0.1211  0.0057
 9760TIP3   OH253474   5.361   7.461   0.583 -0.5826 -0.1386  0.0081
 9760TIP3    H153475   5.418   7.387   0.607  0.3041  0.4920 -0.1243
 9760TIP3    H253476   5.408   7.506   0.513 -0.0629  1.7854  1.5182
 9761TIP3   OH253477   4.316   7.175   1.454  0.1061  0.7507 -0.0027
 9761TIP3    H153478   4.348   7.148   1.540  0.9497 -1.5887 -0.9537
 9761TIP3    H253479   4.285   7.094   1.414  0.1634  1.6925 -2.0697
 9762TIP3   OH253480   3.925   5.964   1.606 -0.1747  0.2155  0.0469
 9762TIP3    H153481   3.947   5.875   1.578 -2.5197  0.1771 -1.9889
 9762TIP3    H253482   4.009   6.002   1.631  1.0988 -2.1075 -0.3455
 9763TIP3   OH253483   3.952   3.567   3.570 -0.4108  0.1140 -0.1912
 9763TIP3    H153484   4.002   3.503   3.519  0.1650 -0.0437  0.5394
 9763TIP3    H253485   3.865   3.527   3.580 -0.2651 -0.2429 -0.3251
 9764TIP3   OH253486   0.020   5.478   2.360 -0.4207 -0.0524  0.4453
 9764TIP3    H153487   0.098   5.498   2.412  0.0790 -0.3014 -0.1862
 9764TIP3    H253488   0.008   5.555   2.305  0.3640 -0.6594 -0.6183
 9765TIP3   OH253489   3.559   6.848   2.556  0.1321  0.0463  0.1776
 9765TIP3    H153490   3.635   6.907   2.552 -1.1283  1.6901 -0.1992
 9765TIP3    H253491   3.555   6.822   2.648  0.7227  0.5238  0.3494
 9766TIP3   OH253492   2.339   3.106   2.495 -0.6936  0.3533 -0.2999
 9766TIP3    H153493   2.280   3.138   2.563  0.6812 -1.3264  1.8233
 9766TIP3    H253494   2.344   3.177   2.431 -2.4370  1.8173  1.0969
 9767TIP3   OH253495   2.836   6.124   1.365  0.0974  0.4317  0.1648
 9767TIP3    H153496   2.788   6.206   1.354  0.8826  0.7194 -1.4762
 9767TIP3    H253497   2.791   6.062   1.308 -0.0098 -0.0762  0.7878
 9768TIP3   OH253498   6.953   7.093   2.335  0.0983  0.3512 -0.0944
 9768TIP3    H153499   6.936   7.112   2.243  0.5415 -1.4857 -0.6039
 9768TIP3    H253500   7.009   7.165   2.365  0.2820  0.7631 -1.3712
 9769TIP3   OH253501   6.079   3.882   3.073  0.1293 -0.1613 -0.3058
 9769TIP3    H153502   6.154   3.829   3.046 -1.2985 -2.2196 -0.4491
 9769TIP3    H253503   6.009   3.855   3.014 -1.1131  0.6482  0.7662
 9770TIP3   OH253504   3.736   6.205   2.445 -0.6143 -0.1014  0.0857
 9770TIP3    H153505   3.679   6.159   2.506 -0.0800 -1.5306 -0.4600
 9770TIP3    H253506   3.684   6.214   2.366 -0.6581  0.0920  0.1357
 9771TIP3   OH253507   5.652   3.632   1.416 -0.5608 -0.0362 -0.2449
 9771TIP3    H153508   5.707   3.706   1.441  0.1938 -1.1095  1.4488
 9771TIP3    H253509   5.693   3.597   1.337 -0.0776  0.4808 -0.2221
 9772TIP3   OH253510   0.012   2.748   1.905  0.0118 -0.2999  0.6783
 9772TIP3    H153511  -0.045   2.753   1.828  2.7932  1.9937 -1.4461
 9772TIP3    H253512   0.054   2.663   1.899  0.7507  0.1402 -0.8286
 9773TIP3   OH253513   2.390   4.313   2.541  0.1461 -0.1031 -0.3344
 9773TIP3    H153514   2.376   4.391   2.594 -1.1088  0.1016 -0.9272
 9773TIP3    H253515   2.441   4.343   2.466  0.0775  0.0560 -0.3172
 9774TIP3   OH253516   0.646   3.919   2.017  0.8239 -0.4686  0.1215
 9774TIP3    H153517   0.614   3.831   1.999 -0.3777  0.0329 -0.2452
 9774TIP3    H253518   0.584   3.955   2.080  1.3821  0.0778  0.3691
 9775TIP3   OH253519   3.525   4.357   0.791  0.0297  0.2427  0.0698
 9775TIP3    H153520   3.437   4.327   0.768  1.0392 -1.4618 -1.9018
 9775TIP3    H253521   3.558   4.398   0.711  0.8718  1.2816  0.9256
 9776TIP3   OH253522   3.232   2.395   1.672 -0.1609 -0.0930  0.0491
 9776TIP3    H153523   3.241   2.429   1.760  0.2130 -0.7118  0.2612
 9776TIP3    H253524   3.318   2.410   1.632  0.3703 -1.6937  0.4940
 9777TIP3   OH253525   0.182   5.463   2.989  1.4749  0.3110  0.2316
 9777TIP3    H153526   0.236   5.384   2.981  0.0463 -0.6587 -0.1717
 9777TIP3    H253527   0.131   5.449   3.069  0.0590  0.0511 -0.6744
 9778TIP3   OH253528   5.466   6.815   1.768  0.0876  0.7594 -0.0939
 9778TIP3    H153529   5.546   6.864   1.749 -0.7503  2.2146 -0.0261
 9778TIP3    H253530   5.401   6.853   1.709 -0.8669  0.5002  0.7792
 9779TIP3   OH253531   2.621   3.169   2.206  0.4441  0.0770 -0.2339
 9779TIP3    H153532   2.537   3.192   2.244  0.7633  0.3148  0.3446
 9779TIP3    H253533   2.608   3.176   2.111 -1.2752 -3.5198 -0.4384
 9780TIP3   OH253534   5.014   6.858   2.810 -0.0368 -0.8333 -0.1911
 9780TIP3    H153535   5.096   6.844   2.857 -0.9074 -1.0868  1.3503
 9780TIP3    H253536   4.949   6.867   2.880 -1.1636  0.3963 -1.3448
 9781TIP3   OH253537   0.569   4.225   3.409 -0.1627  0.3902  0.0645
 9781TIP3    H153538   0.567   4.178   3.492 -1.9088 -1.5623 -0.9966
 9781TIP3    H253539   0.662   4.227   3.384  0.0134 -2.5164  0.2047
 9782TIP3   OH253540   2.319   2.485   2.151 -0.1138 -0.6864 -0.7658
 9782TIP3    H153541   2.292   2.481   2.060 -2.6966  1.1607 -0.1632
 9782TIP3    H253542   2.298   2.573   2.180  0.3402 -1.3032  1.7290
 9783TIP3   OH253543   5.779   4.251   2.689 -0.3658  0.0318  0.2330
 9783TIP3    H153544   5.743   4.180   2.744  1.0862 -0.4761  0.5826
 9783TIP3    H253545   5.865   4.269   2.727 -0.2624  1.2459 -0.5292
 9784TIP3   OH253546   6.804   6.421   1.078 -0.0655  0.0624  0.0981
 9784TIP3    H153547   6.881   6.430   1.134 -0.3242  0.3854  0.4088
 9784TIP3    H253548   6.735   6.470   1.124 -0.5102 -0.4001 -0.0712
 9785TIP3   OH253549   7.444   6.448   3.355  0.2994 -0.6550  0.3261
 9785TIP3    H153550   7.534   6.416   3.364  0.0893 -0.7880  2.4654
 9785TIP3    H253551   7.396   6.374   3.319  1.1741 -0.2693 -1.8040
 9786TIP3   OH253552   3.195   6.348   2.752 -0.5271 -0.6379  0.5370
 9786TIP3    H153553   3.217   6.321   2.662  0.7965 -0.4061  0.7734
 9786TIP3    H253554   3.266   6.405   2.778  0.9498 -3.2898  2.9136
 9787TIP3   OH253555   5.788   3.780   2.003 -0.2837 -0.3584  0.2945
 9787TIP3    H153556   5.711   3.811   1.957  0.1301  0.0397 -0.1342
 9787TIP3    H253557   5.778   3.813   2.092 -0.6096 -0.3188  0.2418
 9788TIP3   OH253558   5.853   2.206   3.018  0.1103 -0.6354  0.3842
 9788TIP3    H153559   5.794   2.161   2.957  0.1830 -1.0236  0.5988
 9788TIP3    H253560   5.796   2.242   3.085  0.0665 -0.5373  0.2943
 9789TIP3   OH253561   1.772   4.902   3.166 -0.5682 -0.4137 -0.3034
 9789TIP3    H153562   1.843   4.840   3.181 -1.3260 -1.1651  0.2429
 9789TIP3    H253563   1.783   4.968   3.235 -1.5720 -1.6209  1.0786
 9790TIP3   OH253564   0.993   5.622   1.928  0.1732 -0.3621  0.1859
 9790TIP3    H153565   1.031   5.554   1.983  0.2101 -0.9407 -0.5336
 9790TIP3    H253566   0.912   5.583   1.894  1.3241 -0.9908 -2.0889
 9791TIP3   OH253567   6.349   5.733   1.985  0.3102 -0.0302  0.0071
 9791TIP3    H153568   6.324   5.823   1.962 -1.5847 -0.5165  0.0783
 9791TIP3    H253569   6.411   5.744   2.057  1.1538  1.2536 -0.8661
 9792TIP3   OH253570   2.443   2.891   2.347  0.0243  0.3052  0.1821
 9792TIP3    H153571   2.418   2.968   2.398  0.8045 -0.0269  1.1018
 9792TIP3    H253572   2.486   2.834   2.410 -0.9774 -1.1172 -0.3820
 9793TIP3   OH253573   2.399   7.529   0.720 -0.1381 -0.2133  0.2507
 9793TIP3    H153574   2.382   7.435   0.724 -1.2056 -0.1262 -1.3578
 9793TIP3    H253575   2.477   7.537   0.666 -1.4201 -0.1135 -1.6906
 9794TIP3   OH253576   6.858   1.478   3.136 -0.9827  0.9882  0.6282
 9794TIP3    H153577   6.828   1.451   3.223  0.5748  0.6212  1.0902
 9794TIP3    H253578   6.953   1.464   3.138 -0.7652  2.0186 -0.7640
 9795TIP3   OH253579   4.424   3.883   0.799 -0.0970 -0.1564  0.2030
 9795TIP3    H153580   4.496   3.860   0.858  0.1782 -0.8998 -0.4121
 9795TIP3    H253581   4.458   3.955   0.747 -0.0173 -0.0973  0.3365
 9796TIP3   OH253582   1.353   3.603   2.238 -0.1999 -0.2590 -0.0280
 9796TIP3    H153583   1.356   3.675   2.301  0.5663  0.1141 -0.4601
 9796TIP3    H253584   1.321   3.528   2.287  0.2169  0.0677  0.7609
 9797TIP3   OH253585   6.732   0.554   3.016  0.0438  0.3716 -0.1663
 9797TIP3    H153586   6.816   0.525   3.053 -0.3548 -0.4018  0.1593
 9797TIP3    H253587   6.707   0.630   3.069  0.2273  0.2101  0.1522
 9798TIP3   OH253588   3.725   5.823   2.181 -0.1033 -0.2288  0.0983
 9798TIP3    H153589   3.791   5.776   2.231 -0.9045 -2.0853 -0.4806
 9798TIP3    H253590   3.775   5.876   2.119  0.8541  0.5086  1.4695
 9799TIP3   OH253591   2.873   0.767   1.628 -0.0439 -0.1262 -0.4141
 9799TIP3    H153592   2.948   0.766   1.569  0.6205 -0.5421  0.4186
 9799TIP3    H253593   2.797   0.779   1.571  0.5584 -0.7667 -1.3668
 9800TIP3   OH253594   5.110   2.932   1.619  0.0803 -0.7356 -0.2102
 9800TIP3    H153595   5.069   2.984   1.550 -0.6137 -0.8471  0.1059
 9800TIP3    H253596   5.181   2.885   1.575  1.6550  1.5305 -0.2370
 9801TIP3   OH253597   4.096   3.448   3.337 -0.3115  0.1854  0.2126
 9801TIP3    H153598   4.160   3.462   3.266  0.9136 -0.5117  1.1447
 9801TIP3    H253599   4.012   3.472   3.298  0.4655  0.8225 -1.1577
 9802TIP3   OH253600   2.409   1.726   1.377 -0.1433 -0.4156 -0.3190
 9802TIP3    H153601   2.443   1.657   1.434  0.5921  1.1530  1.2312
 9802TIP3    H253602   2.487   1.760   1.333  0.2184  2.1134  2.0326
 9803TIP3   OH253603   2.240   4.928   3.166 -0.2696 -0.0401  0.3461
 9803TIP3    H153604   2.156   4.881   3.170 -1.5396  2.1424  1.2372
 9803TIP3    H253605   2.223   5.010   3.213  1.1100  2.3181 -2.9172
 9804TIP3   OH253606   0.084   6.178   1.115  0.3582 -0.0297  0.0512
 9804TIP3    H153607   0.004   6.231   1.121  1.0304  0.9998  0.2164
 9804TIP3    H253608   0.100   6.169   1.021  0.4616  0.4029  0.0274
 9805TIP3   OH253609   2.252   3.372   0.993 -0.4161  0.4544 -0.1370
 9805TIP3    H153610   2.236   3.315   1.068  0.5577 -0.9718 -0.9494
 9805TIP3    H253611   2.224   3.320   0.918 -0.0694  1.3018 -0.8589
 9806TIP3   OH253612   7.207   1.893   2.476  0.2708 -0.2039  0.0489
 9806TIP3    H153613   7.176   1.803   2.488  0.2745 -0.3444 -0.9205
 9806TIP3    H253614   7.302   1.885   2.471  0.1940 -0.3901 -1.7837
 9807TIP3   OH253615   5.218   1.258   0.723 -0.0598 -0.3849  0.3732
 9807TIP3    H153616   5.300   1.307   0.718 -0.4256  0.6365  3.0267
 9807TIP3    H253617   5.156   1.309   0.671  0.4215  0.0697  0.2409
 9808TIP3   OH253618   6.285   4.852   1.813 -0.3925 -0.7645 -0.0905
 9808TIP3    H153619   6.292   4.836   1.719 -1.6108 -0.7923 -0.1943
 9808TIP3    H253620   6.195   4.881   1.825  0.3520  1.3438  0.7810
 9809TIP3   OH253621   7.203   1.395   2.397  0.3632  0.0090  0.2899
 9809TIP3    H153622   7.296   1.398   2.418 -0.1232 -0.3635  2.7628
 9809TIP3    H253623   7.174   1.310   2.427 -0.2816 -1.1992 -3.2309
 9810TIP3   OH253624   2.162   0.521   1.347  0.1903  0.4191 -0.0382
 9810TIP3    H153625   2.128   0.483   1.267 -1.6060 -0.2243  0.9764
 9810TIP3    H253626   2.090   0.573   1.382  0.8440  0.4913  1.2784
 9811TIP3   OH253627   5.925   3.019   1.640 -0.3533 -0.5427  0.1409
 9811TIP3    H153628   5.932   3.114   1.635 -1.0635 -0.4811  0.2055
 9811TIP3    H253629   5.988   2.987   1.576 -0.1234 -0.0294  0.1064
 9812TIP3   OH253630   4.227   0.558   1.115 -0.2330  0.4173 -0.2664
 9812TIP3    H153631   4.299   0.508   1.154  0.9161  3.0655  1.2787
 9812TIP3    H253632   4.148   0.511   1.141  0.8050 -2.4522 -1.7997
 9813TIP3   OH253633   2.493   5.681   1.118  0.4328  0.2617 -0.1432
 9813TIP3    H153634   2.456   5.726   1.194 -2.4221  0.4545 -1.5032
 9813TIP3    H253635   2.518   5.595   1.151  1.9584  1.3154  1.5832
 9814TIP3   OH253636   5.559   4.918   0.933  0.2982  0.4529 -0.5528
 9814TIP3    H153637   5.500   4.978   0.978  0.6180  1.0447 -0.9201
 9814TIP3    H253638   5.571   4.846   0.995  0.8247  1.3066  0.3598
 9815TIP3   OH253639   0.483   2.482   0.956  0.2518 -0.4723  0.1098
 9815TIP3    H153640   0.390   2.505   0.962  0.2567 -0.4579  0.1283
 9815TIP3    H253641   0.529   2.556   0.994  0.4432  0.8546 -2.4793
 9816TIP3   OH253642   1.799   7.183   2.416 -0.3517 -0.4097  0.4225
 9816TIP3    H153643   1.847   7.106   2.447 -0.4474 -1.2599 -1.3764
 9816TIP3    H253644   1.860   7.256   2.428 -0.1722 -0.7732  1.9392
 9817TIP3   OH253645   5.058   6.486   2.378  0.0244  0.3926  0.2483
 9817TIP3    H153646   5.116   6.543   2.328  1.5674 -0.8762  0.5273
 9817TIP3    H253647   5.080   6.398   2.349 -0.8971 -0.2048  1.2840
 9818TIP3   OH253648   1.854   6.134   1.409 -0.8371  0.1837 -0.3649
 9818TIP3    H153649   1.928   6.076   1.392 -0.4847  0.4188  0.3034
 9818TIP3    H253650   1.860   6.202   1.343  0.3687  0.9643  0.5146
 9819TIP3   OH253651   6.491   1.697   0.969  0.3532 -0.1401 -0.3871
 9819TIP3    H153652   6.461   1.766   1.029 -0.5003 -0.9444  0.1314
 9819TIP3    H253653   6.485   1.737   0.882 -1.3805  0.0389 -0.2175
 9820TIP3   OH253654   2.728   6.175   0.830  0.6424  0.4211  0.3649
 9820TIP3    H153655   2.742   6.092   0.875 -1.3615 -2.1633 -3.2230
 9820TIP3    H253656   2.809   6.191   0.781  0.0306 -1.2364 -1.3228
 9821TIP3   OH253657   6.222   0.373   2.187  0.0536 -0.3661  0.4887
 9821TIP3    H153658   6.314   0.360   2.164  0.2736 -1.7694  1.9953
 9821TIP3    H253659   6.224   0.446   2.249  0.0392  0.1889 -0.1594
 9822TIP3   OH253660   4.640   5.692   0.797  0.0637  0.1943  0.0548
 9822TIP3    H153661   4.635   5.640   0.877  1.9605  0.3593  0.3369
 9822TIP3    H253662   4.668   5.630   0.730 -2.7443 -0.2346 -0.8563
 9823TIP3   OH253663   1.728   0.350   2.373  0.1535 -0.4385  0.1011
 9823TIP3    H153664   1.806   0.396   2.405  0.4013 -1.3664  0.8834
 9823TIP3    H253665   1.759   0.297   2.300  0.5067 -1.5953  1.0502
 9824TIP3   OH253666   5.556   2.191   1.502  0.0717  0.2615 -0.6609
 9824TIP3    H153667   5.617   2.169   1.431  1.1338  0.5179  0.1476
 9824TIP3    H253668   5.478   2.138   1.484  0.9656 -0.9537 -1.0862
 9825TIP3   OH253669   0.687   6.107   1.540 -0.8201  0.4565  0.8679
 9825TIP3    H153670   0.652   6.195   1.532 -1.2664  0.2653  0.6704
 9825TIP3    H253671   0.610   6.050   1.542 -0.5960 -0.2672 -2.8026
 9826TIP3   OH253672   7.675   5.247   2.757 -0.3156  0.3227  0.1916
 9826TIP3    H153673   7.704   5.332   2.721 -0.6690  1.1273  1.7212
 9826TIP3    H253674   7.754   5.193   2.756 -0.6731 -0.3663 -3.4393
 9827TIP3   OH253675   4.813   4.619   1.148  0.3497 -0.2970  0.1353
 9827TIP3    H153676   4.803   4.707   1.111  1.3599  0.1276  0.8179
 9827TIP3    H253677   4.724   4.587   1.158 -0.0179  0.4710 -0.5419
 9828TIP3   OH253678   6.963   2.871   1.072  0.1450 -0.7091 -0.0194
 9828TIP3    H153679   6.905   2.815   1.021 -0.4186  0.5166 -0.7748
 9828TIP3    H253680   6.916   2.954   1.081  0.7686 -0.4784  1.4465
 9829TIP3   OH253681   4.540   1.109   1.227  0.0366  0.8286 -0.1364
 9829TIP3    H153682   4.524   1.132   1.136  1.6829 -3.0771 -1.6541
 9829TIP3    H253683   4.623   1.150   1.249 -0.9989  2.8984  0.2055
 9830TIP3   OH253684   4.402   0.914   1.715  0.3150 -0.0414 -0.1374
 9830TIP3    H153685   4.465   0.963   1.662 -0.2092  0.9166  0.1072
 9830TIP3    H253686   4.326   0.904   1.658 -0.6436  1.8745  0.7252
 9831TIP3   OH253687   4.909   5.126   1.848 -0.0001 -0.1796  0.6260
 9831TIP3    H153688   4.945   5.089   1.928 -0.3056 -1.1567  0.3230
 9831TIP3    H253689   4.984   5.133   1.788  0.0083 -0.5624  0.5931
 9832TIP3   OH253690   7.128   1.403   3.155  0.9018  0.5909 -0.4182
 9832TIP3    H153691   7.159   1.363   3.236  1.5473  2.4704  0.3112
 9832TIP3    H253692   7.132   1.332   3.090  1.6649 -0.5892  0.8644
 9833TIP3   OH253693   4.360   0.512   2.231  0.4349  0.6059 -0.1109
 9833TIP3    H153694   4.272   0.542   2.254  0.1339 -1.0967  1.1276
 9833TIP3    H253695   4.362   0.517   2.135 -1.0129  0.7035 -0.1643
 9834TIP3   OH253696   2.900   1.494   1.569  0.4263  0.1660  0.1401
 9834TIP3    H153697   2.927   1.431   1.635 -2.2171 -1.5227 -0.2491
 9834TIP3    H253698   2.858   1.565   1.618 -1.2325 -0.9241  0.3635
 9835TIP3   OH253699   4.011   2.256   1.814 -0.1097 -0.1747  0.0579
 9835TIP3    H153700   3.945   2.325   1.823 -0.1144 -0.2381  0.5317
 9835TIP3    H253701   3.980   2.185   1.870 -0.9326 -1.2134 -1.6605
 9836TIP3   OH253702   3.805   1.792   0.954 -0.0607  0.0528  0.2886
 9836TIP3    H153703   3.760   1.750   1.027 -1.1033  1.5831  0.5770
 9836TIP3    H253704   3.896   1.797   0.982 -0.1702 -0.7306  0.8304
 9837TIP3   OH253705   3.914   2.127   3.178  0.5017 -0.4348 -0.1075
 9837TIP3    H153706   3.948   2.044   3.214  0.0801 -0.2177  0.8344
 9837TIP3    H253707   3.992   2.178   3.158  0.7621 -0.9285 -0.3958
 9838TIP3   OH253708   5.460   3.798   1.329 -1.0679 -0.3263 -0.2004
 9838TIP3    H153709   5.534   3.744   1.355  0.1421  1.2218 -0.2770
 9838TIP3    H253710   5.496   3.860   1.265 -2.3916  0.5642 -0.1340
 9839TIP3   OH253711   1.085   4.997   1.873  0.1770 -0.0780 -0.5868
 9839TIP3    H153712   1.027   5.006   1.948  0.1847 -2.7921 -0.1675
 9839TIP3    H253713   1.172   4.984   1.911  0.2688 -0.8825 -1.0446
 9840TIP3   OH253714   2.104   4.450   1.139  0.1053 -0.2236  0.3746
 9840TIP3    H153715   2.096   4.360   1.107 -0.0040  0.4131 -1.4812
 9840TIP3    H253716   2.019   4.489   1.120  1.0127  1.0152 -1.3113
 9841TIP3   OH253717   2.412   5.327   2.035 -0.1216  0.0170 -0.5542
 9841TIP3    H153718   2.457   5.254   1.993 -1.4251 -0.3914 -1.3023
 9841TIP3    H253719   2.477   5.364   2.095  0.9177 -1.0576 -0.9749
 9842TIP3   OH253720   7.120   2.790   2.639 -0.1195  0.0460  0.0794
 9842TIP3    H153721   7.162   2.862   2.592  0.2876 -1.1116 -1.4244
 9842TIP3    H253722   7.192   2.742   2.679 -0.4175  0.6573  1.4142
 9843TIP3   OH253723   2.601   0.398   0.946 -0.1434  0.1812  0.1482
 9843TIP3    H153724   2.687   0.359   0.956 -0.0078  0.7658  1.4726
 9843TIP3    H253725   2.615   0.492   0.955 -1.1284  0.1888  2.5674
 9844TIP3   OH253726   1.805   3.211   2.704  0.9374 -0.7060  0.5916
 9844TIP3    H153727   1.742   3.209   2.632  1.1368  2.3359  0.2003
 9844TIP3    H253728   1.751   3.209   2.783  0.2625  1.5566  0.2641
 9845TIP3   OH253729   7.334   6.387   2.560 -0.8123 -0.0622 -0.0124
 9845TIP3    H153730   7.361   6.297   2.545 -0.7037  0.0818 -0.7364
 9845TIP3    H253731   7.263   6.402   2.497 -1.1114  0.2311  0.3852
 9846TIP3   OH253732   0.812   5.065   3.206  0.2687  0.2629  0.3429
 9846TIP3    H153733   0.874   4.993   3.218  0.3033  0.4067  1.0675
 9846TIP3    H253734   0.753   5.034   3.137  0.6947 -0.1766  0.1698
 9847TIP3   OH253735   2.485   4.194   3.099  0.0559  0.8992 -0.8458
 9847TIP3    H153736   2.474   4.130   3.028 -3.0344 -0.5324  0.6937
 9847TIP3    H253737   2.432   4.269   3.072 -0.5785  0.6261 -0.3853
 9848TIP3   OH253738   3.524   0.199   1.327  0.0011  0.8417 -0.1846
 9848TIP3    H153739   3.613   0.221   1.355  0.4548 -1.0499 -0.0030
 9848TIP3    H253740   3.534   0.118   1.278 -1.7750 -0.1107  0.9207
 9849TIP3   OH253741   5.469   3.695   2.113 -0.0694  0.4414 -0.8295
 9849TIP3    H153742   5.433   3.683   2.026 -2.1416 -1.3843  0.1842
 9849TIP3    H253743   5.396   3.730   2.165  0.8883  0.7763  0.3489
 9850TIP3   OH253744   4.544   1.106   1.614 -0.0000  0.0162  0.1989
 9850TIP3    H153745   4.501   1.155   1.684  0.6139  0.6429  0.1580
 9850TIP3    H253746   4.530   1.160   1.536  0.4178 -0.0318  0.0903
 9851TIP3   OH253747   3.859   4.311   1.801 -0.4166 -0.4448  0.1185
 9851TIP3    H153748   3.881   4.290   1.892 -0.7556  0.3914  0.4064
 9851TIP3    H253749   3.787   4.374   1.808  2.0388  2.7440 -0.5570
 9852TIP3   OH253750   1.274   5.343   0.726 -0.3299 -0.3249 -0.2770
 9852TIP3    H153751   1.211   5.382   0.665  0.7856  1.4492 -0.3897
 9852TIP3    H253752   1.272   5.250   0.707 -0.8154  0.0425 -2.2964
 9853TIP3   OH253753   3.765   4.028   2.862  0.8478  0.4181  0.5303
 9853TIP3    H153754   3.735   4.036   2.952  0.9817  0.6856  0.5510
 9853TIP3    H253755   3.826   3.954   2.863  0.9717  0.5230  0.6907
 9854TIP3   OH253756   5.990   6.447   1.801  0.6199 -0.4026  0.7687
 9854TIP3    H153757   6.066   6.488   1.843 -0.1397 -0.2027  1.9752
 9854TIP3    H253758   6.025   6.365   1.765  2.0612  1.0013 -1.2819
 9855TIP3   OH253759   0.733   7.287   1.108  0.1480  0.5141  0.2528
 9855TIP3    H153760   0.819   7.316   1.077  0.8997 -2.8776 -1.2696
 9855TIP3    H253761   0.753   7.238   1.188 -0.5769  0.7680  0.5969
 9856TIP3   OH253762   4.387   3.679   2.628 -0.2328  0.2118 -0.1612
 9856TIP3    H153763   4.456   3.707   2.687 -0.3906  1.3561 -0.5035
 9856TIP3    H253764   4.411   3.589   2.604 -0.5279 -0.5444  2.1370
 9857TIP3   OH253765   2.398   4.443   1.936  0.2176  1.0166  0.0238
 9857TIP3    H153766   2.478   4.493   1.954  0.4841  0.4490  0.4440
 9857TIP3    H253767   2.328   4.508   1.941  0.6653  1.5562 -0.5275
 9858TIP3   OH253768   3.986   3.625   3.163 -0.0202 -0.1859  0.3343
 9858TIP3    H153769   4.077   3.607   3.136 -0.0849 -0.6655  0.4180
 9858TIP3    H253770   3.981   3.720   3.170  0.5520 -0.1693  0.5801
 9859TIP3   OH253771   2.408   6.827   1.713  0.4700  0.4258 -0.0714
 9859TIP3    H153772   2.319   6.860   1.727  0.4684 -0.0921  1.2983
 9859TIP3    H253773   2.437   6.871   1.634 -0.6587  1.3310 -0.0210
 9860TIP3   OH253774   5.502   4.278   2.287 -0.3724 -0.5779  0.0446
 9860TIP3    H153775   5.495   4.191   2.248  0.6696 -0.4779 -0.3920
 9860TIP3    H253776   5.453   4.335   2.227  0.6048 -0.5452 -0.7437
 9861TIP3   OH253777   4.780   6.631   3.013 -0.1188 -0.4880  0.2716
 9861TIP3    H153778   4.796   6.719   2.981 -1.2173  0.3541  1.9039
 9861TIP3    H253779   4.846   6.617   3.080 -0.9959 -0.2177  1.2144
 9862TIP3   OH253780   4.434   6.568   0.484 -0.2543  0.1211 -0.3436
 9862TIP3    H153781   4.406   6.477   0.492  0.7008 -0.2364 -0.9202
 9862TIP3    H253782   4.355   6.619   0.503 -0.5808 -0.8020  0.8786
 9863TIP3   OH253783   0.114   6.376   0.888 -0.2262  0.5029  0.5038
 9863TIP3    H153784   0.171   6.404   0.960 -0.1074  0.7639  0.3091
 9863TIP3    H253785   0.121   6.446   0.823  0.2001 -0.0514 -0.0627
 9864TIP3   OH253786   5.823   0.442   2.739 -0.2541 -0.0339  0.3446
 9864TIP3    H153787   5.737   0.463   2.703 -0.2273 -1.0821 -0.3655
 9864TIP3    H253788   5.853   0.524   2.779 -1.7907  0.2205  1.0493
 9865TIP3   OH253789   4.304   5.586   1.004 -0.4922 -0.1722  0.0513
 9865TIP3    H153790   4.266   5.597   1.091 -1.9149  0.2867 -0.6075
 9865TIP3    H253791   4.246   5.635   0.945  0.2965 -0.6786 -1.1968
 9866TIP3   OH253792   4.596   6.306   2.361 -0.0589  0.5032  0.2504
 9866TIP3    H153793   4.578   6.300   2.454 -0.1039  3.8683  0.5899
 9866TIP3    H253794   4.629   6.395   2.348  1.6288 -0.3840 -2.7061
 9867TIP3   OH253795   7.267   1.098   1.617 -0.3791  0.6575  0.8787
 9867TIP3    H153796   7.298   1.015   1.655  0.9389  1.1424  0.9106
 9867TIP3    H253797   7.290   1.164   1.682 -2.2809  0.9785  1.2933
 9868TIP3   OH253798   6.006   0.375   0.906  0.0682 -0.5298 -0.2522
 9868TIP3    H153799   6.040   0.448   0.956  0.4245 -0.5127 -0.5190
 9868TIP3    H253800   6.067   0.303   0.923 -0.6323 -0.9588  0.5231
 9869TIP3   OH253801   6.992   5.900   1.926 -0.2816 -0.2346  0.2030
 9869TIP3    H153802   7.056   5.939   1.987  0.4301  0.0437 -0.6883
 9869TIP3    H253803   6.998   5.806   1.942  0.2298 -0.1977  0.2529
 9870TIP3   OH253804   0.505   4.766   1.319 -0.0506 -0.2384 -0.0675
 9870TIP3    H153805   0.577   4.796   1.264  0.2163  1.4268  1.1242
 9870TIP3    H253806   0.427   4.804   1.279  0.1726  1.2119  0.8099
 9871TIP3   OH253807   1.464   6.207   2.568 -0.2654 -0.1551 -0.0424
 9871TIP3    H153808   1.408   6.148   2.619 -0.7895  0.9598  0.7043
 9871TIP3    H253809   1.408   6.283   2.550  0.1021 -0.2417 -1.7656
 9872TIP3   OH253810   2.196   2.791   1.639 -0.4531 -0.1565 -0.0127
 9872TIP3    H153811   2.186   2.700   1.666  0.1678  0.0187  0.8297
 9872TIP3    H253812   2.255   2.788   1.564  0.3166 -0.3756  0.5881
 9873TIP3   OH253813   0.883   4.252   2.737 -0.3095  0.2267  0.2226
 9873TIP3    H153814   0.825   4.324   2.712 -0.2565  0.6845  1.3484
 9873TIP3    H253815   0.939   4.238   2.660 -0.3109  1.4022 -0.0045
 9874TIP3   OH253816   5.152   2.102   1.454 -0.1441 -0.6061  0.0797
 9874TIP3    H153817   5.081   2.147   1.500 -0.4809  0.9060 -1.7889
 9874TIP3    H253818   5.169   2.157   1.377  2.2866 -1.5279 -0.1240
 9875TIP3   OH253819   1.587   2.223   3.052 -0.0579 -0.1901  0.1635
 9875TIP3    H153820   1.502   2.185   3.073  0.1146  0.3214  1.8910
 9875TIP3    H253821   1.651   2.157   3.080  0.1522 -0.1693 -0.2492
 9876TIP3   OH253822   0.455   2.121   0.922 -0.1433 -0.1760 -0.5279
 9876TIP3    H153823   0.531   2.149   0.871 -0.2521  1.0663 -0.0411
 9876TIP3    H253824   0.402   2.200   0.931 -1.0953 -0.8405 -0.1646
 9877TIP3   OH253825   5.414   5.828   1.012  0.3883 -0.2191 -0.5975
 9877TIP3    H153826   5.465   5.903   0.983  0.6224 -0.2404 -0.2418
 9877TIP3    H253827   5.463   5.752   0.981  0.8412 -0.2520  0.1641
 9878TIP3   OH253828   3.437   4.276   3.180  0.1877 -0.4268  0.0107
 9878TIP3    H153829   3.398   4.355   3.217  2.0134  0.2921  0.5193
 9878TIP3    H253830   3.362   4.223   3.151 -1.1134  0.9713  0.6879
 9879TIP3   OH253831   3.398   5.065   2.207 -0.1290 -0.3047  0.1525
 9879TIP3    H153832   3.403   4.974   2.239 -1.3097 -0.2084  0.6607
 9879TIP3    H253833   3.331   5.062   2.139  0.9318 -0.0996 -0.9246
 9880TIP3   OH253834   2.589   4.707   0.716 -0.2844 -0.0405 -0.1572
 9880TIP3    H153835   2.496   4.687   0.700 -0.2974 -1.2485  1.1718
 9880TIP3    H253836   2.597   4.800   0.697 -1.9828  0.2998  0.5382
 9881TIP3   OH253837   6.981   2.722   2.153  0.1229  0.9184 -0.1978
 9881TIP3    H153838   6.903   2.701   2.101 -0.2001  0.9048  0.2882
 9881TIP3    H253839   6.985   2.818   2.151 -0.9612  1.0348  1.2755
 9882TIP3   OH253840   3.573   5.311   1.596  0.6792 -0.2864  0.2400
 9882TIP3    H153841   3.653   5.319   1.544  0.0082 -2.0097 -1.1621
 9882TIP3    H253842   3.578   5.384   1.658  2.5248  0.6370 -0.8820
 9883TIP3   OH253843   2.183   6.376   1.758  0.0658 -0.6678 -0.8416
 9883TIP3    H153844   2.244   6.450   1.749 -0.9263 -0.0135 -2.9485
 9883TIP3    H253845   2.238   6.299   1.742  0.5018 -0.1338 -2.0570
 9884TIP3   OH253846   1.518   3.296   3.086 -0.1146  0.2126  0.4196
 9884TIP3    H153847   1.534   3.240   3.010 -0.4279  0.2511  0.3243
 9884TIP3    H253848   1.537   3.240   3.162  0.2988  0.2072  0.3102
 9885TIP3   OH253849   1.012   4.125   1.922 -0.3616  0.2543 -0.2266
 9885TIP3    H153850   1.007   4.126   2.018  0.1243 -2.3142 -0.0835
 9885TIP3    H253851   0.933   4.169   1.893 -0.8521  0.4927  1.3741
 9886TIP3   OH253852   4.475   3.490   2.375 -0.2236  0.3400  0.7856
 9886TIP3    H153853   4.457   3.443   2.293 -2.2396  1.9172  0.2586
 9886TIP3    H253854   4.557   3.452   2.406  0.3045 -0.7144 -1.6606
 9887TIP3   OH253855   1.256   0.429   0.507  0.4344  0.0830 -0.1569
 9887TIP3    H153856   1.341   0.385   0.515  0.2051 -0.1419  1.3040
 9887TIP3    H253857   1.198   0.381   0.566 -0.6175  0.4814 -0.8276
 9888TIP3   OH253858   0.333   6.860   1.352  0.5623  0.7264 -0.1661
 9888TIP3    H153859   0.428   6.862   1.362  0.4740  1.1441  0.6899
 9888TIP3    H253860   0.300   6.916   1.423 -0.2340  2.0831 -1.5536
 9889TIP3   OH253861   4.027   5.426   3.211 -0.3952 -0.6359 -0.5652
 9889TIP3    H153862   3.985   5.367   3.147  0.3766  1.4621 -3.2140
 9889TIP3    H253863   3.955   5.478   3.246 -1.0039 -2.6359  1.3749
 9890TIP3   OH253864   2.074   6.562   1.148  0.2779  0.0151 -0.0169
 9890TIP3    H153865   2.111   6.645   1.117 -1.1808  0.6060 -0.2528
 9890TIP3    H253866   1.991   6.553   1.100 -1.1986  0.0668  2.3671
 9891TIP3   OH253867   3.956   2.489   1.106  0.4548 -0.6811  0.0347
 9891TIP3    H153868   3.869   2.457   1.084  0.7168 -1.4613  0.1085
 9891TIP3    H253869   3.950   2.514   1.198  0.4104 -1.1078  0.1503
 9892TIP3   OH253870   2.042   2.975   0.971  0.3497 -0.5957  0.5850
 9892TIP3    H153871   2.098   2.946   0.899  2.1756  0.0334  1.6699
 9892TIP3    H253872   2.104   3.009   1.036 -1.3863  1.1109  1.4181
 9893TIP3   OH253873   3.661   3.787   2.365 -0.3012  0.5597 -0.7155
 9893TIP3    H153874   3.740   3.740   2.339 -0.0982  0.0660  0.7046
 9893TIP3    H253875   3.690   3.875   2.385 -0.3799  0.8060 -1.6330
 9894TIP3   OH253876   0.294   5.513   1.471  0.1998  0.2322  0.4826
 9894TIP3    H153877   0.198   5.510   1.470  0.1533  0.9717 -1.7817
 9894TIP3    H253878   0.315   5.598   1.432  1.7954 -0.3744 -0.0210
 9895TIP3   OH253879   4.088   7.223   2.534  0.6680 -0.3968  0.2105
 9895TIP3    H153880   4.021   7.261   2.592  0.4751 -0.2757 -0.0878
 9895TIP3    H253881   4.163   7.281   2.542  1.1103 -1.0801  1.3194
 9896TIP3   OH253882   2.438   3.876   1.147  0.0994  0.3699 -0.2726
 9896TIP3    H153883   2.523   3.838   1.168 -0.3953 -0.1601  0.8645
 9896TIP3    H253884   2.375   3.806   1.166 -0.8886  1.8852  2.4956
 9897TIP3   OH253885   4.981   2.805   2.372  0.2637  0.1130 -0.3101
 9897TIP3    H153886   4.954   2.816   2.463 -0.3695  2.8595 -0.7354
 9897TIP3    H253887   5.052   2.867   2.360  0.1432  0.0111 -1.7519
 9898TIP3   OH253888   3.977   0.902   1.285 -0.3541 -0.2614  0.7636
 9898TIP3    H153889   3.963   0.829   1.345 -0.0260 -1.3852 -0.4791
 9898TIP3    H253890   3.902   0.900   1.226 -0.6186  0.7676  1.0338
 9899TIP3   OH253891   5.028   4.284   1.329  0.7593 -0.2301 -0.2314
 9899TIP3    H153892   5.048   4.371   1.294  1.8698 -0.2209  0.3793
 9899TIP3    H253893   5.020   4.228   1.252  1.1115  0.1940 -0.5776
 9900TIP3   OH253894   7.548   5.391   1.994 -0.2902 -0.2901 -0.2676
 9900TIP3    H153895   7.609   5.321   1.971 -0.3243 -0.5423  0.3911
 9900TIP3    H253896   7.604   5.461   2.028 -0.2066  0.2240 -1.4044
 9901TIP3   OH253897   4.060   2.232   1.015  0.4248  0.0387  0.4228
 9901TIP3    H153898   4.029   2.323   1.019  1.0268  0.2596  0.2421
 9901TIP3    H253899   3.993   2.182   1.060  0.6744  0.7354  1.6248
 9902TIP3   OH253900   1.941   0.750   1.544 -0.2124 -0.8133  0.2955
 9902TIP3    H153901   1.956   0.755   1.638 -0.0260 -0.6573  0.2580
 9902TIP3    H253902   1.845   0.745   1.535 -0.2827  0.0221  0.4627
 9903TIP3   OH253903   6.710   5.201   2.026  0.0965  0.1501 -0.2437
 9903TIP3    H153904   6.781   5.237   2.080  1.9711 -0.8986 -1.8824
 9903TIP3    H253905   6.667   5.278   1.989  0.0336  0.8175  1.1486
 9904TIP3   OH253906   5.754   6.815   2.668  0.2555  0.6902 -0.2499
 9904TIP3    H153907   5.843   6.837   2.642  0.9222  0.6361  1.8227
 9904TIP3    H253908   5.729   6.883   2.730 -1.8254  1.6575 -1.9993
 9905TIP3   OH253909   2.482   0.955   1.828  0.0115 -0.5313 -0.3658
 9905TIP3    H153910   2.394   0.928   1.852 -1.0247  2.1211 -0.8896
 9905TIP3    H253911   2.515   0.883   1.774 -1.1513 -2.3198  1.1745
 9906TIP3   OH253912   7.018   4.523   1.320  0.0582 -0.6016 -0.1088
 9906TIP3    H153913   6.989   4.574   1.245 -1.1782  1.0977  1.4404
 9906TIP3    H253914   7.032   4.435   1.285 -0.6294  0.0794 -2.2706
 9907TIP3   OH253915   5.153   3.112   1.980  0.1708 -0.0740 -0.1493
 9907TIP3    H153916   5.131   3.111   1.887 -0.3572 -0.6008 -0.0217
 9907TIP3    H253917   5.248   3.104   1.982  0.2230  0.3598 -0.6536
 9908TIP3   OH253918   2.336   5.851   0.976  0.6705 -0.1320 -0.7171
 9908TIP3    H153919   2.384   5.934   0.979  1.3318 -0.5312  1.6933
 9908TIP3    H253920   2.393   5.788   1.020 -2.2326 -0.4538  3.1301
 9909TIP3   OH253921   5.410   1.450   1.266 -0.3593 -0.2877 -0.4212
 9909TIP3    H153922   5.430   1.381   1.329 -0.2182  1.2026  1.2383
 9909TIP3    H253923   5.378   1.523   1.320 -4.2043 -0.3017 -2.3557
 9910TIP3   OH253924   3.617   2.364   0.681 -0.1305 -0.2576 -0.1570
 9910TIP3    H153925   3.677   2.386   0.611  0.6064  0.3749  0.6435
 9910TIP3    H253926   3.566   2.444   0.695  0.6958  0.1077  0.9492
 9911TIP3   OH253927   2.258   4.962   1.981  0.2358 -0.3589  0.1790
 9911TIP3    H153928   2.253   5.016   1.902 -1.0706 -0.5732  0.0874
 9911TIP3    H253929   2.166   4.944   2.003  0.6226 -1.6740  0.8059
 9912TIP3   OH253930   0.346   4.954   1.509  0.2365 -0.3281 -0.5385
 9912TIP3    H153931   0.382   4.902   1.437  0.9283  0.9011 -1.1090
 9912TIP3    H253932   0.385   5.041   1.498  0.0092  0.0071  1.0696
 9913TIP3   OH253933   0.914   7.670   1.044 -0.4670 -0.8512 -0.4395
 9913TIP3    H153934   0.969   7.697   0.970 -0.8049 -0.0171 -0.4012
 9913TIP3    H253935   0.830   7.647   1.004 -1.1316  1.0016 -0.2127
 9914TIP3   OH253936   3.311   0.293   1.533  0.3498 -0.0324  0.7503
 9914TIP3    H153937   3.262   0.227   1.484  1.1528  2.1963 -3.5834
 9914TIP3    H253938   3.403   0.272   1.514  0.7719  0.2944  2.3335
 9915TIP3   OH253939   6.903   3.541   2.914 -0.1749 -0.8101 -0.2123
 9915TIP3    H153940   6.964   3.607   2.946  0.4681 -0.4966 -1.9393
 9915TIP3    H253941   6.959   3.466   2.891 -0.4640 -0.6967 -1.3628
 9916TIP3   OH253942   4.391   6.298   2.807  0.1293 -0.3791  0.7282
 9916TIP3    H153943   4.465   6.271   2.752 -0.9651  0.4184 -1.2265
 9916TIP3    H253944   4.410   6.389   2.829 -0.2028 -0.2042  0.3060
 9917TIP3   OH253945   7.107   5.742   2.892 -0.1950  0.3828  0.0828
 9917TIP3    H153946   7.159   5.785   2.824 -0.7381 -1.0114 -1.2662
 9917TIP3    H253947   7.047   5.810   2.922  0.2048  1.0950 -0.6643
 9918TIP3   OH253948   3.701   2.509   1.625 -0.0255 -0.1565  0.9608
 9918TIP3    H153949   3.743   2.476   1.704  0.1038 -0.5227  0.7440
 9918TIP3    H253950   3.644   2.579   1.655 -1.3385 -1.4676  1.6104
 9919TIP3   OH253951   6.878   4.434   1.666  0.1134  0.4078  0.5053
 9919TIP3    H153952   6.845   4.353   1.627 -3.2012  1.9359 -0.2409
 9919TIP3    H253953   6.857   4.425   1.759 -0.4661  0.5173  0.3848
 9920TIP3   OH253954   7.176   7.226   2.687  0.3039 -0.0053  0.3520
 9920TIP3    H153955   7.111   7.169   2.727 -0.3535 -0.2198 -0.9565
 9920TIP3    H253956   7.184   7.300   2.747 -1.5106  0.2639  0.3159
 9921TIP3   OH253957   7.219   7.438   2.854  0.3524 -0.4971  0.6015
 9921TIP3    H153958   7.196   7.529   2.838  0.1157 -0.3544  1.6582
 9921TIP3    H253959   7.256   7.438   2.942  0.8387 -1.3417  0.4064
 9922TIP3   OH253960   4.348   4.071   1.510 -0.4145  0.5979 -0.0137
 9922TIP3    H153961   4.304   4.156   1.501 -0.2170  0.7684  0.5709
 9922TIP3    H253962   4.399   4.079   1.591 -1.7912 -0.6937  1.0332
 9923TIP3   OH253963   1.199   6.297   0.762  0.0582  0.1422 -0.2739
 9923TIP3    H153964   1.204   6.208   0.797  2.4442  0.1874 -0.3556
 9923TIP3    H253965   1.126   6.337   0.808  0.3018 -1.1963  1.3658
 9924TIP3   OH253966   5.261   5.800   1.675 -0.8570 -0.0615  0.2376
 9924TIP3    H153967   5.332   5.824   1.615  0.4178 -0.7358  1.4347
 9924TIP3    H253968   5.199   5.752   1.620 -0.6996  1.0351 -0.9560
 9925TIP3   OH253969   1.895   3.647   2.455  0.4216 -0.0347 -0.2246
 9925TIP3    H153970   1.863   3.717   2.397  1.6791 -1.1860 -2.4594
 9925TIP3    H253971   1.854   3.568   2.421  0.4343 -0.6285  1.1188
 9926TIP3   OH253972   3.145   4.901   1.789 -0.3391  0.1699 -0.2312
 9926TIP3    H153973   3.085   4.857   1.850 -0.0820  0.1301 -0.0070
 9926TIP3    H253974   3.133   4.855   1.706 -1.0435  0.5311 -0.3397
 9927TIP3   OH253975   4.262   5.337   2.543  0.2243  0.3566  0.0739
 9927TIP3    H153976   4.225   5.299   2.623  0.0900 -0.6210 -0.4264
 9927TIP3    H253977   4.273   5.430   2.563 -0.3313  0.2347  1.0302
 9928TIP3   OH253978   0.259   6.644   2.548  0.2842 -0.1078  0.0057
 9928TIP3    H153979   0.300   6.596   2.619  0.6261 -0.8445 -0.6814
 9928TIP3    H253980   0.265   6.736   2.575 -0.9031 -0.4434  1.6056
 9929TIP3   OH253981   1.599   7.270   3.317  0.4058 -0.1270  0.1087
 9929TIP3    H153982   1.569   7.182   3.294  0.7487 -0.0860 -0.5047
 9929TIP3    H253983   1.654   7.297   3.244 -0.0649  0.7850  0.0729
 9930TIP3   OH253984   3.121   1.351   1.412 -0.7956 -0.0469 -0.3011
 9930TIP3    H153985   3.035   1.388   1.432  0.0670  1.3573  1.0826
 9930TIP3    H253986   3.148   1.307   1.492  0.5605  1.1930 -0.0247
 9931TIP3   OH253987   1.441   3.566   0.920 -0.2921 -0.3081  0.2241
 9931TIP3    H153988   1.389   3.494   0.955 -0.2996 -0.9073 -0.9625
 9931TIP3    H253989   1.502   3.524   0.859 -1.1676  0.7908 -1.5001
 9932TIP3   OH253990   7.336   3.840   2.087  0.1855 -0.2405  0.1099
 9932TIP3    H153991   7.382   3.774   2.035 -2.0305 -0.9343 -1.1039
 9932TIP3    H253992   7.252   3.799   2.108 -0.8706  1.8366  0.1511
 9933TIP3   OH253993   0.389   4.173   1.604 -0.1162  0.8386  0.6426
 9933TIP3    H153994   0.303   4.215   1.606 -0.3535  0.4996 -1.0979
 9933TIP3    H253995   0.369   4.079   1.597  0.3833  0.8054 -0.3977
 9934TIP3   OH253996   7.179   6.085   2.746  0.0290  0.1367  0.3345
 9934TIP3    H153997   7.091   6.090   2.710 -0.8376 -2.5676  1.8412
 9934TIP3    H253998   7.171   6.120   2.835  0.4917 -0.1040  0.4748
 9935TIP3   OH253999   2.516   5.475   1.464  0.2230  0.8368  0.3742
 9935TIP3    H154000   2.574   5.548   1.485  2.1425 -0.5142  0.0239
 9935TIP3    H254001   2.548   5.442   1.380  0.7329 -1.6494  1.4608
 9936TIP3   OH254002   4.674   5.921   1.769 -0.4587  0.5045 -0.5476
 9936TIP3    H154003   4.652   5.965   1.852 -0.5933 -0.0850 -0.2669
 9936TIP3    H254004   4.767   5.902   1.776 -0.0880  1.9399 -1.2393
 9937TIP3   OH254005   1.918   5.648   1.986 -0.0361 -0.4526 -0.2635
 9937TIP3    H154006   1.823   5.637   1.989 -0.2187  0.7734 -0.9716
 9937TIP3    H254007   1.950   5.571   1.939 -0.5839 -1.2448  0.6202
 9938TIP3   OH254008   1.522   4.701   3.485 -0.2564  0.1043  0.5927
 9938TIP3    H154009   1.544   4.794   3.489 -1.8138  0.5088  0.4049
 9938TIP3    H254010   1.597   4.657   3.525  0.6782  1.3998  0.3246
 9939TIP3   OH254011   4.450   6.716   1.639  0.3607 -0.2776 -0.3686
 9939TIP3    H154012   4.368   6.766   1.637  1.3016  1.3510  0.2078
 9939TIP3    H254013   4.422   6.625   1.635 -1.4215  0.2699 -1.4838
 9940TIP3   OH254014   3.172   2.480   2.144  1.2217  0.4794  0.5830
 9940TIP3    H154015   3.138   2.560   2.184  1.6435  0.4589  0.9854
 9940TIP3    H254016   3.218   2.435   2.214  1.1210 -0.0426  0.3173
 9941TIP3   OH254017   2.766   3.036   2.393  0.2104  0.7071 -0.5071
 9941TIP3    H154018   2.708   3.030   2.469  0.1020  0.0383 -0.6339
 9941TIP3    H254019   2.707   3.060   2.321  0.3109  1.3274 -0.3861
 9942TIP3   OH254020   2.153   0.487   2.217  0.1454  0.4046 -0.5897
 9942TIP3    H154021   2.131   0.580   2.209  0.6327  0.7863  1.6510
 9942TIP3    H254022   2.248   0.485   2.208  0.4520  0.5610  1.9863
 9943TIP3   OH254023   7.273   7.554   3.142  0.5617  0.3322  0.0100
 9943TIP3    H154024   7.184   7.535   3.170  0.8429 -1.1048  0.0123
 9943TIP3    H254025   7.326   7.546   3.222  0.8755 -0.1582 -0.2454
 9944TIP3   OH254026   5.429   7.512   2.120  0.0460 -0.4426 -0.6632
 9944TIP3    H154027   5.503   7.545   2.170  0.7385 -0.9404 -1.3292
 9944TIP3    H254028   5.462   7.505   2.030 -1.0233 -0.0087 -1.1147
 9945TIP3   OH254029   4.722   0.244   0.965 -0.3945 -0.2288  0.2752
 9945TIP3    H154030   4.807   0.225   1.005 -0.7025  0.5399  1.3437
 9945TIP3    H254031   4.669   0.167   0.983 -0.1653 -0.3771  0.3114
 9946TIP3   OH254032   6.975   4.490   2.502  0.3010  0.6067  0.1590
 9946TIP3    H154033   7.033   4.448   2.567  3.6978  1.6536 -1.9240
 9946TIP3    H254034   6.956   4.420   2.439  0.7190  0.6515 -0.0214
 9947TIP3   OH254035   6.545   2.223   2.435 -0.0139 -0.2076 -0.3099
 9947TIP3    H154036   6.556   2.307   2.390 -0.9834 -0.2032 -0.5536
 9947TIP3    H254037   6.491   2.171   2.376 -1.0893 -0.2929  0.7255
 9948TIP3   OH254038   0.308   1.270   0.533  0.6060  0.1417  0.3157
 9948TIP3    H154039   0.366   1.197   0.508 -0.2065 -0.2703 -0.4202
 9948TIP3    H254040   0.227   1.253   0.485  0.0968  1.0603  0.8360
 9949TIP3   OH254041   6.291   2.912   2.154  0.2276  0.1022  0.3199
 9949TIP3    H154042   6.240   2.992   2.138  1.1804  0.9195  1.2068
 9949TIP3    H254043   6.293   2.868   2.069 -0.6787  0.7942 -0.0909
 9950TIP3   OH254044   1.102   0.654   2.216  0.0523  0.6118  0.7837
 9950TIP3    H154045   1.112   0.749   2.216  0.4556  0.5692  0.3519
 9950TIP3    H254046   1.068   0.634   2.304 -0.2208  1.1697  0.8072
 9951TIP3   OH254047   3.425   2.097   1.367  0.0432 -0.8550  0.8977
 9951TIP3    H154048   3.385   2.070   1.285  1.9872  0.5104 -0.5832
 9951TIP3    H254049   3.352   2.105   1.428 -1.9313  1.0463 -1.5082
 9952TIP3   OH254050   0.919   6.102   1.872 -0.4037  0.1816  0.6444
 9952TIP3    H154051   0.962   6.018   1.893 -1.6473 -0.3528  1.1608
 9952TIP3    H254052   0.867   6.122   1.950  1.8136  2.7643  1.5946
 9953TIP3   OH254053   2.035   2.004   1.187  0.2762 -0.3619 -0.1847
 9953TIP3    H154054   1.994   2.042   1.264  0.7287 -0.0804 -0.0846
 9953TIP3    H254055   2.055   1.914   1.212 -0.3920 -0.5470 -0.2778
 9954TIP3   OH254056   1.249   0.996   2.582  0.1590 -0.5662  0.2545
 9954TIP3    H154057   1.207   0.991   2.668 -0.2236 -1.0642  0.0455
 9954TIP3    H254058   1.342   0.982   2.600  0.2189  0.2675  0.6889
 9955TIP3   OH254059   0.441   0.254   0.600 -0.2847 -0.1863  0.0119
 9955TIP3    H154060   0.484   0.338   0.585  1.6578 -0.9229  1.1498
 9955TIP3    H254061   0.511   0.189   0.596 -0.9168 -1.3050  3.3752
 9956TIP3   OH254062   1.869   4.830   2.236 -0.8943  0.6815 -0.1389
 9956TIP3    H154063   1.796   4.818   2.297 -0.2413 -1.7754  0.2705
 9956TIP3    H254064   1.912   4.910   2.266 -1.8472  0.7018  1.3028
 9957TIP3   OH254065   1.268   3.195   0.989  0.7330 -0.4605 -0.1923
 9957TIP3    H154066   1.293   3.168   0.900 -3.1478 -0.6318 -1.4302
 9957TIP3    H254067   1.225   3.280   0.977  1.6008  0.3436  1.8553
 9958TIP3   OH254068   0.105   4.184   1.875 -0.0587 -0.0725 -0.4502
 9958TIP3    H154069   0.082   4.215   1.962 -0.6810  0.3811 -0.7708
 9958TIP3    H254070   0.201   4.181   1.875 -0.0345  0.6618 -0.0047
 9959TIP3   OH254071   2.369   1.014   0.567 -0.2318  0.2323  0.4116
 9959TIP3    H154072   2.295   0.961   0.538  0.0628 -1.5518  2.6458
 9959TIP3    H254073   2.331   1.101   0.582 -1.6970 -0.4200  0.6765
 9960TIP3   OH254074   4.038   4.613   0.568 -0.3731 -0.4517  0.2610
 9960TIP3    H154075   4.042   4.704   0.538 -2.1074  0.0996  1.5283
 9960TIP3    H254076   4.095   4.611   0.646  0.3681 -0.7028 -0.2718
 9961TIP3   OH254077   0.564   0.920   1.453 -0.4183  0.4782  0.4259
 9961TIP3    H154078   0.652   0.885   1.455 -0.7679 -0.3917  1.3717
 9961TIP3    H254079   0.575   1.013   1.475  0.1593  0.1213  1.7552
 9962TIP3   OH254080   1.059   0.562   1.201 -0.3155 -0.0701  0.8624
 9962TIP3    H154081   0.967   0.581   1.219 -0.4095 -0.5045  0.8475
 9962TIP3    H254082   1.063   0.467   1.189 -0.1457  0.1116 -0.7260
 9963TIP3   OH254083   6.413   6.403   2.232 -0.3000  0.5486 -0.5048
 9963TIP3    H154084   6.421   6.497   2.246 -1.1582  0.4866  0.5802
 9963TIP3    H254085   6.331   6.393   2.184 -0.3973  0.3355 -0.2960
 9964TIP3   OH254086   2.506   1.812   1.848  0.2578 -0.5818  0.5839
 9964TIP3    H154087   2.576   1.773   1.795  1.0607  1.4770  0.0119
 9964TIP3    H254088   2.548   1.831   1.933  0.6081  1.1243  0.0716
 9965TIP3   OH254089   0.544   4.725   2.039  0.0052  0.0857  0.2134
 9965TIP3    H154090   0.474   4.768   2.088 -0.7941 -1.1027  0.1616
 9965TIP3    H254091   0.615   4.714   2.102 -1.2071 -1.9303  1.3397
 9966TIP3   OH254092   6.444   2.824   2.576  0.2440  0.3008  0.2751
 9966TIP3    H154093   6.366   2.791   2.531  1.0866  1.1072 -1.9010
 9966TIP3    H254094   6.513   2.763   2.553  0.6214  0.5079  0.8324
 9967TIP3   OH254095   6.219   4.310   2.608 -0.0214 -0.3620 -0.0219
 9967TIP3    H154096   6.270   4.299   2.528  0.2873  0.3562  0.0653
 9967TIP3    H254097   6.283   4.338   2.674 -0.3237 -0.6359  0.3986
 9968TIP3   OH254098   0.633   6.539   2.569  0.0465 -0.4027  0.6147
 9968TIP3    H154099   0.562   6.561   2.629 -0.3809 -2.1733  0.8068
 9968TIP3    H254100   0.682   6.471   2.613  0.1027 -1.2961 -0.7538
 9969TIP3   OH254101   6.698   3.054   1.503  0.1311 -0.1219  0.0709
 9969TIP3    H154102   6.671   2.972   1.462  0.8391 -1.2597  1.7795
 9969TIP3    H254103   6.754   3.096   1.438 -1.0870 -0.4520 -1.2426
 9970TIP3   OH254104   3.552   3.850   1.278  0.7177 -0.0912  0.3144
 9970TIP3    H154105   3.520   3.913   1.214  1.2161 -1.1224 -1.0077
 9970TIP3    H254106   3.631   3.890   1.313 -0.2840  1.0918  1.3363
 9971TIP3   OH254107   2.037   2.061   2.224 -0.1222  0.6649  0.1550
 9971TIP3    H154108   2.024   2.126   2.293 -0.0058 -0.5181  1.3336
 9971TIP3    H254109   2.128   2.071   2.199 -0.0354  0.7989  0.5128
 9972TIP3   OH254110   1.261   5.471   2.946 -0.2095  0.0563 -0.4599
 9972TIP3    H154111   1.343   5.471   2.995 -0.0248 -0.8365 -0.7479
 9972TIP3    H254112   1.283   5.429   2.863 -0.6365  1.1043 -1.1106
 9973TIP3   OH254113   1.166   5.466   0.952  0.0784 -0.0322  0.2519
 9973TIP3    H154114   1.213   5.439   0.873  0.4713  0.2113  0.3998
 9973TIP3    H254115   1.095   5.522   0.919 -0.6652 -1.1286 -0.0450
 9974TIP3   OH254116   1.022   3.506   3.047  0.1990  0.2830  0.0427
 9974TIP3    H154117   1.113   3.478   3.047  0.2153  0.3306 -0.3921
 9974TIP3    H254118   1.013   3.559   3.127  0.1540 -0.9779  0.9037
 9975TIP3   OH254119   6.270   2.674   2.382  0.1085  0.6140 -0.1421
 9975TIP3    H154120   6.196   2.725   2.415  0.7896  1.2741  0.4101
 9975TIP3    H254121   6.235   2.625   2.307 -1.5300 -1.1325  1.6810
 9976TIP3   OH254122   7.254   5.878   0.780 -0.5901  0.5400  0.0796
 9976TIP3    H154123   7.348   5.857   0.782 -0.3243  1.6766 -0.1846
 9976TIP3    H254124   7.243   5.935   0.704 -1.6947 -0.4045 -0.5200
 9977TIP3   OH254125   2.693   4.142   1.079 -0.1865 -0.3304 -0.2115
 9977TIP3    H154126   2.725   4.225   1.045  0.7927 -0.9959 -0.9534
 9977TIP3    H254127   2.711   4.146   1.173 -0.3075  0.3607 -0.2155
 9978TIP3   OH254128   3.355   1.212   1.787  0.3508  0.3543 -0.0445
 9978TIP3    H154129   3.305   1.235   1.866 -1.0687  0.3693 -0.9115
 9978TIP3    H254130   3.417   1.284   1.776  1.0038  0.0460  1.3950
 9979TIP3   OH254131   3.871   1.815   1.442  0.0897 -0.0026 -0.6877
 9979TIP3    H154132   3.854   1.737   1.496  0.2811 -0.5763 -1.4339
 9979TIP3    H254133   3.790   1.866   1.446  0.5142  0.6180  1.1673
 9980TIP3   OH254134   4.956   5.453   1.767  0.2496  0.2485 -0.3980
 9980TIP3    H154135   5.018   5.392   1.808 -2.6118 -0.1752  4.0407
 9980TIP3    H254136   4.990   5.539   1.790  1.0080  0.1729 -1.1738
 9981TIP3   OH254137   1.718   1.796   0.441  0.4309 -0.4744 -0.1676
 9981TIP3    H154138   1.811   1.798   0.416  0.7311  0.5921  0.9284
 9981TIP3    H254139   1.713   1.734   0.513  0.3832 -0.1960  0.0721
 9982TIP3   OH254140   7.090   5.654   2.283  0.2149  0.0629  0.2332
 9982TIP3    H154141   7.133   5.614   2.359 -0.0197  0.2548  0.4647
 9982TIP3    H254142   7.059   5.739   2.314  2.0469  1.1192 -0.6527
 9983TIP3   OH254143   3.344   4.767   1.415 -0.2174 -0.8432  0.6533
 9983TIP3    H154144   3.262   4.728   1.385  0.9101 -1.2603 -2.1756
 9983TIP3    H254145   3.400   4.693   1.438 -0.0715 -0.6371  0.9781
 9984TIP3   OH254146   7.482   1.846   0.864 -0.3034  0.0255  0.2979
 9984TIP3    H154147   7.556   1.787   0.870 -0.4757 -0.4154 -1.5300
 9984TIP3    H254148   7.516   1.930   0.895  0.6822 -0.3836  0.3556
 9985TIP3   OH254149   7.344   1.505   0.747  0.0985 -0.2526  0.0012
 9985TIP3    H154150   7.435   1.500   0.775  0.1174  0.7824  0.1438
 9985TIP3    H254151   7.314   1.591   0.775 -0.6350 -0.1913 -0.9102
 9986TIP3   OH254152   0.077   5.018   1.526 -0.0287  0.0161 -0.6968
 9986TIP3    H154153   0.165   4.983   1.509  0.1062  0.0902 -0.1828
 9986TIP3    H254154   0.093   5.090   1.588 -0.7812 -2.3968  2.5791
 9987TIP3   OH254155   6.868   7.270   0.970 -0.7120  0.2472  0.1000
 9987TIP3    H154156   6.894   7.362   0.973  0.3734  0.1286 -2.5651
 9987TIP3    H254157   6.785   7.270   0.922 -0.4664 -0.1998 -0.3311
 9988TIP3   OH254158   6.373   0.334   2.671 -0.1913 -0.1024  0.1797
 9988TIP3    H154159   6.377   0.418   2.718  1.3456  0.2627 -0.5310
 9988TIP3    H254160   6.353   0.269   2.738  1.3901  0.4764  1.2776
 9989TIP3   OH254161   3.095   5.262   1.735  0.1453 -0.3088 -0.0761
 9989TIP3    H154162   3.008   5.300   1.735 -1.2140 -3.1019  1.4333
 9989TIP3    H254163   3.118   5.254   1.828  1.6928 -0.2729 -0.4311
 9990TIP3   OH254164   7.253   7.017   0.671  0.4070  0.2303 -0.2896
 9990TIP3    H154165   7.267   7.092   0.729 -2.0214  0.4246  0.1523
 9990TIP3    H254166   7.261   6.941   0.729  0.4378  0.2965 -0.2069
 9991TIP3   OH254167   2.898   1.993   1.785 -0.1180 -0.0444  0.4383
 9991TIP3    H154168   2.929   2.082   1.771  1.4971 -0.2959  2.0149
 9991TIP3    H254169   2.879   1.988   1.878  3.3443 -2.2542  1.2124
 9992TIP3   OH254170   4.700   3.592   0.879 -0.1235 -0.0059  0.3960
 9992TIP3    H154171   4.630   3.532   0.853  1.1233 -2.1224  1.6536
 9992TIP3    H254172   4.655   3.675   0.898 -1.7364 -0.0152 -2.7410
 9993TIP3   OH254173   7.322   5.297   1.289 -0.1077 -0.5546 -0.1181
 9993TIP3    H154174   7.407   5.319   1.250 -0.1553 -0.2878 -0.0707
 9993TIP3    H254175   7.307   5.206   1.263 -0.3059 -0.2747 -1.0173
 9994TIP3   OH254176   1.357   4.129   1.382 -0.1050  0.2378  0.0678
 9994TIP3    H154177   1.388   4.038   1.376 -3.0443 -1.0191  1.8132
 9994TIP3    H254178   1.382   4.156   1.470 -3.3276 -0.7250  1.4337
 9995TIP3   OH254179   7.667   0.977   1.780 -0.6693 -0.0466 -0.4515
 9995TIP3    H154180   7.676   0.900   1.837 -3.2064 -1.0248 -1.2187
 9995TIP3    H254181   7.573   0.994   1.778 -0.4695  1.2070 -2.7349
 9996TIP3   OH254182   5.703   3.800   0.568  0.0245 -0.0498 -0.0554
 9996TIP3    H154183   5.700   3.878   0.623  0.1257  0.2843 -0.5190
 9996TIP3    H254184   5.658   3.826   0.487  1.3468  0.0065 -0.8076
 9997TIP3   OH254185   2.020   4.266   0.496 -0.0324 -0.1382 -0.4175
 9997TIP3    H154186   2.033   4.172   0.502  1.2472 -0.0051 -0.7917
 9997TIP3    H254187   1.943   4.283   0.550  1.4340 -1.0231  2.1062
 9998TIP3   OH254188   6.943   3.171   1.388 -0.1415 -0.7530  0.3230
 9998TIP3    H154189   7.012   3.148   1.451  1.5620  1.7114 -0.4935
 9998TIP3    H254190   6.971   3.254   1.351 -2.5197 -0.7227 -1.6709
 9999TIP3   OH254191   5.668   2.238   2.505 -0.3891  0.1290 -0.0816
 9999TIP3    H154192   5.671   2.208   2.414  1.5867  0.7812 -0.2644
 9999TIP3    H254193   5.755   2.220   2.539 -1.2507 -0.6144  1.8928
10000TIP3   OH254194   5.504   4.649   2.650 -0.3212 -0.1160 -0.4316
10000TIP3    H154195   5.552   4.601   2.718 -3.0442 -1.8134  0.4795
10000TIP3    H254196   5.509   4.593   2.573  1.5541  1.1330 -1.2927
10001TIP3   OH254197   1.040   1.821   2.875 -0.2073  0.2486  0.4181
10001TIP3    H154198   1.061   1.796   2.785 -1.1946 -0.2305  0.3111
10001TIP3    H254199   0.953   1.860   2.870 -0.6675 -0.6302  1.3093
10002TIP3   OH254200   6.196   5.737   0.737 -0.2948  0.0637 -0.4746
10002TIP3    H154201   6.170   5.750   0.646 -2.1627 -0.1280 -0.0287
10002TIP3    H254202   6.174   5.645   0.755 -1.0021  0.3955  0.4521
10003TIP3   OH254203   5.145   1.280   1.066 -0.0512 -0.2524 -0.1467
10003TIP3    H154204   5.153   1.269   1.160  0.6760  1.5225  0.0341
10003TIP3    H254205   5.231   1.309   1.037 -0.6623  0.6948 -1.1108
10004TIP3   OH254206   3.291   3.554   3.020 -0.5450  0.0853  0.4660
10004TIP3    H154207   3.366   3.503   2.989 -0.1924  0.3880  0.7939
10004TIP3    H254208   3.295   3.546   3.116  0.1087  1.5114  0.5968
10005TIP3   OH254209   2.865   3.986   1.937  0.4142 -0.4805  0.2986
10005TIP3    H154210   2.829   4.075   1.935 -3.9693 -1.9794  1.7604
10005TIP3    H254211   2.871   3.961   1.845 -1.0847  0.3946 -0.0804
10006TIP3   OH254212   6.864   1.769   1.434 -0.0738  0.4130  0.2462
10006TIP3    H154213   6.958   1.756   1.433  0.0542  1.2493  0.4258
10006TIP3    H254214   6.846   1.809   1.519 -0.4470  1.1488 -0.1620
10007TIP3   OH254215   5.538   0.942   0.682 -0.2555  0.2239  0.0581
10007TIP3    H154216   5.568   0.926   0.771 -1.7329  0.4098  0.6262
10007TIP3    H254217   5.605   1.000   0.644  0.0891  0.6435  1.2538
10008TIP3   OH254218   0.539   7.464   1.875  0.0897  0.0410  0.6048
10008TIP3    H154219   0.445   7.480   1.865 -0.1263  0.7758  3.1693
10008TIP3    H254220   0.547   7.369   1.883 -0.4308 -0.0150  0.4803
10009TIP3   OH254221   3.749   0.723   2.732 -0.2237 -0.2388 -0.3510
10009TIP3    H154222   3.725   0.644   2.781 -1.1874  0.4339  0.2961
10009TIP3    H254223   3.672   0.779   2.738  0.3976  0.6933 -0.9226
10010TIP3   OH254224   3.361   5.255   1.422  0.3791  0.4701 -0.6131
10010TIP3    H154225   3.431   5.273   1.485  0.1007  2.3327 -0.7573
10010TIP3    H254226   3.300   5.328   1.435 -0.8103 -0.3527 -1.4863
10011TIP3   OH254227   2.696   1.766   1.300 -0.1592 -0.0819  0.1915
10011TIP3    H154228   2.748   1.687   1.318  1.7648  1.2039  0.6317
10011TIP3    H254229   2.714   1.824   1.374 -1.3483  0.8769 -0.2410
10012TIP3   OH254230   6.705   5.710   1.902  0.0569 -0.1015 -0.0032
10012TIP3    H154231   6.667   5.796   1.886 -0.4583 -0.1003  1.1256
10012TIP3    H254232   6.748   5.718   1.988  0.2959 -0.8744 -0.0402
10013TIP3   OH254233   5.189   2.074   2.417  0.4011  0.2530 -0.5453
10013TIP3    H154234   5.149   1.988   2.429  0.0350  0.4171 -0.5554
10013TIP3    H254235   5.244   2.064   2.339  4.6573 -1.4647  2.3217
10014TIP3   OH254236   3.434   3.429   1.640 -0.0181 -0.7870 -0.0324
10014TIP3    H154237   3.393   3.371   1.704 -0.5914  0.4869  0.7977
10014TIP3    H254238   3.515   3.457   1.682 -0.9648  0.9969  0.7094
10015TIP3   OH254239   1.831   5.196   2.233 -0.2833 -0.1033  1.0491
10015TIP3    H154240   1.894   5.137   2.191 -2.1693 -1.4749 -0.0313
10015TIP3    H254241   1.748   5.149   2.228 -1.3645  1.5176  2.6592
10016TIP3   OH254242   2.217   0.790   2.679 -0.9095 -0.3959 -0.3724
10016TIP3    H154243   2.235   0.878   2.648 -1.8099 -0.2717 -0.5612
10016TIP3    H254244   2.276   0.734   2.629 -0.9110  0.0206 -0.8382
10017TIP3   OH254245   0.825   2.969   2.489 -0.1324 -0.0873 -0.1098
10017TIP3    H154246   0.818   2.889   2.437  0.1459  0.2711 -0.7102
10017TIP3    H254247   0.896   3.019   2.448  0.1924  0.1408  0.7100
10018TIP3   OH254248   7.664   6.202   2.612  0.6715  0.6573  0.3909
10018TIP3    H154249   7.719   6.124   2.619  0.6620  0.6895  0.8326
10018TIP3    H254250   7.635   6.203   2.521  0.7526  0.1987  0.3598
10019TIP3   OH254251   3.159   3.959   1.941 -0.0781  0.0044 -0.3824
10019TIP3    H154252   3.218   3.890   1.969 -1.0221  0.1272  2.1605
10019TIP3    H254253   3.072   3.920   1.946 -0.3771  0.2721 -2.6459
10020TIP3   OH254254   5.736   0.971   1.725 -0.1689  0.0353 -0.2493
10020TIP3    H154255   5.809   0.920   1.690 -1.3447 -0.3467 -2.3667
10020TIP3    H254256   5.761   0.991   1.815  1.3852 -2.2319 -0.0933
10021TIP3   OH254257   4.256   3.627   0.825 -0.2130  0.6861  0.3295
10021TIP3    H154258   4.310   3.696   0.785 -0.8587 -0.3397 -2.5401
10021TIP3    H254259   4.175   3.628   0.774  0.2129 -2.9397 -0.6789
10022TIP3   OH254260   3.734   4.030   2.375 -0.6457 -0.5144 -0.0530
10022TIP3    H154261   3.720   4.091   2.447  0.7787 -0.6276  0.3478
10022TIP3    H254262   3.718   4.081   2.296  3.1639  1.2679  0.1298
10023TIP3   OH254263   6.540   1.082   1.375  0.2221  1.0551  0.4722
10023TIP3    H154264   6.453   1.107   1.406 -0.0070  0.7421  0.0925
10023TIP3    H254265   6.589   1.062   1.455 -0.6782 -0.7867  0.6234
10024TIP3   OH254266   4.327   3.496   1.106  0.7329  0.4476  0.6385
10024TIP3    H154267   4.257   3.549   1.067  0.5759 -0.1965  0.0312
10024TIP3    H254268   4.397   3.559   1.124  0.7282  0.7921 -0.4942
10025TIP3   OH254269   5.150   4.217   1.769 -0.2125 -0.2449 -0.5839
10025TIP3    H154270   5.121   4.128   1.786 -1.5467  0.2004 -0.3524
10025TIP3    H254271   5.147   4.259   1.855 -0.7906  0.3363 -0.8783
10026TIP3   OH254272   5.319   5.467   2.512  0.2954  0.0223 -0.3457
10026TIP3    H154273   5.240   5.440   2.559  0.6996 -0.1567  0.2502
10026TIP3    H254274   5.332   5.559   2.536  0.0928  0.1406 -0.6922
10027TIP3   OH254275   2.543   1.040   1.220 -0.4220 -0.1967  0.1813
10027TIP3    H154276   2.542   1.108   1.153  0.3847 -0.5807 -0.2317
10027TIP3    H254277   2.636   1.020   1.233 -0.2680  1.9137  3.5446
10028TIP3   OH254278   4.583   6.291   1.766 -0.2291 -0.6212 -0.7244
10028TIP3    H154279   4.587   6.196   1.779 -1.2007 -0.4723  0.8977
10028TIP3    H254280   4.674   6.318   1.762  0.1095 -1.3876  0.9111
10029TIP3   OH254281   3.211   5.029   1.468  0.8930  0.0459  1.1315
10029TIP3    H154282   3.237   5.093   1.401 -0.3508 -1.1369 -0.5503
10029TIP3    H254283   3.269   4.955   1.453  0.9112 -0.0522  1.6792
10030TIP3   OH254284   6.495   2.865   1.142 -0.1886 -0.0151 -0.3745
10030TIP3    H154285   6.437   2.933   1.176 -0.3026 -0.3017  0.0144
10030TIP3    H254286   6.557   2.848   1.214  0.3640  0.2693 -0.7750
10031TIP3   OH254287   6.044   5.204   3.024 -0.1961  0.1910 -0.3904
10031TIP3    H154288   6.013   5.113   3.016 -1.1787  0.1857  2.3630
10031TIP3    H254289   5.996   5.252   2.957 -1.4273 -0.9494 -0.3640
10032TIP3   OH254290   2.746   4.025   0.693 -0.3741 -0.6464  0.0004
10032TIP3    H154291   2.683   4.097   0.694  1.0660  0.6814  1.8066
10032TIP3    H254292   2.745   3.990   0.782 -0.0401 -1.9794 -0.4872
10033TIP3   OH254293   4.374   5.440   2.206  0.1252 -0.0806  0.1671
10033TIP3    H154294   4.467   5.451   2.228 -0.2326 -2.4642  3.6866
10033TIP3    H254295   4.357   5.347   2.222 -3.2678  0.6415  1.6572
10034TIP3   OH254296   5.375   7.611   2.885  0.8727 -0.2585 -0.0363
10034TIP3    H154297   5.330   7.558   2.820 -0.7121  0.4105  0.4809
10034TIP3    H254298   5.448   7.650   2.837  0.6593 -1.0174 -1.0039
10035TIP3   OH254299   3.825   5.974   3.040  0.2127 -0.5200 -0.1684
10035TIP3    H154300   3.802   6.020   3.121 -1.9951  0.4810 -1.2713
10035TIP3    H254301   3.907   5.929   3.060  0.9892  1.6368  1.8530
10036TIP3   OH254302   6.496   2.243   1.984 -0.8270  0.5578  1.0760
10036TIP3    H154303   6.564   2.310   1.977 -2.3289  1.9929 -2.4374
10036TIP3    H254304   6.536   2.164   1.947 -0.2329  0.6014  1.6193
10037TIP3   OH254305   0.916   4.836   1.720 -0.6997  0.0179  0.2439
10037TIP3    H154306   0.961   4.762   1.679  0.5452  1.1342 -0.4733
10037TIP3    H254307   0.984   4.878   1.773 -2.0539 -0.9332  2.9651
10038TIP3   OH254308   7.470   3.224   0.983  0.0307  0.0649  0.5890
10038TIP3    H154309   7.455   3.316   1.007 -0.4136 -0.1621  1.1931
10038TIP3    H254310   7.485   3.179   1.066 -3.1446 -1.0449  0.6750
10039TIP3   OH254311   2.983   1.795   1.482  0.2490 -0.4225  0.2437
10039TIP3    H154312   3.012   1.754   1.563  0.3038  0.3709  0.6295
10039TIP3    H254313   3.013   1.735   1.413  2.3461  0.0547  0.6528
10040TIP3   OH254314   2.562   0.474   1.563 -0.2817 -0.4249  0.6997
10040TIP3    H154315   2.653   0.503   1.552 -0.0812 -1.3371 -0.1628
10040TIP3    H254316   2.532   0.456   1.474 -0.8782 -1.4150  1.0852
10041TIP3   OH254317   7.526   3.597   2.356 -0.0098  0.3483 -0.0847
10041TIP3    H154318   7.548   3.690   2.359 -1.3469  0.6667  1.4768
10041TIP3    H254319   7.519   3.571   2.448  0.7479 -1.4163 -0.4879
10042TIP3   OH254320   7.227   1.495   1.455 -0.0290  0.3321 -0.6114
10042TIP3    H154321   7.228   1.492   1.551 -0.3286 -0.8008 -0.6303
10042TIP3    H254322   7.273   1.416   1.428 -0.7181  0.1832 -1.4001
10043TIP3   OH254323   6.998   7.500   3.340  0.1315 -0.1741 -0.0930
10043TIP3    H154324   6.969   7.585   3.375 -1.6034 -0.8229  0.1490
10043TIP3    H254325   6.931   7.438   3.369  1.8184 -1.8245  0.5102
10044TIP3   OH254326   4.104   3.800   1.330 -0.0862  0.2232 -0.3739
10044TIP3    H154327   4.176   3.842   1.377 -0.4810  0.9532 -0.4032
10044TIP3    H254328   4.147   3.745   1.264  0.6548 -3.2379  2.6214
10045TIP3   OH254329   0.449   7.264   2.273  0.3901 -0.3370  0.0152
10045TIP3    H154330   0.459   7.186   2.218  2.4101 -1.5713  1.9300
10045TIP3    H254331   0.362   7.255   2.312 -0.3367 -0.3764 -1.5732
10046TIP3   OH254332   0.023   7.343   1.425 -0.1338 -0.5204  0.0164
10046TIP3    H154333   0.012   7.424   1.375 -0.1109 -0.3288  0.3213
10046TIP3    H254334   0.013   7.369   1.516 -0.0115 -0.8418  0.1240
10047TIP3   OH254335   7.517   1.180   2.130  0.7903  0.5047 -0.0540
10047TIP3    H154336   7.610   1.175   2.150  0.6295 -0.0798  0.5952
10047TIP3    H254337   7.490   1.089   2.121  0.5051  0.6940 -1.3552
10048TIP3   OH254338   7.109   3.642   0.946 -0.2241 -0.2049  0.1784
10048TIP3    H154339   7.118   3.722   0.894 -0.4601  0.5724  1.3085
10048TIP3    H254340   7.155   3.575   0.895  0.1930  0.7019 -0.6658
10049TIP3   OH254341   0.139   5.718   2.068 -0.2371 -0.1053  0.1099
10049TIP3    H154342   0.052   5.689   2.096 -0.9520  1.7069 -0.1090
10049TIP3    H254343   0.131   5.813   2.061  1.2096 -0.0802 -1.8208
10050TIP3   OH254344   0.317   3.897   2.906  0.1127  0.0887  0.1256
10050TIP3    H154345   0.274   3.959   2.966  1.1242  0.5792  0.3699
10050TIP3    H254346   0.273   3.910   2.822 -0.8454 -0.0996  0.5849
10051TIP3   OH254347   2.935   7.199   0.602  0.1769  0.0138  0.2639
10051TIP3    H154348   2.859   7.239   0.644 -1.4008 -0.8339 -1.5820
10051TIP3    H254349   2.965   7.264   0.539  1.5335  0.6598  1.5301
10052TIP3   OH254350   6.951   2.551   3.089 -0.5883  0.0922 -0.2517
10052TIP3    H154351   6.991   2.505   3.163  3.2579  0.2603 -1.9831
10052TIP3    H254352   6.946   2.484   3.020  0.5956  1.0426 -1.3085
10053TIP3   OH254353   3.128   3.202   2.106  0.5993 -0.0709  0.1644
10053TIP3    H154354   3.039   3.237   2.108  0.7846  0.4304  0.0555
10053TIP3    H254355   3.171   3.241   2.183  0.7243 -0.3112  0.2191
10054TIP3   OH254356   2.036   4.022   0.837 -0.1094  0.5476  0.4795
10054TIP3    H154357   2.053   3.928   0.841 -1.3407  0.3062  0.5084
10054TIP3    H254358   2.053   4.046   0.746 -0.8584  0.0625  0.2027
10055TIP3   OH254359   7.567   2.860   2.840 -0.4303  0.0260 -0.3146
10055TIP3    H154360   7.628   2.887   2.909 -0.0810 -0.7141 -0.3222
10055TIP3    H254361   7.578   2.926   2.771  2.3996 -1.5064 -1.4925
10056TIP3   OH254362   3.550   2.239   2.192  0.7786  0.1385 -0.6335
10056TIP3    H154363   3.457   2.234   2.213  1.0837  1.6559  1.4151
10056TIP3    H254364   3.553   2.292   2.112 -0.1100  0.7306 -0.3014
10057TIP3   OH254365   5.739   1.647   2.022  0.6025 -0.2993 -0.8923
10057TIP3    H154366   5.699   1.715   2.077  2.7783  0.6903 -0.4384
10057TIP3    H254367   5.722   1.675   1.932  0.4412  0.2015 -0.7104
10058TIP3   OH254368   1.869   4.798   0.492 -0.2485  0.4395 -0.5468
10058TIP3    H154369   1.824   4.788   0.409  0.0752  2.3354 -0.9958
10058TIP3    H254370   1.824   4.737   0.551 -2.6610  1.3937 -1.2679
10059TIP3   OH254371   3.997   4.310   2.485  0.3110 -0.0703 -0.4173
10059TIP3    H154372   4.009   4.402   2.461  1.1268 -0.3991 -1.3323
10059TIP3    H254373   4.026   4.306   2.577  1.1191  0.4227 -0.6377
10060TIP3   OH254374   2.586   3.200   1.407 -0.4270  0.0710  0.0661
10060TIP3    H154375   2.638   3.277   1.383 -0.1012  0.2612  1.2903
10060TIP3    H254376   2.579   3.205   1.503 -1.7984 -0.5403  0.0186
10061TIP3   OH254377   1.273   4.780   2.543 -0.0178 -0.0886  0.0952
10061TIP3    H154378   1.264   4.812   2.453  0.6912 -1.5811 -0.5491
10061TIP3    H254379   1.188   4.740   2.563  0.1129 -0.5499 -0.2555
10062TIP3   OH254380   3.433   5.899   0.674  0.1400  0.0904  0.3407
10062TIP3    H154381   3.469   5.943   0.751  0.1288  0.0163  0.3886
10062TIP3    H254382   3.507   5.895   0.612  0.5329 -1.0601  0.8647
10063TIP3   OH254383   4.735   2.062   0.694  0.1167 -0.3047 -0.2765
10063TIP3    H154384   4.760   2.123   0.763 -1.0363 -1.0861  0.8887
10063TIP3    H254385   4.660   2.103   0.651 -0.2076 -0.5626  0.0361
10064TIP3   OH254386   2.726   2.680   2.581 -0.8128  0.9897 -0.2492
10064TIP3    H154387   2.634   2.696   2.559 -0.8916 -0.7797 -1.4297
10064TIP3    H254388   2.727   2.591   2.615  0.1272  1.8720  2.2489
10065TIP3   OH254389   6.275   3.196   2.676 -0.4479 -0.4183 -0.5967
10065TIP3    H154390   6.346   3.159   2.624  2.0328  0.2410  2.0677
10065TIP3    H254391   6.245   3.124   2.731 -0.3096 -0.1391 -0.1547
10066TIP3   OH254392   1.430   7.037   0.741  0.4168  0.2116  0.3105
10066TIP3    H154393   1.459   7.099   0.674 -0.5191 -0.6906 -0.9688
10066TIP3    H254394   1.509   7.015   0.790  1.2427  0.3754 -0.9300
10067TIP3   OH254395   4.610   6.357   2.035  0.1753 -0.2318 -0.1600
10067TIP3    H154396   4.601   6.335   1.942  0.6040  1.0103 -0.5149
10067TIP3    H254397   4.545   6.425   2.050  1.5288  1.1095 -0.1092
10068TIP3   OH254398   3.379   5.550   1.660  0.2242  0.1669 -0.3049
10068TIP3    H154399   3.438   5.579   1.590 -0.4150 -2.1874 -1.9376
10068TIP3    H254400   3.301   5.520   1.614 -1.6039  1.5899  1.7108
10069TIP3   OH254401   7.418   4.805   2.595 -0.5712 -0.0008 -0.1483
10069TIP3    H154402   7.479   4.848   2.536  3.0138 -4.4677 -0.1942
10069TIP3    H254403   7.453   4.822   2.683 -0.8951 -0.2929  0.0408
10070TIP3   OH254404   1.265   3.397   3.118  0.3612 -0.6236  0.3793
10070TIP3    H154405   1.356   3.374   3.098  0.8105  0.9856  0.4424
10070TIP3    H254406   1.266   3.422   3.211  0.1918  0.8579  0.0079
10071TIP3   OH254407   1.792   5.477   0.585  0.3196  0.1994 -0.1463
10071TIP3    H154408   1.708   5.516   0.611  0.0211 -0.9546  0.6956
10071TIP3    H254409   1.855   5.512   0.649  0.3065  0.3433 -0.2114
10072TIP3   OH254410   1.794   4.269   3.638  0.0530  0.0258  0.4460
10072TIP3    H154411   1.768   4.178   3.619  0.7122 -0.0189 -0.3245
10072TIP3    H254412   1.889   4.265   3.646 -0.0377  0.4106  1.8867
10073TIP3   OH254413   6.231   6.721   3.272  0.3602  0.2063 -0.1816
10073TIP3    H154414   6.170   6.688   3.206 -0.8712  0.4544  0.7942
10073TIP3    H254415   6.176   6.770   3.333  1.5375  0.3996  0.7590
10074TIP3   OH254416   0.336   6.231   1.309 -0.0468  0.2487  0.5039
10074TIP3    H154417   0.263   6.227   1.246  1.2919 -0.0452 -1.0850
10074TIP3    H254418   0.293   6.229   1.394 -1.8248 -2.1081 -0.3319
10075TIP3   OH254419   6.142   2.110   2.511 -0.2622 -0.3788  0.8035
10075TIP3    H154420   6.174   2.046   2.575  1.2119  0.1775  0.6556
10075TIP3    H254421   6.160   2.195   2.551 -0.0425 -0.0329 -0.0077
10076TIP3   OH254422   7.553   5.757   1.539 -0.0362 -0.0107 -0.4744
10076TIP3    H154423   7.504   5.692   1.589  3.1893 -2.2396  0.1571
10076TIP3    H254424   7.557   5.720   1.450  0.6966 -0.0636 -0.4313
10077TIP3   OH254425   7.531   5.514   2.620  0.0870  0.3491  0.7244
10077TIP3    H154426   7.617   5.496   2.582  0.5958  1.5382  1.2492
10077TIP3    H254427   7.477   5.440   2.595  1.0774 -0.0712 -0.2178
10078TIP3   OH254428   0.424   4.805   1.734 -0.0333 -0.1732  0.0758
10078TIP3    H154429   0.391   4.788   1.646  0.0618 -1.0585  0.2044
10078TIP3    H254430   0.376   4.883   1.763 -1.5413 -1.0369  0.0050
10079TIP3   OH254431   2.528   2.831   0.901  0.2702 -0.2462 -0.0533
10079TIP3    H154432   2.463   2.879   0.952  1.6798  0.0401  1.5546
10079TIP3    H254433   2.577   2.898   0.854  1.4622 -0.1458  1.2635
10080TIP3   OH254434   2.021   1.795   2.120  0.5940 -0.2053 -0.2987
10080TIP3    H154435   1.969   1.870   2.150  0.5600 -0.4731  0.3240
10080TIP3    H254436   2.021   1.803   2.025 -0.5205 -0.1556 -0.3075
10081TIP3   OH254437   3.248   0.743   0.973 -0.2607 -0.2724 -0.0016
10081TIP3    H154438   3.241   0.839   0.967  2.5188 -0.0583 -1.6619
10081TIP3    H254439   3.161   0.711   0.950 -0.4061  1.8612 -3.0508
10082TIP3   OH254440   0.721   4.206   1.804 -0.6031 -0.3842 -0.7491
10082TIP3    H154441   0.673   4.123   1.793 -0.9808 -0.0006 -2.1944
10082TIP3    H254442   0.703   4.255   1.724  1.8777 -0.0345 -1.1678
10083TIP3   OH254443   4.076   7.381   1.085  0.2731 -0.1549  0.3343
10083TIP3    H154444   4.092   7.298   1.039  0.8291 -0.5046  1.1425
10083TIP3    H254445   4.085   7.359   1.178 -0.2782  0.6640  0.5918
10084TIP3   OH254446   6.735   3.139   0.628  0.1946  0.1575  0.0005
10084TIP3    H154447   6.721   3.049   0.657  0.7142 -0.0298 -0.3139
10084TIP3    H254448   6.664   3.155   0.566  0.3713 -0.2011 -0.3015
10085TIP3   OH254449   4.858   5.281   0.607  0.0503 -0.1158  0.3274
10085TIP3    H154450   4.894   5.340   0.673 -1.4378  0.3320  0.7624
10085TIP3    H254451   4.780   5.325   0.574 -0.4904 -1.3492 -0.1145
10086TIP3   OH254452   3.617   0.539   1.381 -0.1565 -0.5244 -0.6444
10086TIP3    H154453   3.712   0.539   1.364  0.3111  0.2293  1.6387
10086TIP3    H254454   3.596   0.629   1.402 -0.7106 -1.1656  1.9214
10087TIP3   OH254455   1.452   6.094   1.285  0.3397 -0.3586 -0.6247
10087TIP3    H154456   1.507   6.042   1.345  1.1402  1.6446  0.4539
10087TIP3    H254457   1.395   6.029   1.244  0.5133 -1.9841  1.4810
10088TIP3   OH254458   3.823   3.910   1.315  0.2859 -0.6147  0.0098
10088TIP3    H154459   3.909   3.868   1.321  0.6202  0.0405 -0.0770
10088TIP3    H254460   3.828   3.960   1.234  0.7055  1.3730  1.2110
10089TIP3   OH254461   7.643   6.704   0.337  0.2129  0.0683  0.2894
10089TIP3    H154462   7.572   6.641   0.322 -1.2208  1.3686  1.3192
10089TIP3    H254463   7.715   6.650   0.371 -0.6021 -1.1642  0.1542
10090TIP3   OH254464   3.358   0.947   1.870 -0.0928  0.1398 -0.2110
10090TIP3    H154465   3.346   0.908   1.783  0.0828  0.7474 -0.5125
10090TIP3    H254466   3.380   1.038   1.852 -0.8128  0.4572  0.4896
10091TIP3   OH254467   6.084   2.796   0.493 -0.0165  0.3284 -0.0330
10091TIP3    H154468   6.038   2.740   0.555  1.6236 -0.4402  0.5513
10091TIP3    H254469   6.033   2.876   0.490 -0.9487 -0.1955  1.1703
10092TIP3   OH254470   0.729   6.363   2.752 -0.3157  0.0971 -0.4743
10092TIP3    H154471   0.679   6.390   2.829 -1.9895 -1.6066 -0.8933
10092TIP3    H254472   0.803   6.312   2.787  0.1165  1.0636  0.0628
10093TIP3   OH254473   6.441   2.303   1.097  0.2008  0.9168 -0.3058
10093TIP3    H154474   6.535   2.298   1.113  0.2933  0.9625 -0.8306
10093TIP3    H254475   6.431   2.373   1.032 -0.0435 -0.1453 -1.4563
10094TIP3   OH254476   7.163   2.777   3.699 -0.1178 -0.5730 -0.2467
10094TIP3    H154477   7.135   2.700   3.649 -0.6957  0.1767 -1.0992
10094TIP3    H254478   7.141   2.755   3.790  1.1472 -2.0442 -0.2485
10095TIP3   OH254479   7.599   2.422   2.745  0.0021 -0.0447  0.1431
10095TIP3    H154480   7.592   2.491   2.679 -1.2781 -0.8857 -0.6457
10095TIP3    H254481   7.686   2.434   2.783  0.1124  1.4997 -0.5250
10096TIP3   OH254482   3.164   3.795   3.086 -0.0216 -0.1093 -0.1688
10096TIP3    H154483   3.145   3.784   3.179 -1.8152 -0.2038 -0.5013
10096TIP3    H254484   3.197   3.710   3.057  1.2122  0.1196  0.4994
10097TIP3   OH254485   5.517   5.565   1.588 -0.1328  0.0302 -0.4044
10097TIP3    H154486   5.600   5.518   1.600 -0.4860 -0.3239  0.8450
10097TIP3    H254487   5.483   5.576   1.677 -2.7671 -2.2843 -0.9813
10098TIP3   OH254488   2.255   0.518   0.693  0.0024 -0.4145  0.0471
10098TIP3    H154489   2.316   0.570   0.744 -0.9096  2.8315 -1.9324
10098TIP3    H254490   2.303   0.494   0.614 -0.5454  0.2206 -0.4928
10099TIP3   OH254491   0.424   0.096   1.544  0.3793 -0.9706 -0.4293
10099TIP3    H154492   0.386   0.010   1.561 -0.4898 -0.8416 -1.6230
10099TIP3    H254493   0.349   0.156   1.541  0.7673 -0.5084 -1.5760
10100TIP3   OH254494   7.113   1.048   0.601 -0.3442  0.0739  0.3877
10100TIP3    H154495   7.035   1.083   0.559 -0.2946  1.3183  1.2851
10100TIP3    H254496   7.163   1.125   0.627  1.9431 -0.6790 -1.4727
10101TIP3   OH254497   0.214   7.093   2.180 -0.1379 -0.0509  0.4726
10101TIP3    H154498   0.157   7.078   2.105 -1.0460  0.0753  1.1164
10101TIP3    H254499   0.293   7.042   2.161 -1.3972 -2.1632  0.6043
10102TIP3   OH254500   3.478   2.763   1.539  0.7198  0.0578 -0.1261
10102TIP3    H154501   3.524   2.776   1.457  0.4483  0.4677 -0.2145
10102TIP3    H254502   3.482   2.848   1.583 -1.9624  0.8163 -1.1646
10103TIP3   OH254503   4.220   7.313   2.194  0.3888  0.5053 -0.2364
10103TIP3    H154504   4.253   7.234   2.151 -1.1142 -0.3713  0.1357
10103TIP3    H254505   4.125   7.304   2.190  0.1912  2.0732  0.2593
10104TIP3   OH254506   4.266   2.892   0.964 -0.0623  0.4728  0.0907
10104TIP3    H154507   4.272   2.798   0.980  0.9287  0.3930 -0.6793
10104TIP3    H254508   4.183   2.903   0.916  0.0287 -0.0560 -0.1909
10105TIP3   OH254509   0.846   1.025   1.194  0.4707  0.3256  0.6379
10105TIP3    H154510   0.810   1.108   1.163  0.3028  0.6224  1.5936
10105TIP3    H254511   0.843   1.032   1.290 -1.7263 -1.7125  0.7990
10106TIP3   OH254512   1.536   4.817   1.962  0.2088  0.3231 -0.3926
10106TIP3    H154513   1.467   4.864   2.009 -0.8976 -1.6048  0.0267
10106TIP3    H254514   1.492   4.780   1.885  0.9019 -0.4428 -0.4372
10107TIP3   OH254515   0.013   5.486   1.438  0.0203  0.2427 -0.1244
10107TIP3    H154516  -0.051   5.467   1.506 -0.7767  2.0895 -0.2938
10107TIP3    H254517  -0.039   5.519   1.364  0.8954 -1.3142 -1.5220
10108TIP3   OH254518   6.934   1.691   2.370  0.0494 -0.0230 -0.8517
10108TIP3    H154519   6.965   1.649   2.450 -0.1905 -1.3289 -1.4189
10108TIP3    H254520   6.843   1.714   2.389 -0.5138 -1.7705 -1.2470
10109TIP3   OH254521   3.345   0.978   1.350 -0.0103  0.0286 -0.3913
10109TIP3    H154522   3.366   0.891   1.319  1.5670  0.1794  0.1593
10109TIP3    H254523   3.414   1.034   1.314 -1.0576  1.0802 -0.8308
10110TIP3   OH254524   4.689   0.086   2.182 -0.0015 -0.0836  0.2184
10110TIP3    H154525   4.618   0.045   2.232 -0.4947 -1.6312 -1.6198
10110TIP3    H254526   4.769   0.062   2.229 -0.2342 -3.5554 -0.8607
10111TIP3   OH254527   4.835   2.720   0.587 -0.2049  0.0500 -0.2773
10111TIP3    H154528   4.777   2.785   0.547 -0.0883  0.2324 -0.1474
10111TIP3    H254529   4.850   2.752   0.676 -0.6303 -0.4643 -0.0146
10112TIP3   OH254530   1.172   4.328   1.590 -0.5030  0.2326 -0.1218
10112TIP3    H154531   1.252   4.379   1.603 -2.5079  3.4920  0.5615
10112TIP3    H254532   1.175   4.260   1.657  1.3291  0.7473  0.3639
10113TIP3   OH254533   2.060   0.690   1.904  0.3871 -0.0470  0.3618
10113TIP3    H154534   2.059   0.623   1.835 -0.0344  0.1490  0.1769
10113TIP3    H254535   2.048   0.640   1.985  1.4056 -0.3356  0.3493
10114TIP3   OH254536   2.324   1.124   2.173 -0.3600 -0.0278  0.5155
10114TIP3    H154537   2.261   1.080   2.116  0.4680  0.4572 -0.8196
10114TIP3    H254538   2.407   1.078   2.156 -0.0949  0.1368  1.3297
10115TIP3   OH254539   0.911   1.463   2.489 -0.0056  0.6392  0.4116
10115TIP3    H154540   0.871   1.392   2.439 -1.4061  0.4341  1.7558
10115TIP3    H254541   0.993   1.425   2.522  0.6434  0.5911 -1.1590
10116TIP3   OH254542   6.774   4.020   2.943 -0.5187  0.5566  0.0294
10116TIP3    H154543   6.708   4.047   3.006 -0.6350 -0.4850  0.3803
10116TIP3    H254544   6.850   3.997   2.997 -0.1969  0.8268 -0.3019
10117TIP3   OH254545   1.218   2.667   2.450  0.2644  0.3269 -0.3900
10117TIP3    H154546   1.229   2.713   2.367  0.4479  1.5489  0.2853
10117TIP3    H254547   1.131   2.694   2.482 -0.8949 -2.0397 -1.3018
10118TIP3   OH254548   7.565   2.648   1.361  0.5821  0.3010  0.4111
10118TIP3    H154549   7.480   2.683   1.336 -0.0212 -0.8323  0.8525
10118TIP3    H254550   7.550   2.605   1.445  0.9391 -2.3772 -0.8174
10119TIP3   OH254551   6.620   6.588   1.235  0.9542 -0.2155  0.3421
10119TIP3    H154552   6.631   6.681   1.258 -3.2433  0.6961 -0.4673
10119TIP3    H254553   6.588   6.547   1.315 -1.5803  0.1517 -0.4107
10120TIP3   OH254554   7.037   6.873   2.040  0.1611 -0.0888 -0.1636
10120TIP3    H154555   7.066   6.877   2.131  1.6984  1.0610 -0.6569
10120TIP3    H254556   7.110   6.908   1.990 -1.3850  1.1752 -1.6717
10121TIP3   OH254557   6.158   1.443   2.352 -0.1904 -0.0892  0.1786
10121TIP3    H154558   6.065   1.436   2.373 -0.0114 -2.3126  0.4798
10121TIP3    H254559   6.195   1.491   2.426 -0.9652  0.0352  0.5013
10122TIP3   OH254560   1.674   3.833   1.782  0.3116  0.2842  0.4039
10122TIP3    H154561   1.740   3.843   1.850  1.3327  1.6078 -0.7200
10122TIP3    H254562   1.701   3.894   1.713 -1.9552  0.7031 -0.2094
10123TIP3   OH254563   0.966   3.619   1.111 -0.1823 -0.2594  0.4774
10123TIP3    H154564   0.921   3.694   1.071  0.5158  0.4501  1.0137
10123TIP3    H254565   0.898   3.552   1.118 -1.1585  0.7692  1.2091
10124TIP3   OH254566   4.663   6.815   2.755 -0.1958 -0.1850 -0.3296
10124TIP3    H154567   4.713   6.820   2.836 -0.3048 -1.6130 -0.1592
10124TIP3    H254568   4.572   6.805   2.783 -0.6204  2.2072 -0.6408
10125TIP3   OH254569   7.479   0.026   1.254 -0.0998  0.0926  0.3277
10125TIP3    H154570   7.477   0.091   1.324  0.4525 -0.6829  1.0830
10125TIP3    H254571   7.464   0.077   1.174 -0.1058  1.0827  0.9344
10126TIP3   OH254572   1.909   3.106   3.048  0.1923 -0.6474  0.0458
10126TIP3    H154573   1.990   3.128   3.094 -0.0187 -0.7018  0.4543
10126TIP3    H254574   1.850   3.179   3.068 -0.1912 -1.0960  0.6050
10127TIP3   OH254575   3.069   1.643   2.265 -0.0500  0.6584  0.0981
10127TIP3    H154576   3.136   1.576   2.277 -1.4336 -1.0483 -1.1245
10127TIP3    H254577   3.045   1.670   2.353  1.0507  0.0714  0.5927
10128TIP3   OH254578   0.063   1.649   2.199 -0.1136  0.4027 -0.2684
10128TIP3    H154579   0.008   1.726   2.184  0.1092  0.6060 -0.0532
10128TIP3    H254580   0.148   1.674   2.164 -0.1540  0.0911 -0.5910
10129TIP3   OH254581   1.657   1.739   3.106 -0.3514 -0.1606  0.2747
10129TIP3    H154582   1.576   1.730   3.156  0.5383 -1.3732  1.5993
10129TIP3    H254583   1.690   1.649   3.098  1.6555  0.4263  1.1883
10130TIP3   OH254584   5.647   1.030   3.250 -0.6396  0.3180  0.2780
10130TIP3    H154585   5.724   1.039   3.193 -0.3862  0.5746  0.6585
10130TIP3    H254586   5.599   0.956   3.213  0.5114 -0.7581  0.8649
10131TIP3   OH254587   7.222   2.640   1.689 -0.5794 -0.1104  0.1159
10131TIP3    H154588   7.195   2.729   1.668  0.9711  0.0727 -1.2040
10131TIP3    H254589   7.172   2.619   1.769 -2.1895  1.3133 -0.4473
10132TIP3   OH254590   1.725   2.010   3.139 -0.2414  0.5160 -0.3269
10132TIP3    H154591   1.810   2.015   3.094 -0.1474 -2.2208 -0.6238
10132TIP3    H254592   1.699   1.919   3.129 -2.2752  0.8379  1.5357
10133TIP3   OH254593   2.100   3.936   1.267  0.7532 -0.0375  0.1960
10133TIP3    H154594   2.156   3.866   1.234  0.3965 -0.2075 -0.0543
10133TIP3    H254595   2.125   4.013   1.214  0.7529 -0.1118  0.0870
10134TIP3   OH254596   1.897   1.549   0.583 -0.2978  0.0799 -0.2158
10134TIP3    H154597   1.968   1.612   0.595 -0.1559 -0.2545  0.8319
10134TIP3    H254598   1.929   1.489   0.516 -0.1273  0.6740 -0.6792
10135TIP3   OH254599   5.879   5.135   1.098  0.4166  0.0956  0.8473
10135TIP3    H154600   5.874   5.044   1.070  3.2370 -0.0480  0.4763
10135TIP3    H254601   5.955   5.137   1.157  0.0308  2.0917  1.3406
10136TIP3   OH254602   0.731   4.711   2.894  0.6193  0.4815  0.2265
10136TIP3    H154603   0.678   4.698   2.815  0.0166 -0.5067  0.7779
10136TIP3    H254604   0.730   4.806   2.908  0.5290  0.6458 -0.8059
10137TIP3   OH254605   4.913   2.408   2.368 -0.4681 -0.1487 -0.4087
10137TIP3    H154606   4.868   2.332   2.406  0.5063 -0.7944 -0.5007
10137TIP3    H254607   4.844   2.460   2.330 -1.3414 -0.1491  1.1018
10138TIP3   OH254608   3.166   1.821   0.995  0.2798 -0.5619 -0.0537
10138TIP3    H154609   3.231   1.883   1.026 -0.5895 -0.3214  1.3791
10138TIP3    H254610   3.119   1.793   1.074 -1.1930 -0.8954 -0.9956
10139TIP3   OH254611   1.247   0.050   1.023 -0.1559 -0.0772  0.6982
10139TIP3    H154612   1.204  -0.032   1.049  1.3124 -1.0643  0.1079
10139TIP3    H254613   1.332   0.047   1.066  0.3030  0.6863 -0.1389
10140TIP3   OH254614   7.112   0.605   2.559  0.2118  0.5664  0.6329
10140TIP3    H154615   7.147   0.569   2.640  1.0066  1.9071  0.9240
10140TIP3    H254616   7.042   0.664   2.588  0.7988  1.3974  0.4018
10141TIP3   OH254617   0.555   4.118   3.984 -0.9133 -0.0612 -0.1735
10141TIP3    H154618   0.604   4.193   4.017 -0.4063 -0.8446  0.9306
10141TIP3    H254619   0.587   4.044   4.037 -1.4968 -1.0241 -1.1338
10142TIP3   OH254620   0.634   6.425   1.152 -0.2955 -0.1463 -0.0698
10142TIP3    H154621   0.671   6.470   1.227 -0.2534 -0.4614  0.1028
10142TIP3    H254622   0.569   6.486   1.116 -2.1314 -0.9397  1.6954
10143TIP3   OH254623   5.679   2.962   2.412 -0.3307 -0.1461  0.0994
10143TIP3    H154624   5.710   2.997   2.496 -0.2837  1.4560 -0.5355
10143TIP3    H254625   5.635   3.037   2.371 -0.8794 -1.0751 -1.0465
10144TIP3   OH254626   3.729   2.636   2.526  0.3385  0.3870 -0.1634
10144TIP3    H154627   3.718   2.713   2.583  1.1096  0.9535 -0.7539
10144TIP3    H254628   3.759   2.673   2.443  1.6268 -0.6320 -0.1768
10145TIP3   OH254629   4.536   0.407   2.665  0.1623  0.2691  0.1685
10145TIP3    H154630   4.479   0.375   2.595 -0.0887  0.2135  0.3968
10145TIP3    H254631   4.538   0.335   2.728  1.5821 -0.3002 -0.4613
10146TIP3   OH254632   4.136   6.130   2.063 -0.0516  0.3309 -0.4168
10146TIP3    H154633   4.225   6.111   2.091 -0.2244  0.5057  0.2629
10146TIP3    H254634   4.133   6.225   2.054 -1.1130  0.7414  2.9872
10147TIP3   OH254635   6.679   2.882   2.315  0.8526  0.0163 -0.5725
10147TIP3    H154636   6.658   2.975   2.304  1.9552  0.1269 -1.9336
10147TIP3    H254637   6.737   2.880   2.392  0.8830  0.4640 -0.5790
10148TIP3   OH254638   4.772   2.164   1.858  0.3160 -0.5384  0.2721
10148TIP3    H154639   4.836   2.223   1.896 -0.7376  0.2750  0.8220
10148TIP3    H254640   4.698   2.164   1.919 -0.8949 -0.1894 -1.1183
10149TIP3   OH254641   2.359   3.422   2.902  0.0096 -0.0478  0.0113
10149TIP3    H154642   2.314   3.345   2.938 -3.8304  1.8588 -0.2422
10149TIP3    H254643   2.365   3.404   2.808  2.2470 -1.3390  0.3106
10150TIP3   OH254644   6.984   3.072   2.861 -0.4286  0.4484  0.7247
10150TIP3    H154645   6.970   3.119   2.778 -2.0763 -0.9795  0.1361
10150TIP3    H254646   6.903   3.087   2.910 -1.0290 -1.7323  0.4969
10151TIP3   OH254647   0.795   1.064   2.033 -0.0339  0.0120  0.1401
10151TIP3    H154648   0.723   1.128   2.031 -0.3237 -0.3316 -0.7411
10151TIP3    H254649   0.763   0.993   2.088  0.4904  0.8224  1.5754
10152TIP3   OH254650   2.447   6.978   1.471 -0.0799  0.2698  0.0766
10152TIP3    H154651   2.541   6.961   1.475  0.1309  0.9767 -1.2219
10152TIP3    H254652   2.440   7.074   1.473 -0.7939  0.2188  0.4339
10153TIP3   OH254653   5.116   1.048   1.987  0.0774  0.0938  1.0230
10153TIP3    H154654   5.195   1.009   1.950  0.2417  1.3993 -0.0932
10153TIP3    H254655   5.080   0.980   2.044  0.3415 -1.6852 -0.8150
10154TIP3   OH254656   3.428   1.987   2.373  0.4940  0.1852 -0.0308
10154TIP3    H154657   3.361   2.008   2.438  0.5704 -1.7252  0.7402
10154TIP3    H254658   3.401   2.034   2.294 -1.3797  0.0298  0.4765
10155TIP3   OH254659   5.583   1.888   1.253 -0.1466 -0.4538 -0.3634
10155TIP3    H154660   5.515   1.952   1.234 -0.7735 -1.4155 -1.4815
10155TIP3    H254661   5.602   1.847   1.168  2.3111  0.2360 -0.2300
10156TIP3   OH254662   6.653   4.949   3.204  0.0560  0.5754  0.0894
10156TIP3    H154663   6.712   4.961   3.130  0.4847 -0.4400  0.2521
10156TIP3    H254664   6.645   5.036   3.243 -0.6914  1.2473 -1.5198
10157TIP3   OH254665   2.309   3.863   0.655 -0.4785  0.0512 -0.2178
10157TIP3    H154666   2.402   3.845   0.647  0.0106  2.0566  0.3498
10157TIP3    H254667   2.278   3.799   0.720  0.8651  0.4455  0.8591
10158TIP3   OH254668   4.155   3.669   2.816 -0.0941 -0.0253  0.3143
10158TIP3    H154669   4.182   3.613   2.889 -0.5850 -0.0634  0.4706
10158TIP3    H254670   4.215   3.646   2.745 -1.6083 -2.3764 -0.3415
10159TIP3   OH254671   6.147   3.515   1.046 -0.0458 -0.4207  0.3226
10159TIP3    H154672   6.103   3.431   1.032 -0.1778 -0.3776  0.4715
10159TIP3    H254673   6.239   3.499   1.021 -0.4878 -0.0130 -1.7618
10160TIP3   OH254674   2.246   6.021   1.988  0.2362 -0.9486  0.0774
10160TIP3    H154675   2.224   6.099   2.039  0.3847 -0.1525 -1.0290
10160TIP3    H254676   2.170   5.964   1.997 -0.4692 -0.0825 -0.2065
10161TIP3   OH254677   1.826   2.925   2.879  0.6530 -0.4552 -0.5468
10161TIP3    H154678   1.857   2.985   2.947 -1.3181  0.3480 -0.2844
10161TIP3    H254679   1.751   2.881   2.918  0.0621 -0.6639 -1.8761
10162TIP3   OH254680   6.571   6.157   1.597 -0.2020  0.1143 -0.1261
10162TIP3    H154681   6.523   6.224   1.645  2.0587  2.3084 -0.6838
10162TIP3    H254682   6.658   6.157   1.637 -0.0544 -2.4439 -0.2679
10163TIP3   OH254683   1.639   6.406   0.785 -0.1832  0.1330  0.1051
10163TIP3    H154684   1.604   6.366   0.705  3.1434 -1.4112 -0.7685
10163TIP3    H254685   1.623   6.500   0.774 -1.2923 -0.2056 -1.5549
10164TIP3   OH254686   3.697   5.619   1.505  0.2233  0.0781  0.2691
10164TIP3    H154687   3.668   5.683   1.570  0.4746  0.4497  0.0174
10164TIP3    H254688   3.714   5.670   1.426  3.2107  0.1769  0.8623
10165TIP3   OH254689   4.463   4.828   1.871  0.2470  0.1539  0.2309
10165TIP3    H154690   4.519   4.904   1.852 -0.9602  0.9247 -0.3535
10165TIP3    H254691   4.523   4.754   1.873  1.2976  0.9655 -0.3052
10166TIP3   OH254692   5.968   1.760   1.587 -0.1090 -0.2223  0.0618
10166TIP3    H154693   5.889   1.793   1.543 -1.3786 -1.1871  1.4994
10166TIP3    H254694   6.006   1.838   1.628  0.0593  0.3611 -1.1554
10167TIP3   OH254695   2.325   2.272   0.428 -0.9720 -0.2563 -0.7461
10167TIP3    H154696   2.251   2.272   0.488 -0.2278 -1.7215  0.2598
10167TIP3    H254697   2.320   2.187   0.384  0.9748 -1.1189  0.5458
10168TIP3   OH254698   3.994   3.689   0.755  0.3604 -0.4244  0.1862
10168TIP3    H154699   3.961   3.756   0.815 -1.0666 -1.1103  0.2167
10168TIP3    H254700   3.956   3.608   0.788  0.3991 -0.9602 -1.0543
10169TIP3   OH254701   6.059   5.334   1.982  0.7685 -0.1023  0.7577
10169TIP3    H154702   6.091   5.424   1.977  1.5128 -0.3399  1.1076
10169TIP3    H254703   6.114   5.286   1.920 -0.5184 -0.0814 -0.4535
10170TIP3   OH254704   0.461   2.198   1.818 -0.0318 -0.1489 -0.0477
10170TIP3    H154705   0.552   2.209   1.843  0.8817 -1.6100 -2.4026
10170TIP3    H254706   0.455   2.240   1.732 -1.4038 -0.6391 -0.2159
10171TIP3   OH254707   0.697   5.958   0.514 -0.2253 -0.4577 -0.1866
10171TIP3    H154708   0.700   6.036   0.460  0.7250  0.2935  0.9102
10171TIP3    H254709   0.653   5.892   0.459 -0.7899  0.7480 -1.2172
10172TIP3   OH254710   1.202   0.735   2.931  0.2774 -0.1742 -0.2817
10172TIP3    H154711   1.256   0.656   2.933 -1.8058 -1.6406  0.8055
10172TIP3    H254712   1.157   0.736   3.015 -0.8091  1.4357 -0.8308
10173TIP3   OH254713   6.888   7.414   2.306  0.1546 -0.8004  0.1592
10173TIP3    H154714   6.967   7.373   2.341  0.1536 -1.3246 -0.4401
10173TIP3    H254715   6.834   7.430   2.383  0.7113 -0.7213  0.5402
10174TIP3   OH254716   0.194   3.203   2.606 -0.1038  0.2263  0.0488
10174TIP3    H154717   0.106   3.241   2.599  0.0966  0.6911 -0.0249
10174TIP3    H254718   0.253   3.276   2.583  0.3084 -0.0165  0.3297
10175TIP3   OH254719   1.344   0.217   2.307  0.1785 -0.1193  0.4359
10175TIP3    H154720   1.270   0.268   2.275 -0.8574 -1.5839  0.4089
10175TIP3    H254721   1.406   0.282   2.341 -0.5590  1.1987 -0.6841
10176TIP3   OH254722   0.137   5.947   3.092 -0.2746  0.5010 -0.0455
10176TIP3    H154723   0.097   5.890   3.157  0.0996 -1.2198 -1.2731
10176TIP3    H254724   0.216   5.901   3.064  0.1766  1.7383 -0.8992
10177TIP3   OH254725   2.565   7.277   2.393 -0.1950  0.2995  0.0901
10177TIP3    H154726   2.621   7.237   2.461  0.6059  1.2033 -0.0165
10177TIP3    H254727   2.477   7.274   2.430  0.1906  0.5349  1.0627
10178TIP3   OH254728   6.630   4.480   1.886 -0.1778 -0.2324  0.2767
10178TIP3    H154729   6.627   4.395   1.929  0.5423 -0.7112 -0.5893
10178TIP3    H254730   6.652   4.541   1.957 -0.4318 -0.7899  0.8514
10179TIP3   OH254731   4.407   4.739   2.495  0.0662 -0.2492 -0.3527
10179TIP3    H154732   4.454   4.664   2.460  2.4324  0.4847  1.0367
10179TIP3    H254733   4.356   4.703   2.568  0.4442 -0.6713 -0.2925
10180TIP3   OH254734   6.073   6.556   2.286  0.1198 -0.3330 -0.0225
10180TIP3    H154735   6.061   6.469   2.248 -0.3515 -0.7213  0.9796
10180TIP3    H254736   6.095   6.612   2.211  0.4227 -1.3009 -0.6851
10181TIP3   OH254737   3.871   5.328   2.723 -0.1654 -0.5330 -0.2688
10181TIP3    H154738   3.818   5.319   2.644  0.7860 -1.3744 -0.8373
10181TIP3    H254739   3.827   5.395   2.775  0.5019  1.9033 -2.6129
10182TIP3   OH254740   0.587   6.166   1.198  0.3389 -0.1004  0.0483
10182TIP3    H154741   0.631   6.251   1.197 -0.7548  0.4764 -0.5871
10182TIP3    H254742   0.509   6.181   1.252 -0.4837 -0.3605 -1.0444
10183TIP3   OH254743   6.730   4.698   2.603  0.0855  0.0603 -0.1942
10183TIP3    H154744   6.726   4.778   2.551 -0.4796  0.4347  0.4168
10183TIP3    H254745   6.775   4.724   2.684 -0.3376 -0.1696  0.1202
10184TIP3   OH254746   2.250   4.955   0.991 -0.7564  0.2339 -0.7496
10184TIP3    H154747   2.223   5.021   0.927 -0.7100  0.5672 -0.4348
10184TIP3    H254748   2.180   4.955   1.057 -2.0824 -1.9089 -2.0496
10185TIP3   OH254749   3.560   4.006   1.783 -0.0507 -0.3899  0.4581
10185TIP3    H154750   3.581   4.053   1.864 -0.5312  0.8090 -0.0777
10185TIP3    H254751   3.641   3.962   1.758  0.7062  0.9433  0.4852
10186TIP3   OH254752   2.470   2.295   2.676  0.3908 -0.0351 -0.0647
10186TIP3    H154753   2.514   2.211   2.665  0.2260 -0.1918  0.4490
10186TIP3    H254754   2.378   2.277   2.657  0.4737  0.2079 -0.7477
10187TIP3   OH254755   5.110   7.180   2.327 -0.0539 -0.1262  0.0999
10187TIP3    H154756   5.139   7.196   2.237  0.9560  0.8508  0.5629
10187TIP3    H254757   5.066   7.095   2.324  0.6630 -0.4787 -1.1621
10188TIP3   OH254758   3.779   7.014   2.527 -0.4911  0.3406  0.6409
10188TIP3    H154759   3.793   7.087   2.587 -1.0066 -0.4097  1.7150
10188TIP3    H254760   3.857   6.959   2.538  0.0343  0.8480 -0.3808
10189TIP3   OH254761   0.141   2.030   2.189 -0.1514 -0.5248 -0.7173
10189TIP3    H154762   0.186   2.102   2.146 -0.3871 -0.3456 -0.6664
10189TIP3    H254763   0.199   2.005   2.261 -0.1195 -0.3211 -0.6737
10190TIP3   OH254764   5.906   1.955   2.792 -0.2682  0.3737  0.1510
10190TIP3    H154765   5.999   1.957   2.818 -0.0274  1.3836 -0.7040
10190TIP3    H254766   5.865   1.897   2.856  1.0081 -0.3412  0.3664
10191TIP3   OH254767   2.290   1.105   0.835  0.0435 -0.4526  0.0387
10191TIP3    H154768   2.257   1.104   0.745 -0.2349 -2.2691  0.1365
10191TIP3    H254769   2.231   1.165   0.881  0.6647  1.1149 -1.1320
10192TIP3   OH254770   7.276   6.671   3.469 -0.8277  0.2795 -0.5506
10192TIP3    H154771   7.340   6.605   3.441 -1.5509 -0.2151 -1.0830
10192TIP3    H254772   7.217   6.624   3.527  0.2306  1.1300  1.3029
10193TIP3   OH254773   2.581   4.962   1.662  0.2854 -0.3508  0.3321
10193TIP3    H154774   2.591   4.953   1.568  0.8349  0.4435  0.2990
10193TIP3    H254775   2.513   4.899   1.686  0.6147 -1.0322 -0.4871
10194TIP3   OH254776   2.807   1.974   2.038  0.0536 -0.0081  0.1286
10194TIP3    H154777   2.866   1.969   2.113 -0.5994 -0.9982  0.5900
10194TIP3    H254778   2.762   1.890   2.037 -0.2974  0.1769 -1.0921
10195TIP3   OH254779   5.218   6.999   1.890  0.2924 -0.2983 -0.3311
10195TIP3    H154780   5.245   6.976   1.801  2.0023  0.0443  0.0674
10195TIP3    H254781   5.192   7.091   1.884  0.3106 -0.3026 -0.4859
10196TIP3   OH254782   4.711   7.012   2.265 -0.2489  0.0902 -0.2948
10196TIP3    H154783   4.778   7.067   2.306 -0.4121  0.4153 -0.4582
10196TIP3    H254784   4.721   7.028   2.171  0.8805 -1.5234 -0.4743
10197TIP3   OH254785   7.051   1.621   1.900 -0.2752  0.3022  0.1536
10197TIP3    H154786   7.120   1.650   1.960 -1.0240  1.1713  0.6175
10197TIP3    H254787   6.972   1.620   1.954 -0.6673 -0.4950 -0.4184
10198TIP3   OH254788   7.442   3.521   2.605 -0.1090  0.5266 -0.5494
10198TIP3    H154789   7.431   3.520   2.700  1.1728  1.7296 -0.3436
10198TIP3    H254790   7.356   3.502   2.570 -0.9616  1.5686  0.8723
10199TIP3   OH254791   3.404   5.326   2.221  0.0711  1.3247  0.2447
10199TIP3    H154792   3.385   5.256   2.158 -0.5721  0.2643  1.5740
10199TIP3    H254793   3.451   5.391   2.170  0.8549 -0.1484 -1.0052
10200TIP3   OH254794   1.200   1.008   2.861 -0.3139 -0.1308  0.3582
10200TIP3    H154795   1.216   1.065   2.937 -1.0327 -1.4548  1.5569
10200TIP3    H254796   1.219   0.920   2.893 -4.1169 -1.2052  0.2002
10201TIP3   OH254797   5.534   5.205   0.795  0.0799 -0.1733 -0.0379
10201TIP3    H154798   5.548   5.207   0.890  2.1793 -1.2642 -0.2612
10201TIP3    H254799   5.590   5.133   0.765  0.1132  0.6967 -2.2044
10202TIP3   OH254800   6.306   4.744   0.614  0.0987 -0.3192  0.0074
10202TIP3    H154801   6.330   4.733   0.706  2.2782  3.3887  0.0991
10202TIP3    H254802   6.372   4.694   0.566  1.4300  0.9181  0.4753
10203TIP3   OH254803   6.897   6.658   3.456  0.2654  0.2079 -0.1077
10203TIP3    H154804   6.951   6.596   3.505 -0.0909 -2.3203 -2.6061
10203TIP3    H254805   6.842   6.700   3.522 -0.2563 -3.0001  1.7189
10204TIP3   OH254806   6.277   1.822   2.672 -0.4305  0.5158  0.0960
10204TIP3    H154807   6.241   1.878   2.740 -1.8709  2.3144 -2.0113
10204TIP3    H254808   6.344   1.875   2.630 -0.8582  0.1872 -1.0548
10205TIP3   OH254809   5.163   7.498   2.709  0.4833 -0.1532 -0.1541
10205TIP3    H154810   5.166   7.495   2.613  1.0390 -1.5581 -0.1206
10205TIP3    H254811   5.087   7.552   2.729  1.2659  1.5139 -1.3714
10206TIP3   OH254812   4.524   4.979   2.438 -0.3346  0.0497  0.6409
10206TIP3    H154813   4.528   4.917   2.511  1.4639  0.0689  0.6099
10206TIP3    H254814   4.563   4.931   2.365 -1.8169  0.1425 -0.2403
10207TIP3   OH254815   5.789   1.598   0.697  0.1963  0.1079  0.9583
10207TIP3    H154816   5.781   1.529   0.632 -0.3229  0.9776  0.0858
10207TIP3    H254817   5.875   1.582   0.737  1.9559  1.3078 -2.0212
10208TIP3   OH254818   2.167   3.325   2.091 -0.0599 -0.3555  0.1204
10208TIP3    H154819   2.185   3.234   2.116 -0.8208 -0.9065 -1.2212
10208TIP3    H254820   2.123   3.362   2.167 -2.6297 -2.0699 -0.4165
10209TIP3   OH254821   0.877   6.126   1.335  0.0505  0.1892 -0.2806
10209TIP3    H154822   0.803   6.115   1.395  0.5612  0.3947  0.3996
10209TIP3    H254823   0.865   6.058   1.269 -1.2373  0.7741 -0.7016
10210TIP3   OH254824   2.062   2.868   1.322 -0.1176  0.0095  0.2514
10210TIP3    H154825   1.981   2.883   1.273  0.7771  1.8186 -0.7822
10210TIP3    H254826   2.036   2.877   1.414 -1.2553 -0.3733 -0.0231
10211TIP3   OH254827   5.731   1.879   0.703  0.0753 -0.4552  0.4123
10211TIP3    H154828   5.776   1.799   0.677  0.4161 -0.7232  1.7218
10211TIP3    H254829   5.763   1.946   0.643  2.1383 -0.6619  1.1926
10212TIP3   OH254830   5.690   2.545   0.782 -0.5006  0.1234 -0.0874
10212TIP3    H154831   5.606   2.562   0.739  0.1399  0.7575 -1.1275
10212TIP3    H254832   5.755   2.553   0.712  0.4830  0.2310  0.8117
10213TIP3   OH254833   3.981   0.440   1.106  0.7291 -0.1997 -0.7296
10213TIP3    H154834   3.934   0.498   1.046 -0.6505 -0.9471 -0.4064
10213TIP3    H254835   3.952   0.352   1.081  0.2063 -0.5339  0.9639
10214TIP3   OH254836   0.225   7.284   2.665  0.0286  0.1412  0.4751
10214TIP3    H154837   0.192   7.263   2.578 -0.7222  0.5300  0.6551
10214TIP3    H254838   0.185   7.219   2.723  1.4551 -0.8554  0.3831
10215TIP3   OH254839   5.854   5.975   1.064  0.3316 -0.3884 -0.7177
10215TIP3    H154840   5.799   5.943   0.993 -0.1149 -0.0851 -0.5139
10215TIP3    H254841   5.792   6.006   1.130  0.7504 -0.0096 -0.4999
10216TIP3   OH254842   4.916   7.297   0.516 -0.1145 -0.6472 -0.2107
10216TIP3    H154843   4.951   7.233   0.453 -1.0481 -2.3546  0.9250
10216TIP3    H254844   4.994   7.334   0.558  0.4765 -0.4013 -1.4597
10217TIP3   OH254845   6.377   0.313   0.894  0.2459  0.0995  0.8281
10217TIP3    H154846   6.379   0.335   0.987 -1.5893  0.0155  0.9169
10217TIP3    H254847   6.354   0.220   0.892  3.2348 -0.7345  0.3197
10218TIP3   OH254848   0.252   1.694   1.106 -0.6042 -0.3836  0.3818
10218TIP3    H154849   0.331   1.652   1.072  1.3756  3.9297 -1.0433
10218TIP3    H254850   0.267   1.700   1.200 -0.0219 -1.0495  0.3413
10219TIP3   OH254851   1.656   6.697   0.702 -0.6378  0.0573  0.1578
10219TIP3    H154852   1.700   6.734   0.778 -1.4555 -0.1590  0.7498
10219TIP3    H254853   1.568   6.734   0.704 -0.6028  0.2465 -0.8367
10220TIP3   OH254854   2.653   7.588   0.583 -0.1145 -0.1530  0.5777
10220TIP3    H154855   2.725   7.553   0.636  0.4109 -0.2547 -0.1821
10220TIP3    H254856   2.666   7.683   0.586  1.1913 -0.2243 -1.0561
10221TIP3   OH254857   4.166   4.758   1.130 -0.6004 -0.1835  0.0562
10221TIP3    H154858   4.246   4.786   1.087 -0.4441 -1.3793 -0.4741
10221TIP3    H254859   4.096   4.778   1.068 -0.9256  2.0641  1.0347
10222TIP3   OH254860   1.068   5.508   0.617 -0.0070  0.0195  0.9382
10222TIP3    H154861   1.064   5.475   0.527  0.9650 -0.3734  1.0259
10222TIP3    H254862   1.127   5.584   0.612 -2.2264  1.8233  0.7366
10223TIP3   OH254863   1.711   5.034   1.871 -0.4114 -0.7196  0.0856
10223TIP3    H154864   1.651   4.966   1.900 -2.1901  0.8445  0.2824
10223TIP3    H254865   1.737   5.008   1.783 -1.0144 -1.6577  0.1717
10224TIP3   OH254866   4.384   6.605   0.856  0.2024 -0.0381  0.2081
10224TIP3    H154867   4.405   6.546   0.928  2.0001  2.0892  1.5519
10224TIP3    H254868   4.288   6.607   0.853  0.0864 -2.5737  0.4097
10225TIP3   OH254869   5.871   7.005   1.486  0.4562  0.4341  0.0821
10225TIP3    H154870   5.883   6.910   1.479 -0.1079  0.3623  0.0856
10225TIP3    H254871   5.958   7.041   1.468  0.3560 -0.0226 -1.5308
10226TIP3   OH254872   3.718   0.597   1.060 -0.3010  0.4317  0.1139
10226TIP3    H154873   3.628   0.594   1.026 -0.9894 -0.9073  1.9191
10226TIP3    H254874   3.721   0.676   1.113  0.7787  2.5329 -2.7696
10227TIP3   OH254875   1.235   1.487   1.753  0.3296  0.2685  0.5078
10227TIP3    H154876   1.158   1.530   1.790  0.5850 -0.0913  1.4932
10227TIP3    H254877   1.222   1.491   1.659  0.5230  2.8061  0.5219
10228TIP3   OH254878   6.217   6.699   1.772 -0.1750  0.3944  0.0536
10228TIP3    H154879   6.312   6.711   1.783  0.0111 -1.2025  0.4428
10228TIP3    H254880   6.206   6.683   1.678 -0.5099  3.7272 -0.6174
10229TIP3   OH254881   5.379   4.390   1.344  0.1070 -0.2104 -0.4430
10229TIP3    H154882   5.394   4.400   1.438  0.9825 -0.0597 -0.5856
10229TIP3    H254883   5.318   4.460   1.322 -0.9493 -0.9043  0.1930
10230TIP3   OH254884   0.018   3.824   0.759 -0.0015  0.0467 -0.6077
10230TIP3    H154885  -0.054   3.854   0.704  1.0293  0.9029 -1.5254
10230TIP3    H254886  -0.024   3.801   0.842 -1.5547 -0.9885 -1.6162
10231TIP3   OH254887   1.025   6.069   2.271  0.2410  0.0683 -0.3880
10231TIP3    H154888   1.005   6.122   2.348  2.0028  0.3208 -0.0724
10231TIP3    H254889   0.941   6.028   2.249 -0.7151  1.4080  0.5502
10232TIP3   OH254890   2.401   3.797   2.556  0.5704  0.3621  0.6504
10232TIP3    H154891   2.468   3.758   2.500  0.2080  2.1618 -1.1188
10232TIP3    H254892   2.442   3.877   2.590  0.3721 -0.1155  2.0801
10233TIP3   OH254893   5.554   1.012   2.941 -0.5155  0.0189 -0.4187
10233TIP3    H154894   5.526   0.946   3.005  0.2000 -0.2673 -0.3910
10233TIP3    H254895   5.644   1.033   2.967 -1.3707  2.5400  0.8428
10234TIP3   OH254896   6.203   0.200   2.842 -0.1364  0.4836  0.2953
10234TIP3    H154897   6.129   0.176   2.787  0.8918  1.3362 -1.5428
10234TIP3    H254898   6.178   0.172   2.930 -1.9863 -0.5998 -0.5308
10235TIP3   OH254899   1.182   1.865   2.285  0.3470  0.1142  0.1478
10235TIP3    H154900   1.095   1.826   2.292  1.1636 -1.6424  1.6415
10235TIP3    H254901   1.228   1.809   2.223  0.7716  0.2719  0.3157
10236TIP3   OH254902   4.363   5.668   1.697  0.1084 -0.1702  0.1203
10236TIP3    H154903   4.323   5.595   1.649 -1.1062  0.7703 -0.3360
10236TIP3    H254904   4.440   5.629   1.740  0.3200 -1.3798 -1.2939
10237TIP3   OH254905   7.572   6.698   3.197 -0.1485  0.4678  0.2518
10237TIP3    H154906   7.612   6.782   3.171 -1.1838  1.0461  0.4623
10237TIP3    H254907   7.479   6.709   3.176 -0.4761 -0.2377  1.2770
10238TIP3   OH254908   2.040   1.039   1.692  0.4138 -0.0506  0.1770
10238TIP3    H154909   1.977   0.969   1.711  0.7809 -0.4699 -0.1387
10238TIP3    H254910   2.007   1.114   1.741 -0.7666 -0.0432 -0.5988
10239TIP3   OH254911   3.218   4.573   2.328 -0.1338 -0.1219  0.0202
10239TIP3    H154912   3.218   4.532   2.414 -3.3408 -0.2603  0.0651
10239TIP3    H254913   3.269   4.512   2.273  1.4925 -0.2943  1.6207
10240TIP3   OH254914   0.828   7.235   2.114  0.5631  0.1526  0.1299
10240TIP3    H154915   0.828   7.315   2.166 -1.2125  0.0955  0.2723
10240TIP3    H254916   0.736   7.213   2.102  0.9929 -1.8879  0.0984
10241TIP3   OH254917   4.664   6.213   3.287  0.1554  0.0734  0.5439
10241TIP3    H154918   4.674   6.178   3.376  0.1859 -1.2414  0.0486
10241TIP3    H254919   4.580   6.257   3.288 -0.1844 -0.5682  1.0283
10242TIP3   OH254920   3.561   6.278   1.165  0.4197  0.2044 -0.0745
10242TIP3    H154921   3.651   6.248   1.178  0.7336  0.3763 -1.6505
10242TIP3    H254922   3.537   6.319   1.248  1.6899 -0.0909  0.4634
10243TIP3   OH254923   1.906   5.277   1.572  0.1701  0.1758 -0.2538
10243TIP3    H154924   1.977   5.213   1.567  0.7013  0.6940  0.5170
10243TIP3    H254925   1.826   5.225   1.560  0.5768 -0.6722  0.5983
10244TIP3   OH254926   0.873   1.886   0.633 -0.2525 -0.4856  0.1096
10244TIP3    H154927   0.829   1.823   0.690  1.2932 -1.5197  0.2423
10244TIP3    H254928   0.904   1.955   0.693 -2.0397  0.5053 -0.0514
10245TIP3   OH254929   2.371   6.965   0.669  0.2682  0.3350 -0.0828
10245TIP3    H154930   2.317   6.886   0.656  0.8259 -0.3961  1.6806
10245TIP3    H254931   2.460   6.936   0.650  0.4258  0.6378  0.1861
10246TIP3   OH254932   0.238   2.331   0.890 -0.1496 -0.7708  0.1453
10246TIP3    H154933   0.252   2.421   0.862 -0.8725  0.7910  4.0574
10246TIP3    H254934   0.156   2.305   0.850 -1.0459  1.1854  0.5897
10247TIP3   OH254935   5.548   2.662   3.120 -0.5288  0.0734  0.0901
10247TIP3    H154936   5.598   2.602   3.175  0.6415 -1.9830 -2.9292
10247TIP3    H254937   5.467   2.615   3.099 -1.5152  1.3174  0.9444
10248TIP3   OH254938   5.440   7.370   1.865  0.3345  0.2150  1.0519
10248TIP3    H154939   5.480   7.289   1.897 -1.7982 -1.2038  0.2932
10248TIP3    H254940   5.377   7.342   1.799  0.6257  2.6405 -0.4029
10249TIP3   OH254941   5.885   4.941   2.672 -0.4090 -0.1766 -0.3121
10249TIP3    H154942   5.902   4.873   2.608 -0.2319 -0.2010 -0.2401
10249TIP3    H254943   5.912   5.022   2.629  2.7719 -0.4801  0.8204
10250TIP3   OH254944   0.061   2.215   0.705  0.0949 -0.7587  0.2681
10250TIP3    H154945   0.033   2.258   0.624  2.4130  0.8237  0.2167
10250TIP3    H254946   0.106   2.136   0.675  2.1924  0.5248 -0.1754
10251TIP3   OH254947   4.804   7.389   1.807  0.3804  0.7542  0.5484
10251TIP3    H154948   4.780   7.304   1.769  1.7531 -0.1317  1.5531
10251TIP3    H254949   4.731   7.446   1.785 -1.6558 -1.2379  1.6785
10252TIP3   OH254950   1.038   2.002   1.752  0.1423 -0.1606  0.5853
10252TIP3    H154951   1.063   1.942   1.822  0.4018  1.3832  1.8692
10252TIP3    H254952   0.944   1.987   1.740  0.0135 -0.1391  1.5590
10253TIP3   OH254953   0.229   2.287   1.183  0.4046 -0.2683 -0.4726
10253TIP3    H154954   0.210   2.283   1.090 -1.6392 -0.9552 -0.1008
10253TIP3    H254955   0.170   2.354   1.217  0.3234 -0.7922  0.4703
10254TIP3   OH254956   6.942   2.355   2.927  0.2524 -0.0392  0.3149
10254TIP3    H154957   6.861   2.306   2.943  0.1407 -0.4027 -1.2111
10254TIP3    H254958   7.000   2.293   2.883  0.5295  0.8411 -0.6083
10255TIP3   OH254959   2.379   4.869   2.740  0.4846  0.8126 -0.0537
10255TIP3    H154960   2.347   4.811   2.671 -0.5011  0.2378  0.8615
10255TIP3    H254961   2.433   4.934   2.694  0.7954 -0.2341 -1.2131
10256TIP3   OH254962   5.701   7.002   2.846  0.0892 -0.3138 -0.2076
10256TIP3    H154963   5.627   6.953   2.879 -0.1353  0.7083  0.8833
10256TIP3    H254964   5.759   7.012   2.921 -0.1351  1.5327 -0.2275
10257TIP3   OH254965   6.889   7.199   2.094 -0.4611 -0.5319 -0.3479
10257TIP3    H154966   6.915   7.195   2.002  1.6419 -0.9965  0.2167
10257TIP3    H254967   6.805   7.244   2.093  0.5667  1.5501 -2.3051
10258TIP3   OH254968   1.021   2.358   0.945 -0.2575 -0.0504  0.4612
10258TIP3    H154969   1.027   2.441   0.898  0.9745 -1.1231 -1.4296
10258TIP3    H254970   1.105   2.352   0.992  1.8083 -2.1476 -3.0549
10259TIP3   OH254971   2.945   1.467   1.027 -0.4133  0.2369 -0.2131
10259TIP3    H154972   2.895   1.519   0.964 -1.5361  0.3548  0.7370
10259TIP3    H254973   2.881   1.406   1.064  0.3270 -0.1397  0.4902
10260TIP3   OH254974   4.947   6.756   1.284 -0.1827  0.0936 -0.5042
10260TIP3    H154975   4.957   6.701   1.206  0.4069  1.4432 -1.4238
10260TIP3    H254976   4.895   6.830   1.254 -2.6876 -0.8314  1.2025
10261TIP3   OH254977   3.350   7.108   1.577 -0.8287 -0.3204  0.5610
10261TIP3    H154978   3.439   7.073   1.581 -0.2612  0.6434 -1.8251
10261TIP3    H254979   3.293   7.032   1.586  0.2889 -1.2496 -0.0389
10262TIP3   OH254980   5.318   4.598   1.803 -0.3609  0.3928 -0.7800
10262TIP3    H154981   5.238   4.547   1.790  1.5987 -3.3388  0.1869
10262TIP3    H254982   5.350   4.569   1.889  2.4549  1.0217 -1.5212
10263TIP3   OH254983   3.371   0.159   2.843  1.0815 -0.1323 -0.6510
10263TIP3    H154984   3.439   0.112   2.795  0.9125 -0.3852 -0.6457
10263TIP3    H254985   3.293   0.104   2.834  0.9019  0.1110 -0.5803
10264TIP3   OH254986   3.722   1.738   0.681  0.5605  0.3120  0.4856
10264TIP3    H154987   3.755   1.750   0.770  1.7151  0.1226  0.1077
10264TIP3    H254988   3.801   1.735   0.627 -0.1266  0.4912 -0.5556
10265TIP3   OH254989   6.157   4.930   3.634  0.3261  0.3570  0.4927
10265TIP3    H154990   6.103   4.858   3.664  1.1431 -0.6558 -0.3977
10265TIP3    H254991   6.095   4.997   3.605 -0.4905 -1.0042 -1.0643
10266TIP3   OH254992   4.153   6.397   2.015 -0.4310 -0.1335  0.2069
10266TIP3    H154993   4.085   6.463   2.023  0.7186  0.9081  1.8896
10266TIP3    H254994   4.230   6.444   1.984 -0.1585 -1.1139 -0.6973
10267TIP3   OH254995   0.734   5.509   2.136 -0.3473 -0.5693 -0.7923
10267TIP3    H154996   0.739   5.525   2.041  0.6844  0.8469 -0.5385
10267TIP3    H254997   0.676   5.578   2.168 -1.8045 -1.8731 -0.5331
10268TIP3   OH254998   5.990   2.876   1.881 -0.6338 -0.2432 -0.0866
10268TIP3    H154999   5.971   2.783   1.867  0.2557 -0.5869  0.9581
10268TIP3    H255000   5.969   2.917   1.796 -2.7028 -1.1032 -0.0536
10269TIP3   OH255001   0.836   7.424   0.768  0.2854  0.4652 -0.7348
10269TIP3    H155002   0.782   7.345   0.768 -0.0154  0.6711 -0.8935
10269TIP3    H255003   0.882   7.422   0.852  0.1441  0.2133 -0.6646
10270TIP3   OH255004   7.122   1.515   3.496  0.0641  0.2255 -0.0409
10270TIP3    H155005   7.160   1.437   3.456  0.2613 -0.4543  1.3802
10270TIP3    H255006   7.126   1.582   3.429  2.2157 -0.2910 -0.4870
10271TIP3   OH255007   4.938   3.513   1.378 -0.4213 -0.3584 -0.3974
10271TIP3    H155008   4.890   3.519   1.295  0.2299 -1.6992 -0.8938
10271TIP3    H255009   4.998   3.439   1.366  0.3953  0.0591  0.9131
10272TIP3   OH255010   1.551   3.565   0.646  0.2417  0.4821  0.5139
10272TIP3    H155011   1.575   3.655   0.669 -0.9646  0.4759  1.9305
10272TIP3    H255012   1.464   3.572   0.608  0.3886 -0.0415  0.0547
10273TIP3   OH255013   7.023   1.948   1.922 -0.3928 -0.2302  0.4129
10273TIP3    H155014   6.959   1.885   1.891 -0.5374  0.7582 -1.4356
10273TIP3    H255015   7.053   1.912   2.005 -0.0579 -3.0369 -0.7900
10274TIP3   OH255016   3.302   3.578   1.894 -0.6224  0.5396  0.4555
10274TIP3    H155017   3.208   3.564   1.883 -1.0384  2.2814  1.4182
10274TIP3    H255018   3.340   3.491   1.889 -2.1816 -0.1146 -0.8336
10275TIP3   OH255019   5.795   7.527   1.093  0.1569  0.0866 -0.2309
10275TIP3    H155020   5.790   7.462   1.023  1.4579 -1.1726  0.8034
10275TIP3    H255021   5.728   7.591   1.070 -1.9080 -2.1233 -0.7395
10276TIP3   OH255022   6.195   0.807   1.834  0.1918 -0.2284  0.0480
10276TIP3    H155023   6.177   0.766   1.919 -1.1155  1.2952  0.5717
10276TIP3    H255024   6.250   0.882   1.855  2.8212 -1.7386 -0.9322
10277TIP3   OH255025   0.096   0.302   2.285 -0.3754  0.4225 -0.3007
10277TIP3    H155026   0.100   0.214   2.320 -1.3626 -0.0395 -1.2609
10277TIP3    H255027   0.182   0.340   2.302 -0.7659  0.2635  2.5792
10278TIP3   OH255028   3.718   4.820   2.117 -0.0899  0.0846 -0.1548
10278TIP3    H155029   3.696   4.892   2.176  2.2394  0.1749  0.6998
10278TIP3    H255030   3.801   4.846   2.077  0.8872 -2.1241  0.2851
10279TIP3   OH255031   0.739   1.433   1.248 -0.9379 -0.1775  0.6150
10279TIP3    H155032   0.683   1.488   1.303  1.4586 -1.3074  4.6057
10279TIP3    H255033   0.792   1.494   1.197 -3.5244  0.9133 -0.9744
10280TIP3   OH255034   1.064   0.556   2.740  0.3062 -0.2566  0.3818
10280TIP3    H155035   1.071   0.639   2.787  0.6662  0.2137 -0.4869
10280TIP3    H255036   0.982   0.518   2.771 -0.1893  0.7245  0.3068
10281TIP3   OH255037   4.312   0.952   2.022 -0.2378  0.0590  0.5165
10281TIP3    H155038   4.310   0.875   1.966 -1.8947  0.4961 -0.0874
10281TIP3    H255039   4.268   0.925   2.103  1.1882 -0.2520  1.2282
10282TIP3   OH255040   6.786   2.221   1.619 -0.0558 -0.2464  0.4239
10282TIP3    H155041   6.824   2.234   1.706  0.7490  0.2218  0.0118
10282TIP3    H255042   6.794   2.306   1.577 -0.4306 -0.4762 -0.1219
10283TIP3   OH255043   1.185   2.495   1.297 -0.2519 -0.2915 -0.2909
10283TIP3    H155044   1.265   2.527   1.256 -0.4249  1.9977  0.9607
10283TIP3    H255045   1.213   2.463   1.383 -0.6187  0.1871  0.0122
10284TIP3   OH255046   0.157   2.845   2.645  0.5532  0.1696 -0.2912
10284TIP3    H155047   0.088   2.911   2.651 -0.4510 -0.6759 -1.9164
10284TIP3    H255048   0.170   2.817   2.736  1.4000  2.9199  0.5256
10285TIP3   OH255049   4.849   7.242   2.351  0.0284 -0.0162  0.1273
10285TIP3    H155050   4.820   7.333   2.360 -1.0923 -0.2876 -0.5552
10285TIP3    H255051   4.935   7.248   2.309  0.8374  0.7919  1.8124
10286TIP3   OH255052   6.106   1.248   2.618 -0.3077  0.4271  0.0793
10286TIP3    H155053   6.087   1.280   2.530  1.5266  0.6004 -0.2987
10286TIP3    H255054   6.149   1.322   2.661  0.4053 -0.2302  0.5226
10287TIP3   OH255055   4.973   5.433   1.419 -0.2307 -0.3942  0.0604
10287TIP3    H155056   5.045   5.393   1.468 -1.3258 -1.4894  0.8485
10287TIP3    H255057   4.917   5.360   1.394 -0.3944  0.2899 -1.7198
10288TIP3   OH255058   7.060   0.270   1.932  0.3822 -0.4115  0.2868
10288TIP3    H155059   7.026   0.190   1.973  0.1359 -0.3893  0.1293
10288TIP3    H255060   6.985   0.330   1.931  0.3223 -0.4931 -0.4141
10289TIP3   OH255061   1.114   3.803   2.175  0.2111 -0.0734 -0.1694
10289TIP3    H155062   1.040   3.863   2.161 -0.3762 -0.9178 -0.7321
10289TIP3    H255063   1.075   3.716   2.179  1.2424 -0.6051 -1.1371
10290TIP3   OH255064   4.559   1.365   0.740 -0.1575 -0.4558 -0.3059
10290TIP3    H155065   4.620   1.410   0.681 -0.4589  0.1550 -0.1685
10290TIP3    H255066   4.532   1.287   0.692  1.7431 -1.4467  0.1698
10291TIP3   OH255067   1.155   5.518   1.227  0.2823 -0.2463  0.3025
10291TIP3    H155068   1.165   5.495   1.135 -0.8457 -2.2635  0.6419
10291TIP3    H255069   1.232   5.480   1.269  0.1969 -0.3333  0.3780
10292TIP3   OH255070   7.365   0.488   2.101  0.2109 -0.2839  0.3148
10292TIP3    H155071   7.454   0.505   2.132  1.0207 -1.4310 -1.2220
10292TIP3    H255072   7.339   0.407   2.146  0.2527 -0.3791  0.1677
10293TIP3   OH255073   6.747   1.161   0.741 -0.0219  0.3040 -0.5067
10293TIP3    H155074   6.716   1.225   0.806 -1.5679 -0.7058 -0.1895
10293TIP3    H255075   6.760   1.080   0.792 -1.8923 -0.6923 -1.5043
10294TIP3   OH255076   0.400   4.713   0.811 -0.5907 -0.0689 -0.0111
10294TIP3    H155077   0.382   4.624   0.780 -1.7399  0.6396 -1.4931
10294TIP3    H255078   0.394   4.706   0.906  2.1248 -2.1347  0.1414
10295TIP3   OH255079   2.422   7.298   2.174 -0.0543 -0.4803 -0.5547
10295TIP3    H155080   2.424   7.206   2.147  1.2526 -0.0759 -1.9961
10295TIP3    H255081   2.493   7.307   2.238 -0.7883 -0.6523  0.3035
10296TIP3   OH255082   4.986   1.427   2.315 -0.6396 -0.4741  0.2671
10296TIP3    H155083   4.982   1.340   2.274  0.7368  0.2429 -1.5337
10296TIP3    H255084   5.079   1.446   2.321 -0.8207 -0.0226  2.7839
10297TIP3   OH255085   7.364   0.883   0.958  0.7442 -0.0360  0.0701
10297TIP3    H155086   7.325   0.900   1.044  1.1178 -0.8332  0.4048
10297TIP3    H255087   7.298   0.912   0.896 -0.4009 -1.3467  0.6231
10298TIP3   OH255088   6.033   0.210   1.704  0.1437 -0.5090 -0.6790
10298TIP3    H155089   5.956   0.154   1.693 -0.7227  0.6412 -0.6483
10298TIP3    H255090   6.037   0.227   1.798  1.0802 -1.4223 -0.5346
10299TIP3   OH255091   2.061   0.471   1.744 -0.2767  0.0210 -0.1284
10299TIP3    H155092   2.059   0.376   1.754  0.3109  0.1167  1.0037
10299TIP3    H255093   2.147   0.490   1.708 -0.2827  0.1548 -0.0726
10300TIP3   OH255094   0.977   5.841   2.603 -0.5540 -0.3125 -0.6827
10300TIP3    H155095   1.055   5.884   2.566 -0.2393  0.7532  1.1162
10300TIP3    H255096   0.915   5.913   2.615 -0.7005 -0.6576  0.6797
10301TIP3   OH255097   2.402   7.046   2.895 -0.6054  0.5968  0.3057
10301TIP3    H155098   2.455   7.125   2.886 -0.0309  0.3258  1.1469
10301TIP3    H255099   2.466   6.978   2.917 -1.0705 -0.1427 -0.6079
10302TIP3   OH255100   1.160   3.452   0.953  0.5194  0.6901  0.1305
10302TIP3    H155101   1.097   3.453   0.882 -1.2793 -1.4007  1.5810
10302TIP3    H255102   1.127   3.516   1.016 -0.0937 -0.2654  0.8033
10303TIP3   OH255103   1.350   1.075   0.871 -0.5795  0.2640 -0.1833
10303TIP3    H155104   1.371   1.145   0.809 -0.2961  0.4033  0.0677
10303TIP3    H255105   1.291   1.116   0.934 -1.4013 -0.0494 -0.7208
10304TIP3   OH255106   3.318   3.822   2.451 -0.4627 -0.3204 -0.2419
10304TIP3    H155107   3.367   3.893   2.491  1.1055 -1.0524 -0.7870
10304TIP3    H255108   3.314   3.844   2.358 -1.0299 -0.3461 -0.2265
10305TIP3   OH255109   4.174   4.322   2.193 -0.1919  0.1261  0.2589
10305TIP3    H155110   4.092   4.367   2.214 -0.8292 -1.1188  0.5722
10305TIP3    H255111   4.192   4.345   2.102 -1.5427 -0.4956 -0.1949
10306TIP3   OH255112   0.089   6.583   2.079 -0.3179  0.2112 -0.3476
10306TIP3    H155113   0.029   6.537   2.019 -0.7968  0.5526 -0.1381
10306TIP3    H255114   0.150   6.629   2.021 -0.3182 -0.0660 -0.5666
10307TIP3   OH255115   2.818   5.834   2.366 -0.2812 -0.3012  0.3469
10307TIP3    H155116   2.881   5.874   2.306  0.8798 -0.2738  1.5310
10307TIP3    H255117   2.780   5.761   2.317  0.4411 -0.1179 -0.5060
10308TIP3   OH255118   3.083   2.265   2.903 -1.0037 -0.0481  0.1870
10308TIP3    H155119   3.143   2.194   2.882 -1.3260 -0.2529 -0.0357
10308TIP3    H255120   3.139   2.333   2.941 -0.5285  0.0218 -0.6213
10309TIP3   OH255121   1.060   2.697   0.429 -0.8320 -0.2620  0.0734
10309TIP3    H155122   0.997   2.765   0.406  1.2887  1.4751 -1.0500
10309TIP3    H255123   1.058   2.636   0.355 -1.5399 -0.5051  0.2888
10310TIP3   OH255124   4.900   4.371   2.196 -0.2367  0.2939 -0.9251
10310TIP3    H155125   4.903   4.276   2.187 -0.4902  0.2998 -1.0865
10310TIP3    H255126   4.972   4.403   2.141  0.6890  0.1333  0.1548
10311TIP3   OH255127   3.740   2.568   2.838  0.8610 -0.0658  0.3080
10311TIP3    H155128   3.711   2.621   2.763  0.5908 -0.2246  0.3012
10311TIP3    H255129   3.660   2.547   2.886  0.6214 -2.4610 -0.9752
10312TIP3   OH255130   3.513   3.496   0.497  0.1389  0.3632 -0.5458
10312TIP3    H155131   3.602   3.466   0.481 -0.5070 -0.9578 -1.8648
10312TIP3    H255132   3.477   3.433   0.559  0.2741  1.2105  0.4176
10313TIP3   OH255133   1.444   5.030   2.745 -0.0633 -0.5814  0.5957
10313TIP3    H155134   1.539   5.018   2.741  0.2125  0.7930  2.1050
10313TIP3    H255135   1.418   4.990   2.828 -0.6502 -0.0511  0.6730
10314TIP3   OH255136   3.083   0.834   1.433 -0.3008 -0.0983  0.4609
10314TIP3    H155137   3.088   0.763   1.369  0.4334 -0.1974  0.6157
10314TIP3    H255138   3.150   0.896   1.405 -0.4004  0.1523  0.7784
10315TIP3   OH255139   0.007   6.275   3.351 -0.5104 -0.3158  0.4558
10315TIP3    H155140   0.097   6.306   3.347 -0.4640 -0.5285 -1.6739
10315TIP3    H255141   0.011   6.194   3.401  1.3228 -2.6210 -2.9969
10316TIP3   OH255142   2.172   3.225   0.780  0.6587 -0.2091 -0.2682
10316TIP3    H155143   2.109   3.250   0.713 -0.3673 -0.1866  0.6753
10316TIP3    H255144   2.221   3.153   0.741 -0.2023 -0.4753 -0.8963
10317TIP3   OH255145   5.081   2.072   0.721  0.1190 -0.4671  0.3463
10317TIP3    H155146   5.047   2.129   0.652  0.5198 -0.9602 -0.2695
10317TIP3    H255147   5.027   2.092   0.798 -0.4209 -0.0126 -0.1445
10318TIP3   OH255148   3.774   5.368   0.938  0.3725  0.1595 -0.1350
10318TIP3    H155149   3.685   5.374   0.905 -0.4250 -0.2540  1.8206
10318TIP3    H255150   3.820   5.315   0.873 -0.7378  0.5655 -1.2735
10319TIP3   OH255151   5.545   7.132   1.942 -0.1130  0.6992 -0.0443
10319TIP3    H155152   5.564   7.070   2.013  1.2121  2.0918  0.8811
10319TIP3    H255153   5.565   7.083   1.862  0.6008 -0.1804  0.6433
10320TIP3   OH255154   4.579   5.935   2.300 -0.5105 -0.1764  0.6023
10320TIP3    H155155   4.599   5.920   2.392 -3.3247  0.8677  1.4683
10320TIP3    H255156   4.534   5.855   2.272  1.5242 -1.0679 -0.3358
10321TIP3   OH255157   2.113   6.469   1.996  0.3140 -0.0979 -0.4388
10321TIP3    H155158   2.030   6.447   2.039 -0.9133  1.9516 -1.6386
10321TIP3    H255159   2.106   6.429   1.909  1.1858 -1.0135 -0.1162
10322TIP3   OH255160   2.189   3.872   1.660  0.0986 -0.4620 -0.0244
10322TIP3    H155161   2.171   3.804   1.595 -4.4410  0.9847 -0.6141
10322TIP3    H255162   2.170   3.831   1.744 -0.0959 -0.6411 -0.1560
10323TIP3   OH255163   0.941   1.826   1.950 -0.3308  0.1451  0.0200
10323TIP3    H155164   0.967   1.783   2.031 -2.8142 -2.0050 -0.2123
10323TIP3    H255165   0.886   1.899   1.978 -1.0315 -0.4829  0.3125
10324TIP3   OH255166   5.234   1.295   2.723 -0.0067 -0.2053 -0.1393
10324TIP3    H155167   5.205   1.250   2.802  2.5260  0.2213  1.1255
10324TIP3    H255168   5.213   1.388   2.739 -3.3062 -0.4832 -1.8631
10325TIP3   OH255169   0.330   2.779   1.791  0.0733  0.1922  0.0080
10325TIP3    H155170   0.379   2.850   1.749 -0.5850 -0.0156 -1.1262
10325TIP3    H255171   0.247   2.819   1.818  0.7461  0.5037  1.7966
10326TIP3   OH255172   0.812   3.728   2.266 -0.3629  0.0960 -0.0642
10326TIP3    H155173   0.739   3.765   2.316  1.5008  1.6588  1.6811
10326TIP3    H255174   0.834   3.796   2.202 -0.2555 -0.2350 -0.3803
10327TIP3   OH255175   1.670   5.301   1.809  0.4782  0.0990  0.1522
10327TIP3    H155176   1.699   5.211   1.822  0.6647 -0.0328 -1.0383
10327TIP3    H255177   1.627   5.300   1.724  1.2335  1.2976 -0.2768
10328TIP3   OH255178   4.038   0.907   1.750  0.0863 -0.0241 -0.2800
10328TIP3    H155179   4.078   0.878   1.669  1.3039  0.0844  0.2491
10328TIP3    H255180   4.080   0.992   1.768  0.3280 -0.3455  0.7740
10329TIP3   OH255181   7.022   0.586   3.057  0.8139 -0.0242  0.1110
10329TIP3    H155182   7.038   0.676   3.083 -1.9579  1.4420 -2.5426
10329TIP3    H255183   7.080   0.571   2.983 -0.5890  0.6584 -1.1911
10330TIP3   OH255184   0.156   7.415   1.024 -0.6516 -0.2612 -0.0256
10330TIP3    H155185   0.064   7.409   0.999 -0.6667  1.9635 -0.6702
10330TIP3    H255186   0.201   7.352   0.967 -1.4760  0.3303 -1.3608
10331TIP3   OH255187   4.721   3.314   1.269  0.5425  0.1441 -0.2203
10331TIP3    H155188   4.682   3.386   1.319  0.4667 -1.1451  1.6903
10331TIP3    H255189   4.654   3.245   1.270  1.0947 -0.4152 -0.9199
10332TIP3   OH255190   2.883   2.869   1.011 -0.2647  0.4232  0.3663
10332TIP3    H155191   2.949   2.841   1.075  1.6220 -0.6139 -1.8847
10332TIP3    H255192   2.810   2.808   1.023  1.0840 -1.3575 -0.0637
10333TIP3   OH255193   5.673   6.901   2.110 -0.5069  0.1766 -0.0867
10333TIP3    H155194   5.652   6.872   2.199 -0.0432 -0.5182 -0.1940
10333TIP3    H255195   5.751   6.955   2.120 -1.0284  0.9251  0.0404
10334TIP3   OH255196   1.920   5.524   1.677 -0.2196  0.3929  0.2276
10334TIP3    H155197   1.834   5.557   1.702 -0.5135 -0.9721  1.1127
10334TIP3    H255198   1.901   5.446   1.624  0.4664  1.0593 -1.0571
10335TIP3   OH255199   7.064   1.437   1.699 -0.2136  0.4536  0.1744
10335TIP3    H155200   7.112   1.373   1.752  0.0332  0.1705 -0.3714
10335TIP3    H255201   7.047   1.510   1.758  1.5908  0.9042  0.2009
10336TIP3   OH255202   2.640   3.860   3.024 -0.0313  0.4730 -0.2656
10336TIP3    H155203   2.549   3.853   2.996  0.0596  0.1613 -0.4840
10336TIP3    H255204   2.635   3.892   3.115 -0.4618 -1.9409  0.6207
10337TIP3   OH255205   5.344   1.691   1.398 -0.1126  0.3774  0.1879
10337TIP3    H155206   5.294   1.753   1.345  0.6391  0.6407 -0.2411
10337TIP3    H255207   5.381   1.744   1.469 -1.2269 -0.0004  1.0738
10338TIP3   OH255208   1.525   3.783   1.053 -0.0526 -0.0122 -0.3106
10338TIP3    H155209   1.482   3.704   1.021 -0.1791  0.1981 -0.6623
10338TIP3    H255210   1.453   3.845   1.070  0.0522  0.0621 -0.1331
10339TIP3   OH255211   5.033   5.671   1.917  0.3332 -0.3769  0.5406
10339TIP3    H155212   5.039   5.766   1.905 -0.8432 -0.6334 -3.4361
10339TIP3    H255213   4.978   5.661   1.996 -0.4407  2.2479  0.4463
10340TIP3   OH255214   4.471   7.484   1.167  0.4558 -0.0390 -0.0218
10340TIP3    H155215   4.534   7.468   1.237 -0.8440 -1.1330  0.9503
10340TIP3    H255216   4.475   7.405   1.112  0.8328  0.4355 -0.6950
10341TIP3   OH255217   6.803   0.390   0.626  0.1192  0.3681  0.4025
10341TIP3    H155218   6.869   0.356   0.566 -1.1242 -0.8680 -0.3484
10341TIP3    H255219   6.721   0.349   0.597 -1.2297  2.8301  0.4818
10342TIP3   OH255220   4.248   7.397   1.702 -0.5224 -0.2114 -0.0327
10342TIP3    H155221   4.222   7.438   1.783 -1.7569 -1.7636  0.4036
10342TIP3    H255222   4.324   7.343   1.725  0.7908  1.3585 -0.5033
10343TIP3   OH255223   4.500   3.570   1.970 -0.1224  0.2904 -0.5504
10343TIP3    H155224   4.404   3.564   1.964 -0.0804 -1.4027  0.1016
10343TIP3    H255225   4.516   3.622   2.049 -0.5139 -0.5808  0.1176
10344TIP3   OH255226   0.178   1.284   2.863 -0.3256 -0.1860  0.2714
10344TIP3    H155227   0.138   1.316   2.944 -0.2589 -0.6381  0.4884
10344TIP3    H255228   0.262   1.330   2.858  0.8901 -2.0668  1.8604
10345TIP3   OH255229   7.410   4.366   0.838 -0.8010 -0.1740  0.3320
10345TIP3    H155230   7.439   4.391   0.750  1.6131 -1.4204  0.6644
10345TIP3    H255231   7.442   4.276   0.849 -0.6489  0.0977  2.6314
10346TIP3   OH255232   1.771   4.480   2.323 -0.1689  0.2472 -0.5168
10346TIP3    H155233   1.793   4.556   2.377  0.9986  0.1098 -0.7880
10346TIP3    H255234   1.697   4.510   2.269 -0.7961  0.6488  0.5419
10347TIP3   OH255235   1.576   5.125   2.248  0.9573 -0.2090  0.1809
10347TIP3    H155236   1.498   5.126   2.304  0.6278 -0.1744 -0.2651
10347TIP3    H255237   1.549   5.176   2.171  0.9981 -1.2426 -0.5406
10348TIP3   OH255238   6.274   5.231   1.155  0.5167 -0.1659  0.2879
10348TIP3    H155239   6.292   5.139   1.139  0.9224 -0.1877  0.8152
10348TIP3    H255240   6.321   5.250   1.237 -1.3046 -0.0481  1.3684
10349TIP3   OH255241   5.117   3.511   1.804  0.3184  0.0112  0.0642
10349TIP3    H155242   5.038   3.549   1.842  0.7015  0.0917  0.8190
10349TIP3    H255243   5.124   3.550   1.717 -0.7803 -0.4513 -0.2365
10350TIP3   OH255244   2.747   1.436   0.397  0.0448  0.7411 -0.0643
10350TIP3    H155245   2.736   1.530   0.384  2.0287  0.9749 -0.4326
10350TIP3    H255246   2.746   1.399   0.309  1.1299  0.6864 -0.0695
10351TIP3   OH255247   4.418   3.011   2.116  0.0787  0.0969 -0.4616
10351TIP3    H155248   4.394   2.962   2.194 -0.7921  0.8534 -0.2271
10351TIP3    H255249   4.392   3.101   2.136  1.8080  0.7049 -0.7934
10352TIP3   OH255250   5.220   2.485   1.898  0.3245  0.0809  0.0371
10352TIP3    H155251   5.244   2.440   1.817 -0.7945  2.0326 -1.4963
10352TIP3    H255252   5.261   2.572   1.890 -1.9341  1.2361  0.2927
10353TIP3   OH255253   1.560   0.838   1.851 -0.5327 -0.1731 -0.1887
10353TIP3    H155254   1.486   0.781   1.832 -1.3705  1.1571 -1.0695
10353TIP3    H255255   1.532   0.889   1.927 -0.4637  0.2206 -0.4261
10354TIP3   OH255256   4.979   0.031   1.330  0.4251 -0.0609 -0.2045
10354TIP3    H155257   4.930   0.072   1.401  0.3929  2.3757 -1.5487
10354TIP3    H255258   5.069   0.025   1.363  0.6926  2.2820 -0.3685
10355TIP3   OH255259   3.702   1.483   2.256  0.4365 -0.9313  0.3175
10355TIP3    H155260   3.781   1.489   2.310  0.7096 -0.2412 -0.1357
10355TIP3    H255261   3.657   1.405   2.287  1.1057 -1.1157  0.8456
10356TIP3   OH255262   1.120   1.347   2.654 -0.2133  0.0577  0.1563
10356TIP3    H155263   1.208   1.381   2.639  0.1230 -1.0201 -0.4214
10356TIP3    H255264   1.131   1.280   2.721 -0.7219  0.4285  0.6215
10357TIP3   OH255265   6.828   5.713   2.139  0.0456  0.8380  0.0115
10357TIP3    H155266   6.903   5.740   2.192 -0.6511  1.7462  0.5593
10357TIP3    H255267   6.821   5.619   2.153  2.3569  0.3230 -1.7043
10358TIP3   OH255268   3.590   0.292   0.984  0.2634 -0.0486 -0.9343
10358TIP3    H155269   3.573   0.386   0.997  0.3090 -0.0225 -1.0604
10358TIP3    H255270   3.682   0.281   1.009  0.3999  0.0329 -1.3846
10359TIP3   OH255271   0.268   4.942   2.404 -0.0297  0.3268  0.2035
10359TIP3    H155272   0.323   5.010   2.443  1.9067 -0.8619 -0.2530
10359TIP3    H255273   0.286   4.864   2.456 -1.7094  0.0023  0.3302
10360TIP3   OH255274   7.528   5.901   2.274  0.3575 -0.2827 -0.3151
10360TIP3    H155275   7.506   5.899   2.367  2.9672  0.4723  0.4212
10360TIP3    H255276   7.567   5.987   2.261 -0.3435 -0.2250 -2.2367
10361TIP3   OH255277   6.030   0.486   0.576 -0.1224  0.1745  0.3183
10361TIP3    H155278   6.043   0.410   0.520 -1.4550 -0.5541  0.9627
10361TIP3    H255279   6.114   0.497   0.621  0.7241  0.3147 -1.2071
10362TIP3   OH255280   7.620   2.689   0.650  0.5672 -0.2072  0.5625
10362TIP3    H155281   7.585   2.603   0.627  0.2709 -0.1409  0.7546
10362TIP3    H255282   7.559   2.751   0.610  0.1475 -0.0922  1.3655
10363TIP3   OH255283   0.131   5.973   1.834 -0.4227  0.8424 -0.0602
10363TIP3    H155284   0.124   5.887   1.791 -0.1744 -0.0719  1.6428
10363TIP3    H255285   0.146   6.034   1.762  0.2236 -0.6439 -1.2527
10364TIP3   OH255286   2.250   5.620   2.022 -0.0613  0.1612  0.1700
10364TIP3    H155287   2.197   5.604   2.101 -1.5049  0.2427 -0.7421
10364TIP3    H255288   2.239   5.541   1.970  0.3513  0.3719 -0.2414
10365TIP3   OH255289   1.653   7.291   2.769  0.5112  0.3600  0.0908
10365TIP3    H155290   1.586   7.284   2.701  0.2755  1.1793  0.2301
10365TIP3    H255291   1.606   7.273   2.851  1.2595 -3.1028 -0.1085
10366TIP3   OH255292   3.915   1.167   1.367  0.5504 -0.7121  0.1028
10366TIP3    H155293   3.863   1.167   1.447 -0.6876  0.1295 -0.6673
10366TIP3    H255294   3.905   1.079   1.332 -0.8505 -0.4195 -0.3082
10367TIP3   OH255295   2.722   3.905   0.935 -0.1637 -0.5670  0.0451
10367TIP3    H155296   2.707   3.995   0.964 -1.1634 -1.0713  1.1566
10367TIP3    H255297   2.735   3.856   1.016  1.6235 -1.2382 -0.5978
10368TIP3   OH255298   7.314   2.758   2.825 -0.1763 -0.8330  0.8105
10368TIP3    H155299   7.407   2.770   2.842  0.2316 -0.3858 -1.3832
10368TIP3    H255300   7.274   2.840   2.852  0.2247 -0.6181  0.7588
10369TIP3   OH255301   2.581   5.282   2.228  0.4343 -0.6885  0.4589
10369TIP3    H155302   2.672   5.310   2.219  0.6060 -1.2442  0.3864
10369TIP3    H255303   2.587   5.198   2.274  0.1809 -2.1339 -1.9948
10370TIP3   OH255304   0.926   6.323   3.202 -0.2564 -0.5495  0.3127
10370TIP3    H155305   1.003   6.357   3.157  0.5869  1.7349  3.1462
10370TIP3    H255306   0.961   6.265   3.270 -1.2014 -1.1231  0.3332
10371TIP3   OH255307   5.648   4.408   0.691  0.2722  0.6605  0.8945
10371TIP3    H155308   5.590   4.471   0.734 -0.9750 -0.5806  1.1147
10371TIP3    H255309   5.593   4.330   0.679  1.0324  0.4273 -1.5630
10372TIP3   OH255310   0.036   4.652   1.807  0.2374 -0.0911 -0.5471
10372TIP3    H155311  -0.032   4.602   1.851  0.5461 -1.7884 -1.9028
10372TIP3    H255312   0.030   4.626   1.715  2.6670 -0.2758 -0.7258
10373TIP3   OH255313   0.105   6.126   0.790  0.3903  0.7220  0.0938
10373TIP3    H155314   0.105   6.216   0.823  2.3358  1.0761 -0.6875
10373TIP3    H255315   0.028   6.121   0.734 -0.1139  1.6980  0.6710
10374TIP3   OH255316   3.091   1.635   1.277  0.0245  0.1920  0.1760
10374TIP3    H155317   3.132   1.553   1.305  2.9678  1.1901 -0.7729
10374TIP3    H255318   3.019   1.608   1.219  0.5118 -1.7097  0.3837
10375TIP3   OH255319   3.919   0.021   2.294  0.8905 -0.1011 -0.4285
10375TIP3    H155320   3.847   0.004   2.233 -1.5967  1.1916  1.9117
10375TIP3    H255321   3.886   0.090   2.351  4.3539  1.1190  0.3403
10376TIP3   OH255322   3.149   0.510   2.621  0.3934  0.0399  0.0714
10376TIP3    H155323   3.155   0.573   2.550  0.8856  0.3686  0.3974
10376TIP3    H255324   3.056   0.485   2.624  0.0536  1.2720  0.3925
10377TIP3   OH255325   3.915   5.074   1.413  1.0564  0.2002  0.3638
10377TIP3    H155326   3.836   5.020   1.400  0.5041  0.9998  0.3379
10377TIP3    H255327   3.988   5.014   1.394  0.4600 -0.5299  0.3067
10378TIP3   OH255328   3.284   5.795   1.021  0.0174  0.0097 -0.3626
10378TIP3    H155329   3.376   5.771   1.010 -0.1595 -1.3732  0.8600
10378TIP3    H255330   3.243   5.717   1.057 -0.9880  1.5699  2.1471
10379TIP3   OH255331   0.457   1.747   1.576  0.8857  0.2069  0.0062
10379TIP3    H155332   0.410   1.826   1.601 -0.8602 -0.7349 -0.2008
10379TIP3    H255333   0.404   1.706   1.508  1.7604 -1.1397  0.0761
10380TIP3   OH255334   6.194   2.644   1.644 -0.0319  0.5817 -0.2608
10380TIP3    H155335   6.283   2.633   1.611 -0.6619  0.7222 -2.1224
10380TIP3    H255336   6.143   2.668   1.567 -1.8329 -0.2678  0.6113
10381TIP3   OH255337   7.164   3.447   2.499 -0.5887 -0.0474 -0.2420
10381TIP3    H155338   7.116   3.508   2.554 -0.9129 -0.5764  0.0693
10381TIP3    H255339   7.160   3.363   2.545 -0.4559 -0.3895 -0.8292
10382TIP3   OH255340   3.057   6.062   2.713 -0.3139  0.1125 -0.3343
10382TIP3    H155341   3.074   6.017   2.796 -1.2352 -0.4574 -0.4422
10382TIP3    H255342   3.095   6.149   2.725  2.0455 -0.8323 -0.3430
10383TIP3   OH255343   1.001   5.675   1.360  0.1167 -0.3299  0.4843
10383TIP3    H155344   1.046   5.628   1.290 -1.0539 -0.7002 -0.0461
10383TIP3    H255345   0.912   5.639   1.361 -1.5715  3.2417 -1.4065
10384TIP3   OH255346   7.604   1.879   2.806 -0.7169  0.4001  0.0706
10384TIP3    H155347   7.639   1.862   2.893  1.1296 -0.6014 -0.8200
10384TIP3    H255348   7.592   1.974   2.803 -1.1659  0.4133  1.5152
10385TIP3   OH255349   5.454   1.404   0.660 -0.0240 -0.5577  0.3124
10385TIP3    H155350   5.463   1.498   0.676 -2.9580 -0.4766  2.1749
10385TIP3    H255351   5.539   1.368   0.683  1.3460  1.6392 -0.9422
10386TIP3   OH255352   2.588   3.553   2.747 -0.2454  0.4428  0.3042
10386TIP3    H155353   2.574   3.525   2.657 -0.4629 -0.7338  0.6843
10386TIP3    H255354   2.596   3.648   2.742  0.9554  0.2964 -1.1086
10387TIP3   OH255355   6.462   3.137   0.501 -0.0203  0.2366  0.0751
10387TIP3    H155356   6.395   3.188   0.455  0.2929  0.8853  0.3190
10387TIP3    H255357   6.426   3.048   0.505 -1.1039  0.6792  0.6642
10388TIP3   OH255358   5.597   7.091   2.599 -0.0926 -0.8008 -0.7982
10388TIP3    H155359   5.597   7.066   2.691  0.0138 -3.7899 -1.5047
10388TIP3    H255360   5.511   7.128   2.584 -0.8053 -1.9947  0.1415
10389TIP3   OH255361   4.969   6.036   2.325 -0.0767  0.3573  0.1800
10389TIP3    H155362   4.951   5.948   2.293 -0.6957  0.5740 -0.0821
10389TIP3    H255363   4.901   6.090   2.285  0.0275  0.8797  0.7043
10390TIP3   OH255364   7.636   1.452   0.704 -0.6799  0.3231  0.3684
10390TIP3    H155365   7.625   1.383   0.769  1.1017 -0.2859  0.0899
10390TIP3    H255366   7.698   1.416   0.640 -1.9206  1.1320 -1.3670
10391TIP3   OH255367   6.895   4.678   1.099 -0.8212 -0.3545  0.4661
10391TIP3    H155368   6.829   4.622   1.140  0.5747 -0.7935  2.2692
10391TIP3    H255369   6.879   4.765   1.136 -0.6321 -0.3884  0.6331
10392TIP3   OH255370   4.214   1.063   2.749 -0.4488  0.4373 -0.0812
10392TIP3    H155371   4.171   1.142   2.783 -1.2282  0.0011 -0.0370
10392TIP3    H255372   4.283   1.097   2.692  0.0277  1.1622  0.8910
10393TIP3   OH255373   7.193   0.711   2.200  0.3053  0.4937  0.4928
10393TIP3    H155374   7.144   0.642   2.245 -0.1202 -0.1019 -0.8333
10393TIP3    H255375   7.250   0.664   2.140  0.4898  1.2826  0.0359
10394TIP3   OH255376   4.359   0.462   3.078 -0.0668 -0.0064 -0.4029
10394TIP3    H155377   4.416   0.385   3.082 -0.3372 -0.1598  2.4908
10394TIP3    H255378   4.284   0.433   3.025 -0.9885 -2.4102  1.9919
10395TIP3   OH255379   2.903   7.407   0.429  0.0665  0.0855  0.4042
10395TIP3    H155380   2.987   7.434   0.391 -0.0365 -0.5223 -0.2727
10395TIP3    H255381   2.837   7.453   0.377 -0.1222 -1.6479 -0.9524
10396TIP3   OH255382   5.514   1.655   0.692  0.0685 -0.1091 -0.1924
10396TIP3    H155383   5.485   1.739   0.655  1.7885 -0.6197 -3.0302
10396TIP3    H255384   5.605   1.671   0.717 -0.3179 -0.5198  1.5724
10397TIP3   OH255385   5.209   6.491   0.970  0.4354  0.5982  0.1490
10397TIP3    H155386   5.282   6.541   0.933  0.6910  0.1229  0.0100
10397TIP3    H255387   5.214   6.406   0.928  0.3728  0.2470  0.8389
10398TIP3   OH255388   6.638   5.793   0.756  0.1716 -0.6184  0.4325
10398TIP3    H155389   6.601   5.745   0.830  0.9810 -0.9287  0.6466
10398TIP3    H255390   6.670   5.726   0.696  0.5909 -0.3617  0.3588
10399TIP3   OH255391   6.928   1.629   1.013  0.1527  0.2282  0.2144
10399TIP3    H155392   6.919   1.693   1.083 -1.4023  0.6456 -0.3232
10399TIP3    H255393   6.950   1.547   1.058 -1.2917  0.3767  1.2687
10400TIP3   OH255394   3.272   3.060   0.620 -0.2306  0.0885  0.0949
10400TIP3    H155395   3.225   3.012   0.689 -0.1978 -1.3491 -0.8450
10400TIP3    H255396   3.224   3.040   0.540  0.7746  0.2832 -0.5711
10401TIP3   OH255397   5.669   6.241   2.394 -0.4513  0.7256  0.6491
10401TIP3    H155398   5.588   6.201   2.427 -1.2241  1.2712 -0.5260
10401TIP3    H255399   5.648   6.267   2.305  1.0889  0.7321  0.2597
10402TIP3   OH255400   3.177   1.364   2.937  0.0182  0.6930 -0.6220
10402TIP3    H155401   3.163   1.271   2.915 -2.2796  0.6902  0.5440
10402TIP3    H255402   3.238   1.361   3.011 -0.9212 -0.0120  0.1628
10403TIP3   OH255403   5.901   6.888   1.154 -0.6068  0.1503  0.1947
10403TIP3    H155404   5.808   6.910   1.161 -1.1283 -1.9564  0.5239
10403TIP3    H255405   5.908   6.845   1.068 -0.0672 -0.2416  0.4327
10404TIP3   OH255406   5.864   5.749   2.711  0.2206 -0.3548  0.0463
10404TIP3    H155407   5.921   5.783   2.780  0.6217 -1.0908  0.0952
10404TIP3    H255408   5.811   5.682   2.754 -0.9938  0.6009  0.0932
10405TIP3   OH255409   3.448   4.825   1.830  0.2810  0.0113 -0.3968
10405TIP3    H155410   3.493   4.880   1.766 -0.0878  1.2554  0.3869
10405TIP3    H255411   3.357   4.855   1.827  0.1603 -0.2558  0.3551
10406TIP3   OH255412   5.636   1.324   2.495 -0.1521  0.2325  0.4570
10406TIP3    H155413   5.585   1.403   2.511  0.9321  0.4763  3.3441
10406TIP3    H255414   5.616   1.267   2.569  0.2048 -1.6255 -0.8070
10407TIP3   OH255415   7.314   1.961   1.915  0.2473 -0.3571 -0.3439
10407TIP3    H155416   7.243   2.024   1.932  2.4364  1.9104  1.1187
10407TIP3    H255417   7.307   1.897   1.986 -0.1553  0.0421 -0.0165
10408TIP3   OH255418   7.647   5.963   0.566  0.7587  0.5768 -0.0544
10408TIP3    H155419   7.572   6.010   0.529  0.1635 -0.2605  0.0747
10408TIP3    H255420   7.609   5.898   0.625  1.6242  0.7270  0.7044
10409TIP3   OH255421   6.714   2.214   0.730 -0.2808 -0.5327 -0.0450
10409TIP3    H155422   6.741   2.128   0.698  0.4427 -0.1245 -0.5656
10409TIP3    H255423   6.677   2.198   0.816 -1.0142 -1.4917 -0.5154
10410TIP3   OH255424   7.392   0.854   3.560 -0.0726 -0.4424  0.0827
10410TIP3    H155425   7.472   0.860   3.509  0.6277 -0.9525  1.0745
10410TIP3    H255426   7.364   0.763   3.549 -0.8015 -0.1376 -0.6588
10411TIP3   OH255427   1.838   6.401   0.969 -0.1751 -0.0128 -0.2224
10411TIP3    H155428   1.772   6.405   0.900  1.6946  3.7503 -2.1448
10411TIP3    H255429   1.918   6.373   0.924  0.5057 -0.1048  1.0145
10412TIP3   OH255430   2.087   3.368   2.335 -0.4852  0.0815 -0.0529
10412TIP3    H155431   2.079   3.349   2.428  0.2944  0.7519  0.1662
10412TIP3    H255432   2.125   3.456   2.332  2.4792 -1.1165 -0.9806
10413TIP3   OH255433   2.435   2.336   1.094 -0.4796  0.3878 -0.0910
10413TIP3    H155434   2.516   2.348   1.144  0.3379 -0.8771 -1.0351
10413TIP3    H255435   2.366   2.371   1.150  0.6521  0.9812  0.9772
10414TIP3   OH255436   5.062   1.760   2.077 -0.3756  0.3491  0.2668
10414TIP3    H155437   4.985   1.735   2.027  0.3962  0.0425 -0.8096
10414TIP3    H255438   5.088   1.680   2.123  0.0904  0.0745 -0.4589
10415TIP3   OH255439   6.396   0.994   2.452 -0.2589  0.1193 -0.3271
10415TIP3    H155440   6.343   1.028   2.380 -0.5706 -0.0869 -0.1967
10415TIP3    H255441   6.479   0.970   2.411 -0.8460 -1.0989 -0.8404
10416TIP3   OH255442   6.109   3.393   2.057  0.2597 -0.1527  0.0424
10416TIP3    H155443   6.087   3.302   2.036  0.5299 -0.3825  0.7338
10416TIP3    H255444   6.025   3.439   2.052 -0.0092 -0.5896  0.4465
10417TIP3   OH255445   0.769   7.481   2.494  0.2284 -0.3000  0.2674
10417TIP3    H155446   0.836   7.489   2.563  0.0718 -1.3319  0.5548
10417TIP3    H255447   0.686   7.482   2.542 -0.0430  1.7674 -0.1474
10418TIP3   OH255448   4.937   0.901   2.124  0.7940 -0.0226  0.3628
10418TIP3    H155449   4.933   0.807   2.110  1.3461 -0.1390  0.9086
10418TIP3    H255450   4.860   0.936   2.079 -0.4183 -0.9223  1.6522
10419TIP3   OH255451   3.071   5.206   2.155  0.4555  0.2847  0.4188
10419TIP3    H155452   3.149   5.186   2.104 -1.1231  0.3220 -2.2303
10419TIP3    H255453   3.014   5.130   2.143 -0.4353  0.8034  1.1620
10420TIP3   OH255454   4.747   7.077   1.079  0.5458 -0.4779 -0.7606
10420TIP3    H155455   4.743   7.144   1.011 -2.6352 -0.7173 -0.9368
10420TIP3    H255456   4.718   6.996   1.036 -0.5464 -0.8450  0.5803
10421TIP3   OH255457   3.680   3.586   1.439  0.2441  0.6257  0.3518
10421TIP3    H155458   3.686   3.625   1.352  1.0043  0.2769  0.2342
10421TIP3    H255459   3.766   3.601   1.478  0.5922 -0.9278  0.2842
10422TIP3   OH255460   0.196   4.418   2.586 -0.5542  0.6251 -0.1389
10422TIP3    H155461   0.139   4.483   2.545 -0.0014  1.1775 -0.0373
10422TIP3    H255462   0.148   4.335   2.575 -0.4016  0.7323 -1.9712
10423TIP3   OH255463   1.544   3.888   1.330  0.1714 -0.3669 -0.7403
10423TIP3    H155464   1.554   3.797   1.301  0.6297 -0.2650 -0.9139
10423TIP3    H255465   1.595   3.939   1.267  2.2465 -0.2584  0.9319
10424TIP3   OH255466   7.249   6.996   2.178 -0.2798  0.7049 -0.4395
10424TIP3    H155467   7.199   7.060   2.229  0.9827  0.4140  1.2532
10424TIP3    H255468   7.224   6.911   2.216  1.7439  0.5804  0.7522
10425TIP3   OH255469   5.975   0.195   2.726 -0.7162  0.4614 -0.0359
10425TIP3    H155470   5.913   0.126   2.705 -0.7733  0.8473 -1.1710
10425TIP3    H255471   5.922   0.274   2.734 -0.3975  0.7837 -0.9692
10426TIP3   OH255472   7.637   1.110   2.846  0.9386  0.2496  0.1555
10426TIP3    H155473   7.680   1.186   2.884 -0.1091  1.0170 -0.1430
10426TIP3    H255474   7.547   1.139   2.830  0.8358 -0.6700 -1.0712
10427TIP3   OH255475   7.324   4.243   2.322  0.0795  0.5093 -0.1655
10427TIP3    H155476   7.352   4.326   2.360  1.9245 -0.5749  0.9810
10427TIP3    H255477   7.266   4.205   2.389 -0.9745  0.9456 -0.8009
10428TIP3   OH255478   4.254   3.775   1.093  0.2590 -0.3123  0.2904
10428TIP3    H155479   4.301   3.748   1.014  0.9780 -0.6312  0.8110
10428TIP3    H255480   4.323   3.786   1.159 -0.1162  1.7903  0.3952
10429TIP3   OH255481   7.029   0.326   0.788  0.2385  0.0408 -0.6464
10429TIP3    H155482   6.937   0.327   0.813  0.0356  2.1492 -1.2590
10429TIP3    H255483   7.070   0.393   0.844  0.8814  0.8700 -2.0664
10430TIP3   OH255484   6.721   4.748   1.799 -0.5913 -0.4602  0.2532
10430TIP3    H155485   6.717   4.660   1.838 -3.0465 -0.1464  0.8787
10430TIP3    H255486   6.738   4.806   1.872 -0.2273 -0.2765  0.0284
10431TIP3   OH255487   5.198   5.103   1.415  0.7804 -0.2923 -0.2694
10431TIP3    H155488   5.254   5.027   1.399  1.3512 -0.4975  2.3124
10431TIP3    H255489   5.116   5.082   1.371  0.7105 -2.6851  0.8596
10432TIP3   OH255490   4.348   5.607   2.885  0.2349  0.0001 -0.7992
10432TIP3    H155491   4.380   5.691   2.920 -1.0497  1.1268 -2.2152
10432TIP3    H255492   4.307   5.564   2.960 -0.6949  1.4634 -0.4214
10433TIP3   OH255493   3.522   5.367   0.820  0.6584  0.5695  0.4391
10433TIP3    H155494   3.535   5.284   0.774 -0.1784  0.5421  0.2288
10433TIP3    H255495   3.504   5.430   0.751  1.6890  1.0266  0.5670
10434TIP3   OH255496   7.065   2.214   3.153 -0.2888 -0.2022  0.1692
10434TIP3    H155497   7.063   2.290   3.211 -1.4182 -0.7619  0.8891
10434TIP3    H255498   7.082   2.140   3.211  2.2843 -0.3863 -0.7010
10435TIP3   OH255499   2.777   6.265   2.862  0.2405 -0.6256  0.2780
10435TIP3    H155500   2.686   6.270   2.830  0.1783 -1.4014  0.3028
10435TIP3    H255501   2.784   6.176   2.898  1.0129 -0.5731  0.2626
10436TIP3   OH255502   5.300   2.794   2.911  0.0042  0.2294  0.3956
10436TIP3    H155503   5.315   2.720   2.971  1.2682  0.0397 -0.1200
10436TIP3    H255504   5.207   2.788   2.889  0.0254 -1.0822  0.5330
10437TIP3   OH255505   3.832   5.025   0.637  0.2157 -0.5098  0.1811
10437TIP3    H155506   3.794   4.948   0.679  0.7813 -0.6287  0.4829
10437TIP3    H255507   3.914   4.993   0.598 -0.5007 -0.5133 -1.4107
10438TIP3   OH255508   7.660   1.512   1.112 -0.2529  0.3374 -0.4169
10438TIP3    H155509   7.714   1.589   1.096  0.0332  0.2260  0.0021
10438TIP3    H255510   7.576   1.548   1.142  0.7839  0.4831  2.6259
10439TIP3   OH255511   5.262   4.772   3.583  0.4352  0.3040  0.3408
10439TIP3    H155512   5.309   4.689   3.592  0.2911  0.3503  1.8956
10439TIP3    H255513   5.236   4.776   3.491  1.8476 -0.6045 -0.1278
   7.68049   7.68049  30.00000
