Title
55513
    1DOPE     N    1   2.834   6.446  14.532 -0.2724 -0.5550  0.4993
    1DOPE   HN1    2   2.795   6.538  14.558 -1.2027 -0.9476  0.5184
    1DOPE   HN2    3   2.938   6.449  14.529 -0.2087 -2.3597 -1.8276
    1DOPE   HN3    4   2.798   6.417  14.439  1.3293 -0.1215 -0.3053
    1DOPE   C12    5   2.819   6.347  14.641  0.2089  0.5404  0.2687
    1DOPE  H12A    6   2.858   6.402  14.729  0.4355 -0.2084  0.6442
    1DOPE  H12B    7   2.883   6.256  14.636 -1.0276 -0.2881 -1.8544
    1DOPE   C11    8   2.676   6.311  14.668 -0.1897  0.4777 -0.0862
    1DOPE  H11A    9   2.627   6.410  14.681 -0.5329  0.1667  1.1343
    1DOPE  H11B   10   2.681   6.251  14.762  0.1974  0.5680 -0.0470
    1DOPE     P   11   2.547   6.112  14.575 -0.4700  0.0479 -0.3929
    1DOPE   O13   12   2.449   6.075  14.468 -0.3365  0.2892  0.8292
    1DOPE   O14   13   2.495   6.104  14.710  0.3172 -0.6523 -0.6585
    1DOPE   O11   14   2.666   6.012  14.559  0.1099  0.1207 -0.2741
    1DOPE   O12   15   2.611   6.250  14.552  0.0399  0.4424 -0.4976
    1DOPE    C1   16   2.750   6.006  14.443  0.2416  0.0681  0.0067
    1DOPE    HA   17   2.858   6.005  14.472  0.1134  0.9075  0.5684
    1DOPE    HB   18   2.724   6.089  14.375 -3.2582 -1.6518 -0.9610
    1DOPE    C2   19   2.741   5.865  14.378 -0.1507  0.3390 -0.4204
    1DOPE    HS   20   2.815   5.864  14.295  2.4094 -0.5729  1.6901
    1DOPE   O21   21   2.605   5.829  14.332  0.1236 -0.1016 -0.0413
    1DOPE   C21   22   2.562   5.908  14.227  0.1375  0.5750 -0.2351
    1DOPE   O22   23   2.630   5.988  14.165  0.6541 -0.1980 -0.3951
    1DOPE   C22   24   2.422   5.869  14.189  0.0369 -0.6524 -0.0484
    1DOPE   H2R   25   2.386   5.944  14.116 -1.5490 -0.0500  1.2795
    1DOPE   H2S   26   2.359   5.887  14.279  0.6159 -0.5843  0.3564
    1DOPE    C3   27   2.787   5.757  14.479 -0.2143 -0.3253  0.3173
    1DOPE    HX   28   2.711   5.747  14.560  0.2473 -2.4835  0.5477
    1DOPE    HY   29   2.874   5.813  14.521 -0.3670  0.0836  0.0986
    1DOPE   O31   30   2.823   5.632  14.418  0.4868 -0.5632 -0.2794
    1DOPE   C31   31   2.733   5.531  14.429 -0.3740  0.7933 -0.2305
    1DOPE   O32   32   2.626   5.531  14.488  0.4197 -0.3707 -0.3561
    1DOPE   C32   33   2.778   5.413  14.340  0.4075  0.6937  0.1403
    1DOPE   H2X   34   2.886   5.424  14.314  0.1627  1.7659 -0.5088
    1DOPE   H2Y   35   2.771   5.321  14.402 -0.2568 -1.8567 -3.3962
    1DOPE   C23   36   2.409   5.725  14.136  0.0140  0.1565 -0.6409
    1DOPE   H3R   37   2.303   5.692  14.129  0.2236 -0.9179  0.7611
    1DOPE   H3S   38   2.448   5.646  14.204 -1.5637 -0.6166 -0.5819
    1DOPE   C24   39   2.476   5.710  13.989  0.3162 -0.4605 -0.9186
    1DOPE   H4R   40   2.584   5.699  14.015  0.2344 -0.3349 -0.5096
    1DOPE   H4S   41   2.451   5.800  13.929 -3.9300 -0.2742  0.7751
    1DOPE   C25   42   2.435   5.580  13.917 -0.2869  0.5854  0.1650
    1DOPE   H5R   43   2.326   5.592  13.902 -0.4873 -1.4243 -0.1957
    1DOPE   H5S   44   2.451   5.495  13.986 -1.1110 -0.6570 -1.1246
    1DOPE   C26   45   2.511   5.541  13.787  0.0447 -0.3269 -0.2565
    1DOPE   H6R   46   2.487   5.437  13.758  0.3743 -0.4787  0.0087
    1DOPE   H6S   47   2.617   5.563  13.815  0.0172 -0.3571 -0.1303
    1DOPE   C27   48   2.472   5.618  13.661 -0.4711 -0.7790 -0.0452
    1DOPE   H7R   49   2.489   5.726  13.678  1.8765 -0.9662 -0.8573
    1DOPE   H7S   50   2.366   5.609  13.629 -2.3371  3.2620  3.7905
    1DOPE   C28   51   2.562   5.579  13.543  0.2306 -0.6794 -0.6498
    1DOPE   H8R   52   2.666   5.562  13.577  0.6151  1.1754 -0.8169
    1DOPE   H8S   53   2.551   5.673  13.485 -1.3706  0.1017  0.8257
    1DOPE   C29   54   2.531   5.466  13.461 -0.5437 -0.4964  0.1378
    1DOPE   H9R   55   2.585   5.381  13.506  2.0004  1.7838  1.7105
    1DOPE  C210   56   2.436   5.450  13.373 -0.1667 -0.7297  0.8599
    1DOPE  H10R   57   2.411   5.352  13.333  0.1865 -0.4615 -0.0428
    1DOPE  C211   58   2.350   5.561  13.318  0.6451  0.3778  0.7625
    1DOPE  H11R   59   2.312   5.626  13.400  2.2927  2.0167  0.2924
    1DOPE  H11S   60   2.261   5.518  13.266  0.5965  0.3653  0.8554
    1DOPE  C212   61   2.425   5.649  13.216  0.5817  0.2116  0.0565
    1DOPE  H12R   62   2.536   5.639  13.224  0.4399 -1.9172 -0.1437
    1DOPE  H12S   63   2.390   5.753  13.233 -0.5147  0.1285 -1.4984
    1DOPE  C213   64   2.389   5.602  13.074  0.6302 -1.0664 -0.5699
    1DOPE  H13R   65   2.283   5.626  13.050  0.6121 -0.7317 -0.1777
    1DOPE  H13S   66   2.414   5.494  13.072  0.4878 -1.1322  0.4765
    1DOPE  C214   67   2.473   5.669  12.962 -0.0773  0.1100  0.7098
    1DOPE  H14R   68   2.582   5.672  12.986 -0.1667 -0.7308  1.2854
    1DOPE  H14S   69   2.435   5.773  12.955  0.6820  0.2924 -1.3261
    1DOPE  C215   70   2.456   5.615  12.824  0.1369  0.4322  0.6893
    1DOPE  H15R   71   2.349   5.591  12.804  0.0780 -0.0206  1.5057
    1DOPE  H15S   72   2.495   5.511  12.830 -1.7854 -0.3515  0.6685
    1DOPE  C216   73   2.520   5.700  12.712 -0.0997 -0.5876 -0.6204
    1DOPE  H16R   74   2.630   5.703  12.722 -0.1947  1.0650  0.2659
    1DOPE  H16S   75   2.468   5.798  12.717 -0.4603 -0.8404  0.9913
    1DOPE  C217   76   2.494   5.653  12.563  0.5704  0.3634 -0.5263
    1DOPE  H17R   77   2.478   5.748  12.508  2.0559  1.4838  0.8998
    1DOPE  H17S   78   2.398   5.596  12.567  0.8068  0.0240  0.4553
    1DOPE  C218   79   2.596   5.567  12.495  0.0908  0.5841  0.7303
    1DOPE  H18R   80   2.545   5.511  12.414 -1.5639  0.8384  1.5575
    1DOPE  H18S   81   2.627   5.486  12.565  1.5614  0.7850  0.3374
    1DOPE  H18T   82   2.682   5.613  12.442 -0.7097 -1.3744 -2.5304
    1DOPE   C33   83   2.713   5.394  14.200  0.1638  0.4572 -0.1029
    1DOPE   H3X   84   2.693   5.489  14.146  0.9100  1.1847  0.8638
    1DOPE   H3Y   85   2.608   5.356  14.205  0.1374  0.4941 -0.3560
    1DOPE   C34   86   2.791   5.299  14.100 -0.2745  0.4866 -0.1524
    1DOPE   H4X   87   2.896   5.333  14.105  0.0878 -0.4036 -1.4046
    1DOPE   H4Y   88   2.782   5.197  14.143 -0.7576  1.2283  1.6157
    1DOPE   C35   89   2.747   5.328  13.949  0.0294  0.0725  0.2808
    1DOPE   H5X   90   2.763   5.434  13.920 -0.0667 -0.4302 -1.7755
    1DOPE   H5Y   91   2.637   5.312  13.943 -0.1114  1.4956 -2.0476
    1DOPE   C36   92   2.815   5.237  13.846  0.2443 -0.4592  0.2468
    1DOPE   H6X   93   2.785   5.134  13.876 -1.0770  0.5285  2.6011
    1DOPE   H6Y   94   2.925   5.256  13.846  0.0444  0.8353 -0.3577
    1DOPE   C37   95   2.785   5.265  13.697  0.5562  1.1064 -0.3455
    1DOPE   H7X   96   2.676   5.262  13.680  0.4378 -2.0871  0.3071
    1DOPE   H7Y   97   2.824   5.365  13.668  4.0197  0.1234  0.3452
    1DOPE   C38   98   2.836   5.143  13.607 -0.2739  0.0897  0.5876
    1DOPE   H8X   99   2.778   5.055  13.641 -0.8291 -0.0510 -0.6620
    1DOPE   H8Y  100   2.945   5.121  13.608 -0.6785 -2.0758  0.2070
    1DOPE   C39  101   2.798   5.163  13.461  0.8151 -0.6744 -0.1470
    1DOPE   H9X  102   2.880   5.209  13.405 -0.1392 -0.6726 -1.5779
    1DOPE  C310  103   2.690   5.119  13.399  0.4320 -0.5384 -0.1197
    1DOPE  H10X  104   2.675   5.162  13.299  0.4009  0.8087  0.4466
    1DOPE  C311  105   2.585   5.039  13.476 -0.7879  0.4058  0.4151
    1DOPE  H11X  106   2.626   4.989  13.566  0.1253 -0.9312 -0.6910
    1DOPE  H11Y  107   2.496   5.102  13.497 -0.2993  0.7397  1.5685
    1DOPE  C312  108   2.525   4.926  13.389  0.1561 -0.1126  0.7194
    1DOPE  H12X  109   2.483   4.977  13.300  0.4861  0.0248  0.6410
    1DOPE  H12Y  110   2.439   4.879  13.440  1.0149  0.4555  2.7998
    1DOPE  C313  111   2.630   4.822  13.359  0.0503  0.7197 -0.1248
    1DOPE  H13X  112   2.715   4.860  13.298 -0.3684  1.1223 -0.4679
    1DOPE  H13Y  113   2.670   4.801  13.460 -1.5496  1.2495  0.6575
    1DOPE  C314  114   2.576   4.685  13.322 -0.3337 -0.2753 -0.3780
    1DOPE  H14X  115   2.507   4.698  13.236  1.8017  0.4110 -2.0685
    1DOPE  H14Y  116   2.518   4.636  13.404 -0.2667  2.0285  1.1482
    1DOPE  C315  117   2.681   4.579  13.281 -0.2697 -0.2411  0.2586
    1DOPE  H15X  118   2.627   4.483  13.273 -0.3232 -0.3117  1.2946
    1DOPE  H15Y  119   2.752   4.577  13.367 -2.0150 -0.0826  1.7577
    1DOPE  C316  120   2.751   4.605  13.145  0.5011  0.3716 -0.3568
    1DOPE  H16X  121   2.792   4.708  13.131 -1.5601  1.3042  0.1734
    1DOPE  H16Y  122   2.677   4.578  13.067  0.5090 -0.7485  0.0102
    1DOPE  C317  123   2.867   4.508  13.121 -0.4455  0.6449 -0.2022
    1DOPE  H17X  124   2.958   4.526  13.182 -1.7590  2.2330  1.3991
    1DOPE  H17Y  125   2.830   4.406  13.144 -0.4098  0.2174 -1.9550
    1DOPE  C318  126   2.905   4.499  12.971 -0.0615 -0.1256  0.0326
    1DOPE  H18X  127   2.930   4.596  12.925  2.8072 -2.1945 -3.2536
    1DOPE  H18Y  128   2.992   4.432  12.958 -1.2894 -1.6764 -0.6780
    1DOPE  H18Z  129   2.813   4.459  12.921 -0.1909 -0.8720  0.8335
    2DOPE     N  130   2.815   5.369  14.904 -0.6963  0.3715  0.0079
    2DOPE   HN1  131   2.823   5.271  14.871 -0.2399  0.7401 -1.0389
    2DOPE   HN2  132   2.837   5.388  15.003  0.3492 -0.1176 -0.1205
    2DOPE   HN3  133   2.716   5.395  14.882 -0.6408 -0.4627 -1.3657
    2DOPE   C12  134   2.914   5.449  14.829  0.0542  0.0240  0.3079
    2DOPE  H12A  135   3.006   5.470  14.888  0.2528  0.6580 -0.2101
    2DOPE  H12B  136   2.868   5.544  14.794  1.6709  0.6383 -0.2403
    2DOPE   C11  137   2.944   5.383  14.690  0.3955  0.4583  0.0935
    2DOPE  H11A  138   2.848   5.359  14.638 -0.9991  1.0684  2.2311
    2DOPE  H11B  139   3.004   5.290  14.698 -0.8761 -0.4733 -0.7945
    2DOPE     P  140   3.147   5.517  14.627  0.2068  0.3396  0.0673
    2DOPE   O13  141   3.213   5.400  14.683 -0.2361  0.3780 -1.0380
    2DOPE   O14  142   3.151   5.646  14.701 -0.2240 -0.7360 -0.8076
    2DOPE   O11  143   3.211   5.547  14.491  0.2156 -0.1906  0.9530
    2DOPE   O12  144   2.996   5.486  14.599  0.0530 -0.1736  0.1215
    2DOPE    C1  145   3.168   5.489  14.367  0.4853  0.2358  0.6659
    2DOPE    HA  146   3.063   5.519  14.346  0.5329 -0.7186 -1.2410
    2DOPE    HB  147   3.173   5.378  14.360  0.8801  0.2179  1.1936
    2DOPE    C2  148   3.249   5.538  14.249  0.4793  0.0207 -0.3439
    2DOPE    HS  149   3.264   5.648  14.259 -0.5158  0.4273 -2.6010
    2DOPE   O21  150   3.181   5.525  14.121  0.4045  0.0917 -0.0015
    2DOPE   C21  151   3.170   5.627  14.046  0.2487 -0.7354 -0.4548
    2DOPE   O22  152   3.201   5.744  14.070  0.0176 -0.3072 -0.3141
    2DOPE   C22  153   3.088   5.590  13.922  0.1168  0.4928 -0.6960
    2DOPE   H2R  154   2.983   5.569  13.948  0.8879 -3.9185 -0.3263
    2DOPE   H2S  155   3.128   5.490  13.893  0.4570  1.2633 -3.1526
    2DOPE    C3  156   3.386   5.472  14.248 -0.2614  0.6450  0.1143
    2DOPE    HX  157   3.361   5.367  14.219 -0.0659  0.1122  1.7641
    2DOPE    HY  158   3.439   5.462  14.345  1.8306  1.7124 -0.8464
    2DOPE   O31  159   3.478   5.521  14.145  0.4692 -0.1027  0.3503
    2DOPE   C31  160   3.515   5.642  14.167  0.9326  0.3120 -0.4024
    2DOPE   O32  161   3.490   5.703  14.269  0.0279 -0.2457  0.0143
    2DOPE   C32  162   3.593   5.697  14.051 -0.9599  0.1257  0.3684
    2DOPE   H2X  163   3.601   5.807  14.071 -0.7099  0.6076 -2.0956
    2DOPE   H2Y  164   3.693   5.649  14.050 -0.9625  0.1129  0.5566
    2DOPE   C23  165   3.102   5.682  13.803  0.1563 -0.0678  0.0722
    2DOPE   H3R  166   3.204   5.716  13.776  0.5096  0.3824  1.8249
    2DOPE   H3S  167   3.043   5.773  13.830  1.0845  0.4908  0.2550
    2DOPE   C24  168   3.049   5.628  13.670  0.7820  0.5218  0.0584
    2DOPE   H4R  169   2.938   5.620  13.672  0.8794 -1.0021 -0.0609
    2DOPE   H4S  170   3.091   5.526  13.661  2.6042  1.2540 -0.3249
    2DOPE   C25  171   3.086   5.711  13.546 -0.3086 -0.7775 -0.0917
    2DOPE   H5R  172   3.196   5.720  13.553 -0.4887  1.1399  0.9231
    2DOPE   H5S  173   3.042   5.813  13.547  1.9381  0.2517  0.4301
    2DOPE   C26  174   3.054   5.635  13.416  0.3261 -0.0526 -0.3390
    2DOPE   H6R  175   2.947   5.655  13.397  0.5676  1.7024 -0.0320
    2DOPE   H6S  176   3.058   5.528  13.447  1.5682  0.7597  2.6762
    2DOPE   C27  177   3.153   5.661  13.296  0.6419  1.1838  0.0682
    2DOPE   H7R  178   3.250   5.613  13.321  0.3259  0.8485  0.6770
    2DOPE   H7S  179   3.165   5.771  13.287  1.7264  1.0363 -0.4217
    2DOPE   C28  180   3.109   5.602  13.160  0.1154  0.0643 -0.2965
    2DOPE   H8R  181   3.199   5.616  13.097 -0.1860  0.7250 -0.5876
    2DOPE   H8S  182   3.024   5.655  13.112 -0.6901  0.1571  1.1550
    2DOPE   C29  183   3.082   5.452  13.178 -0.0390 -0.0296  0.1089
    2DOPE   H9R  184   3.177   5.399  13.195  0.1240  0.3153  0.2773
    2DOPE  C210  185   2.969   5.380  13.176 -0.3111  0.5023  0.2303
    2DOPE  H10R  186   2.984   5.271  13.186  1.2841  0.7747  1.1339
    2DOPE  C211  187   2.834   5.425  13.149  0.9912 -0.8512 -0.0208
    2DOPE  H11R  188   2.835   5.536  13.152 -1.4769 -0.7564 -0.0225
    2DOPE  H11S  189   2.762   5.391  13.227  0.7092  0.0150  0.1064
    2DOPE  C212  190   2.776   5.391  13.010  0.1891  0.7383 -0.0645
    2DOPE  H12R  191   2.676   5.435  12.992  0.0991  0.1651 -1.0466
    2DOPE  H12S  192   2.765   5.281  13.004  1.7598  0.5435  0.0839
    2DOPE  C213  193   2.869   5.427  12.890  0.0806 -0.8241  0.3822
    2DOPE  H13R  194   2.950   5.352  12.895 -0.1787 -1.3084 -1.9112
    2DOPE  H13S  195   2.900   5.532  12.912 -0.6755 -0.1289 -1.5930
    2DOPE  C214  196   2.803   5.416  12.750 -0.3229 -0.4753 -0.2107
    2DOPE  H14R  197   2.883   5.458  12.685 -0.3809 -0.0388 -0.0045
    2DOPE  H14S  198   2.721   5.489  12.735  0.6255  0.3610 -1.5402
    2DOPE  C215  199   2.762   5.277  12.704  0.6499  0.1749 -0.4811
    2DOPE  H15R  200   2.743   5.281  12.594  1.9772 -0.5803 -0.7582
    2DOPE  H15S  201   2.668   5.252  12.757  0.2556 -0.4302 -1.4168
    2DOPE  C216  202   2.864   5.158  12.725 -0.5229 -0.5274  0.4897
    2DOPE  H16R  203   2.797   5.073  12.748 -2.8444  1.0214 -0.2631
    2DOPE  H16S  204   2.934   5.183  12.808  0.1578  1.8358 -0.7042
    2DOPE  C217  205   2.947   5.126  12.596  0.2044  0.1171  0.4024
    2DOPE  H17R  206   3.010   5.212  12.562 -0.4436  0.1154 -0.8738
    2DOPE  H17S  207   2.887   5.094  12.508  1.6889  1.9287 -1.3621
    2DOPE  C218  208   3.045   5.007  12.605  0.4022  0.9402 -0.1188
    2DOPE  H18R  209   3.086   4.992  12.502  1.5094  0.1526  0.4211
    2DOPE  H18S  210   3.007   4.910  12.643  2.4966 -0.5012 -1.4831
    2DOPE  H18T  211   3.126   5.041  12.673 -1.2332  2.5637  1.1068
    2DOPE   C33  212   3.516   5.692  13.917  0.1145  0.5023 -0.2465
    2DOPE   H3X  213   3.414   5.732  13.938  0.5443  1.1189  0.7305
    2DOPE   H3Y  214   3.494   5.588  13.887 -2.7496  1.2324 -1.0314
    2DOPE   C34  215   3.597   5.766  13.812 -0.1877  0.0137  0.3408
    2DOPE   H4X  216   3.637   5.860  13.857  0.2265  0.2454 -0.5023
    2DOPE   H4Y  217   3.685   5.706  13.779 -0.7804 -0.4293 -0.4537
    2DOPE   C35  218   3.525   5.780  13.675 -0.0772  0.5730 -0.2742
    2DOPE   H5X  219   3.471   5.877  13.672  1.3108  1.3815  0.1353
    2DOPE   H5Y  220   3.468   5.687  13.657 -0.7123  0.9065 -0.0284
    2DOPE   C36  221   3.619   5.793  13.554 -0.4736  0.1872 -0.1053
    2DOPE   H6X  222   3.680   5.700  13.554 -0.1516  0.3529  2.3788
    2DOPE   H6Y  223   3.689   5.874  13.580  0.7755 -1.2586  1.2155
    2DOPE   C37  224   3.543   5.813  13.424 -0.1559  0.2634  0.3053
    2DOPE   H7X  225   3.566   5.731  13.352 -0.6664  0.1529  0.2673
    2DOPE   H7Y  226   3.435   5.806  13.448  0.0609 -2.6193  0.7254
    2DOPE   C38  227   3.577   5.940  13.347  0.4694  0.2549 -0.5959
    2DOPE   H8X  228   3.549   6.030  13.406  0.0065 -0.2040 -0.1133
    2DOPE   H8Y  229   3.510   5.957  13.260  0.4624  2.7992 -0.1749
    2DOPE   C39  230   3.724   5.941  13.305  1.1013  0.0014 -0.9138
    2DOPE   H9X  231   3.793   5.901  13.381 -1.6713 -2.0214  0.7188
    2DOPE  C310  232   3.777   5.999  13.194  0.2598  0.4650  0.2352
    2DOPE  H10X  233   3.887   6.001  13.193  0.3322 -1.0562  1.4497
    2DOPE  C311  234   3.694   6.060  13.082 -0.6261  0.9657  0.6128
    2DOPE  H11X  235   3.588   6.066  13.114 -0.4599  0.0757  1.3793
    2DOPE  H11Y  236   3.723   6.165  13.061  2.0206  0.3875  0.9242
    2DOPE  C312  237   3.712   5.997  12.936  0.0589 -0.7332 -0.4173
    2DOPE  H12X  238   3.816   6.007  12.901 -0.0477  0.8997 -0.3245
    2DOPE  H12Y  239   3.656   6.071  12.875  0.9372  1.3066  1.1130
    2DOPE  C313  240   3.645   5.858  12.907 -0.5203 -0.1698  0.5312
    2DOPE  H13X  241   3.683   5.794  12.989 -0.5779 -1.0314 -0.0948
    2DOPE  H13Y  242   3.534   5.854  12.913 -0.5041 -2.8961  0.7187
    2DOPE  C314  243   3.689   5.796  12.766 -0.1596 -0.4381  0.0219
    2DOPE  H14X  244   3.798   5.776  12.768 -0.3033 -1.2440  0.2574
    2DOPE  H14Y  245   3.670   5.875  12.690 -2.0042 -0.3568  0.5132
    2DOPE  C315  246   3.626   5.668  12.747  0.1852 -0.1929  0.2021
    2DOPE  H15X  247   3.515   5.674  12.747  0.2539  2.0488 -0.8644
    2DOPE  H15Y  248   3.640   5.603  12.837 -1.4114  0.0393  0.6586
    2DOPE  C316  249   3.675   5.595  12.614  0.4612  1.0592  0.4300
    2DOPE  H16X  250   3.610   5.506  12.596  0.0474  1.6067 -0.9592
    2DOPE  H16Y  251   3.785   5.582  12.610  0.4366  0.9703 -0.2333
    2DOPE  C317  252   3.644   5.677  12.484  0.1945  0.1595 -0.0188
    2DOPE  H17X  253   3.536   5.704  12.491  0.3786  0.4128  3.0865
    2DOPE  H17Y  254   3.709   5.767  12.492  0.7363 -0.2166 -0.1536
    2DOPE  C318  255   3.675   5.598  12.358  0.0711  0.2346 -0.4341
    2DOPE  H18X  256   3.637   5.649  12.267  1.0251 -0.8630 -1.4799
    2DOPE  H18Y  257   3.784   5.574  12.357  0.3254  1.2588  0.4001
    2DOPE  H18Z  258   3.633   5.495  12.357 -1.6277  0.8537  1.0759
    3DOPE     N  259   1.157   0.467  14.589 -0.4052 -0.2410 -0.6064
    3DOPE   HN1  260   1.207   0.489  14.677  0.5629  0.3431 -1.2824
    3DOPE   HN2  261   1.059   0.503  14.585  0.0306  1.0166 -0.4695
    3DOPE   HN3  262   1.148   0.364  14.584  0.7513 -0.3555 -0.4499
    3DOPE   C12  263   1.229   0.522  14.475  0.1112 -0.4749  0.1795
    3DOPE  H12A  264   1.212   0.632  14.474  1.4606 -0.2228 -1.8901
    3DOPE  H12B  265   1.190   0.479  14.380 -0.2023  1.3244 -0.5687
    3DOPE   C11  266   1.383   0.501  14.479 -0.0375  0.4821 -0.5155
    3DOPE  H11A  267   1.414   0.549  14.574 -1.2284 -1.4717  0.9377
    3DOPE  H11B  268   1.439   0.553  14.398  2.0661 -0.0564  0.5345
    3DOPE     P  269   1.443   0.278  14.359  0.2211  0.4247 -0.0656
    3DOPE   O13  270   1.374   0.150  14.388 -0.0158  0.0051  0.9699
    3DOPE   O14  271   1.586   0.280  14.338 -0.2556 -0.2180 -0.0852
    3DOPE   O11  272   1.361   0.359  14.250  0.7908  0.1996 -0.4861
    3DOPE   O12  273   1.416   0.365  14.492 -0.1635  0.0789 -0.2726
    3DOPE    C1  274   1.289   0.288  14.148 -0.4315 -0.1502  0.3116
    3DOPE    HA  275   1.192   0.253  14.188 -1.9201  1.4537 -1.6489
    3DOPE    HB  276   1.338   0.202  14.099 -1.6136  0.3926 -2.0173
    3DOPE    C2  277   1.269   0.395  14.038  0.5992  0.7055  0.0076
    3DOPE    HS  278   1.214   0.472  14.097 -1.1649  0.9493 -1.8688
    3DOPE   O21  279   1.170   0.337  13.944 -0.4162  0.2002 -0.0115
    3DOPE   C21  280   1.088   0.412  13.887  0.2629 -0.1182 -0.5786
    3DOPE   O22  281   1.095   0.535  13.899  0.5053 -0.5636  0.0662
    3DOPE   C22  282   0.965   0.344  13.825  0.9100  0.1160 -0.2991
    3DOPE   H2R  283   0.880   0.350  13.897 -0.3351  3.6168 -1.8265
    3DOPE   H2S  284   0.985   0.236  13.814  3.2824  0.1512  2.4022
    3DOPE    C3  285   1.386   0.469  13.972  0.3347  0.4691 -0.1451
    3DOPE    HX  286   1.454   0.507  14.051 -0.8013  1.9832  0.1497
    3DOPE    HY  287   1.351   0.551  13.906 -1.4882 -0.8271 -0.8844
    3DOPE   O31  288   1.454   0.370  13.890  0.3499  0.0310 -0.0464
    3DOPE   C31  289   1.587   0.366  13.900  0.7647 -0.7016  0.2268
    3DOPE   O32  290   1.666   0.450  13.945  0.9705 -0.6927  0.5475
    3DOPE   C32  291   1.635   0.235  13.849 -0.0645  0.4189  0.9822
    3DOPE   H2X  292   1.666   0.184  13.943  0.4974 -0.1981  0.4730
    3DOPE   H2Y  293   1.550   0.175  13.810 -1.1185  1.6492  1.3401
    3DOPE   C23  294   0.924   0.412  13.690  0.5675  0.1926 -0.0181
    3DOPE   H3R  295   0.939   0.521  13.705  2.0650  0.4694 -2.9395
    3DOPE   H3S  296   0.822   0.383  13.658  0.3972  0.8867 -0.1191
    3DOPE   C24  297   1.019   0.384  13.576 -0.3715 -0.0217 -0.5012
    3DOPE   H4R  298   0.999   0.277  13.556  1.3844 -0.3793 -0.4155
    3DOPE   H4S  299   1.126   0.390  13.603 -0.2135 -0.4802 -1.0113
    3DOPE   C25  300   0.984   0.464  13.441  0.2347  0.0508 -0.2446
    3DOPE   H5R  301   1.004   0.572  13.457 -0.4415 -0.0316  1.2602
    3DOPE   H5S  302   0.883   0.438  13.404  1.2508 -2.6265 -1.4313
    3DOPE   C26  303   1.067   0.417  13.323  0.7644 -0.5356 -0.0132
    3DOPE   H6R  304   1.043   0.314  13.292  3.1405 -0.4575 -2.4688
    3DOPE   H6S  305   1.176   0.420  13.344  0.9510  3.0579 -0.8848
    3DOPE   C27  306   1.040   0.511  13.198 -0.8410  0.4424 -0.0626
    3DOPE   H7R  307   1.046   0.618  13.228 -0.7715  0.2507  0.6330
    3DOPE   H7S  308   0.939   0.492  13.156  0.0982 -2.5731 -1.2359
    3DOPE   C28  309   1.136   0.476  13.079 -0.2703 -0.6519  0.4089
    3DOPE   H8R  310   1.108   0.378  13.034 -0.6109 -1.6973  2.7523
    3DOPE   H8S  311   1.243   0.472  13.107 -0.1769  0.1112  0.1641
    3DOPE   C29  312   1.135   0.585  12.972  0.0776 -0.3630 -0.7472
    3DOPE   H9R  313   1.149   0.690  13.001  0.9464  0.1641 -2.8617
    3DOPE  C210  314   1.141   0.558  12.840 -0.5162 -0.0720  0.0356
    3DOPE  H10R  315   1.132   0.641  12.768 -1.5556 -0.6482 -0.5122
    3DOPE  C211  316   1.145   0.424  12.767 -0.4108 -0.3252 -0.1139
    3DOPE  H11R  317   1.070   0.364  12.824  0.4135  0.1101  1.5029
    3DOPE  H11S  318   1.247   0.381  12.774  0.2399  1.0463 -0.7993
    3DOPE  C212  319   1.107   0.442  12.618  0.2857  0.6174  0.0222
    3DOPE  H12R  320   1.208   0.461  12.575  0.0673 -0.9092 -1.2877
    3DOPE  H12S  321   1.030   0.520  12.598  0.5893  1.0378  0.4889
    3DOPE  C213  322   1.062   0.311  12.538 -0.6928 -0.7913 -0.2378
    3DOPE  H13R  323   0.986   0.248  12.590 -2.0712  0.0356 -1.1820
    3DOPE  H13S  324   1.157   0.259  12.515  1.5629  2.4109  0.9918
    3DOPE  C214  325   1.002   0.352  12.410  0.1188 -0.9017  0.3256
    3DOPE  H14R  326   1.082   0.391  12.343 -0.3835 -0.9222 -0.3003
    3DOPE  H14S  327   0.931   0.437  12.418  1.2178 -0.1370  2.8395
    3DOPE  C215  328   0.920   0.247  12.323  0.2862  0.0314 -0.7057
    3DOPE  H15R  329   0.845   0.196  12.387  0.2757  1.4942  0.4788
    3DOPE  H15S  330   0.995   0.173  12.289  0.9372 -0.4668  1.6605
    3DOPE  C216  331   0.859   0.300  12.198  0.7116  0.1061 -0.7728
    3DOPE  H16R  332   0.935   0.318  12.119 -0.0304 -1.6975 -1.9534
    3DOPE  H16S  333   0.809   0.393  12.232  1.3407  0.4146 -0.6836
    3DOPE  C217  334   0.759   0.203  12.144  0.0083  0.2846  0.2863
    3DOPE  H17R  335   0.691   0.169  12.226  2.3511 -0.8558  1.8457
    3DOPE  H17S  336   0.825   0.118  12.118 -0.5362  0.3105 -1.2939
    3DOPE  C218  337   0.691   0.251  12.013  0.2771 -0.3382 -0.4706
    3DOPE  H18R  338   0.771   0.281  11.942 -0.6826  2.9279 -0.3532
    3DOPE  H18S  339   0.634   0.345  12.031  2.0043  0.4641  1.2305
    3DOPE  H18T  340   0.629   0.175  11.961 -0.8343  0.3093 -0.1117
    3DOPE   C33  341   1.759   0.264  13.749 -0.3694 -0.1351 -0.3441
    3DOPE   H3X  342   1.810   0.166  13.762  0.0590 -0.2096 -2.2896
    3DOPE   H3Y  343   1.833   0.338  13.786 -0.0780 -0.4843 -0.2271
    3DOPE   C34  344   1.712   0.288  13.605  0.5057  0.1244 -0.9521
    3DOPE   H4X  345   1.649   0.202  13.572  0.6858  0.0391 -1.0738
    3DOPE   H4Y  346   1.650   0.380  13.596 -0.5527 -0.4093  0.4228
    3DOPE   C35  347   1.825   0.279  13.500 -0.5063 -0.0943 -0.4769
    3DOPE   H5X  348   1.874   0.185  13.535 -0.7627 -0.7846 -1.8785
    3DOPE   H5Y  349   1.890   0.368  13.513 -0.6918 -0.3412  3.2299
    3DOPE   C36  350   1.788   0.262  13.353 -0.1934  0.6134 -0.0812
    3DOPE   H6X  351   1.740   0.165  13.327 -0.3194  0.7516 -0.3680
    3DOPE   H6Y  352   1.882   0.266  13.294 -0.4890  0.2023 -0.5836
    3DOPE   C37  353   1.697   0.364  13.291  0.5702  0.1792 -0.0998
    3DOPE   H7X  354   1.602   0.347  13.346  0.2405  1.9937 -0.0613
    3DOPE   H7Y  355   1.738   0.464  13.318 -1.3696  0.8988  0.3647
    3DOPE   C38  356   1.676   0.348  13.136  0.0279 -0.3239 -0.2281
    3DOPE   H8X  357   1.585   0.404  13.105 -0.4361 -1.6386 -1.3221
    3DOPE   H8Y  358   1.657   0.241  13.116 -2.8850  0.3640 -1.6630
    3DOPE   C39  359   1.791   0.399  13.063 -0.1124 -0.7124  0.2969
    3DOPE   H9X  360   1.892   0.377  13.101 -0.3746  0.7303  1.9367
    3DOPE  C310  361   1.794   0.466  12.946  0.7784 -0.6432  0.2541
    3DOPE  H10X  362   1.891   0.499  12.907  0.0520 -0.1767 -1.2128
    3DOPE  C311  363   1.674   0.514  12.870 -0.7263  0.1827 -0.7468
    3DOPE  H11X  364   1.584   0.526  12.934  0.1940  2.3573  0.2429
    3DOPE  H11Y  365   1.704   0.611  12.825 -0.2932  0.6298  0.4483
    3DOPE  C312  366   1.630   0.431  12.744  0.4477 -0.4466  0.0804
    3DOPE  H12X  367   1.538   0.480  12.705  1.3377 -0.0785 -1.6767
    3DOPE  H12Y  368   1.604   0.325  12.765 -0.0600 -0.5979 -1.2172
    3DOPE  C313  369   1.740   0.429  12.639 -0.3552  0.9452  0.1594
    3DOPE  H13X  370   1.772   0.529  12.601  1.6831  0.2638 -0.0094
    3DOPE  H13Y  371   1.825   0.376  12.685 -1.0700  0.7278  1.2644
    3DOPE  C314  372   1.690   0.346  12.518  0.0884  0.8379  0.6754
    3DOPE  H14X  373   1.589   0.382  12.488 -0.6333 -1.3921  0.2434
    3DOPE  H14Y  374   1.679   0.238  12.542 -0.2653  0.9980  1.2294
    3DOPE  C315  375   1.793   0.362  12.399 -0.2238 -0.3927  0.1575
    3DOPE  H15X  376   1.887   0.318  12.439  0.4833 -0.1249 -1.1520
    3DOPE  H15Y  377   1.808   0.471  12.385 -1.5728 -0.0629  1.0616
    3DOPE  C316  378   1.750   0.294  12.265  0.3468  0.4521  0.2534
    3DOPE  H16X  379   1.654   0.340  12.235 -0.6522 -1.6021  0.1389
    3DOPE  H16Y  380   1.733   0.188  12.296  0.0265  0.7954  1.3063
    3DOPE  C317  381   1.854   0.303  12.151  0.5412 -0.1141  0.0464
    3DOPE  H17X  382   1.891   0.407  12.144  1.6937 -0.4237  1.1132
    3DOPE  H17Y  383   1.938   0.230  12.160  1.7393  1.0284 -1.4891
    3DOPE  C318  384   1.781   0.252  12.023  0.1091  0.1442 -0.6471
    3DOPE  H18X  385   1.714   0.170  12.057 -1.1396  1.6949  0.7508
    3DOPE  H18Y  386   1.713   0.335  11.994 -0.1876 -0.0224 -0.4337
    3DOPE  H18Z  387   1.857   0.226  11.945  0.9008 -1.7338  0.6781
    4DOPE     N  388   2.888   4.564  14.864 -0.5015  0.0721 -0.1757
    4DOPE   HN1  389   2.981   4.588  14.824  0.5919  0.3976  2.3797
    4DOPE   HN2  390   2.883   4.460  14.872 -0.9467 -0.0479 -1.6835
    4DOPE   HN3  391   2.817   4.587  14.791 -1.7585 -1.7232  0.4126
    4DOPE   C12  392   2.883   4.634  14.995  0.2754  0.2832  0.2892
    4DOPE  H12A  393   2.933   4.565  15.066  2.4484  1.8732  0.4163
    4DOPE  H12B  394   2.780   4.648  15.035  0.1116 -0.2661  0.0611
    4DOPE   C11  395   2.954   4.771  14.993 -0.1348 -0.9976  0.1241
    4DOPE  H11A  396   3.060   4.743  14.975  0.4021  1.4159 -0.7740
    4DOPE  H11B  397   2.937   4.814  15.094 -0.5739  0.3444 -0.5034
    4DOPE     P  398   2.969   4.996  14.860  0.2105 -0.1171  0.3126
    4DOPE   O13  399   3.091   5.000  14.938 -0.0387 -0.7069  0.0365
    4DOPE   O14  400   2.875   5.114  14.867  0.8419  0.8087 -0.4530
    4DOPE   O11  401   3.002   4.984  14.707 -0.2988 -0.8213  0.2487
    4DOPE   O12  402   2.899   4.853  14.888  0.8531 -0.2083  0.5470
    4DOPE    C1  403   2.886   4.987  14.616  0.4329 -0.4232 -0.4520
    4DOPE    HA  404   2.839   5.087  14.606 -0.9499 -1.2700 -3.7431
    4DOPE    HB  405   2.806   4.918  14.650 -1.3117  1.2359 -1.0067
    4DOPE    C2  406   2.932   4.935  14.475  0.4239 -0.4216  0.2995
    4DOPE    HS  407   2.995   4.848  14.503 -2.3134 -2.9186 -0.7509
    4DOPE   O21  408   3.009   5.049  14.415  0.0682 -0.5805 -0.3809
    4DOPE   C21  409   3.087   5.008  14.324 -0.3925 -0.0569  0.0215
    4DOPE   O22  410   3.127   4.898  14.301  0.0874  0.6228 -0.4187
    4DOPE   C22  411   3.123   5.129  14.246 -0.5716 -0.4621  0.1855
    4DOPE   H2R  412   3.215   5.164  14.297 -1.5756  2.2623  0.3049
    4DOPE   H2S  413   3.037   5.198  14.257 -0.5561 -0.1298 -1.5863
    4DOPE    C3  414   2.811   4.892  14.383 -0.2815  0.9773  0.5077
    4DOPE    HX  415   2.760   4.983  14.344  0.1038  0.5981 -0.9465
    4DOPE    HY  416   2.733   4.832  14.433 -1.8507  1.4788 -1.2281
    4DOPE   O31  417   2.848   4.821  14.259  0.1467  0.5628 -0.1291
    4DOPE   C31  418   2.893   4.699  14.292 -0.4465  0.1436 -0.2403
    4DOPE   O32  419   2.887   4.646  14.403  0.0288  0.4378 -0.2433
    4DOPE   C32  420   2.958   4.639  14.173  0.4265  0.0102 -0.0598
    4DOPE   H2X  421   2.901   4.653  14.079  0.3599 -0.1423 -0.0423
    4DOPE   H2Y  422   3.055   4.689  14.152  0.2288  0.2306 -0.4589
    4DOPE   C23  423   3.164   5.083  14.100 -0.6500 -0.4855  0.1149
    4DOPE   H3R  424   3.090   5.018  14.048  0.9864  0.1752 -3.3781
    4DOPE   H3S  425   3.257   5.024  14.114  0.5113  1.1799 -0.2706
    4DOPE   C24  426   3.183   5.203  14.002 -0.4841  0.6985 -0.4921
    4DOPE   H4R  427   3.264   5.264  14.049  1.3984 -0.4913 -2.0298
    4DOPE   H4S  428   3.095   5.271  13.993  0.1998  2.0460  1.9629
    4DOPE   C25  429   3.243   5.153  13.868  0.6877 -0.4014 -0.0488
    4DOPE   H5R  430   3.173   5.075  13.829  0.3459  0.4855 -1.2457
    4DOPE   H5S  431   3.341   5.102  13.877  0.7425 -0.3262 -0.2219
    4DOPE   C26  432   3.251   5.253  13.752  0.1675 -0.6319  0.4537
    4DOPE   H6R  433   3.332   5.324  13.780 -0.6942 -0.3659  2.3914
    4DOPE   H6S  434   3.157   5.312  13.754  1.0158  0.8335 -0.7886
    4DOPE   C27  435   3.265   5.190  13.617 -0.3334  0.0061 -0.2814
    4DOPE   H7R  436   3.198   5.103  13.605 -0.7128  0.2870 -0.2386
    4DOPE   H7S  437   3.366   5.146  13.610  0.0698  0.6507  1.1519
    4DOPE   C28  438   3.238   5.300  13.511 -0.1165  0.0603  0.2021
    4DOPE   H8R  439   3.140   5.348  13.534 -0.1350 -0.5257  1.4148
    4DOPE   H8S  440   3.230   5.255  13.410  0.2556  1.6050 -0.5466
    4DOPE   C29  441   3.342   5.417  13.509 -0.0639 -0.4499 -0.2963
    4DOPE   H9R  442   3.323   5.517  13.551  1.8527 -0.3589  0.4686
    4DOPE  C210  443   3.467   5.402  13.463 -0.3801  0.1871 -0.3151
    4DOPE  H10R  444   3.546   5.478  13.469 -1.6518  1.4840  0.6317
    4DOPE  C211  445   3.514   5.284  13.387  0.0719 -0.0924  0.1681
    4DOPE  H11R  446   3.482   5.187  13.432  0.2505  0.3039  1.1685
    4DOPE  H11S  447   3.625   5.291  13.387  0.1590 -0.6195 -2.4436
    4DOPE  C212  448   3.470   5.268  13.237  0.4663  0.0957  0.4755
    4DOPE  H12R  449   3.495   5.359  13.178  0.9404  0.9042  1.8753
    4DOPE  H12S  450   3.364   5.235  13.229  0.8401 -0.8888 -0.7333
    4DOPE  C213  451   3.553   5.156  13.168  0.1163  0.4702 -0.1853
    4DOPE  H13R  452   3.527   5.064  13.224  1.4100  0.3103  0.1849
    4DOPE  H13S  453   3.662   5.167  13.187  0.2357 -1.2793  0.3542
    4DOPE  C214  454   3.540   5.141  13.010  0.3271  0.3802  0.2507
    4DOPE  H14R  455   3.543   5.248  12.979 -0.1645  0.5687  0.8394
    4DOPE  H14S  456   3.441   5.092  12.999  0.0707  0.7943  0.6599
    4DOPE  C215  457   3.651   5.058  12.933  0.5470 -0.6215  0.2420
    4DOPE  H15R  458   3.648   4.953  12.968  0.2089 -0.1618  1.6627
    4DOPE  H15S  459   3.754   5.090  12.960  0.7196 -2.5593  2.1019
    4DOPE  C216  460   3.621   5.074  12.785 -0.2738  0.6710  0.8671
    4DOPE  H16R  461   3.510   5.065  12.778 -0.4118  1.7974  1.3107
    4DOPE  H16S  462   3.682   4.994  12.738 -0.6914  0.7566  0.1700
    4DOPE  C217  463   3.665   5.209  12.720 -0.0035 -0.5073 -0.4726
    4DOPE  H17R  464   3.773   5.214  12.743 -0.4837  1.1180  1.7932
    4DOPE  H17S  465   3.609   5.295  12.765 -0.0164 -1.4241  1.3430
    4DOPE  C218  466   3.646   5.194  12.567 -0.3156  0.2627  0.3692
    4DOPE  H18R  467   3.659   5.295  12.524  0.6788 -0.4124 -0.9977
    4DOPE  H18S  468   3.547   5.148  12.544  1.4734 -2.9753 -1.7339
    4DOPE  H18T  469   3.719   5.125  12.518 -1.4131 -1.8998  1.6142
    4DOPE   C33  470   2.977   4.488  14.176  0.2660  0.4489  0.2506
    4DOPE   H3X  471   2.882   4.430  14.171  0.6393 -0.7888  4.0576
    4DOPE   H3Y  472   3.011   4.466  14.279  1.6230 -1.0965 -0.4800
    4DOPE   C34  473   3.085   4.446  14.080 -0.6130 -0.4732  0.2834
    4DOPE   H4X  474   3.076   4.491  13.979 -0.2926  1.2764  0.9956
    4DOPE   H4Y  475   3.181   4.486  14.117  0.1653 -1.7036 -0.3353
    4DOPE   C35  476   3.101   4.290  14.085 -0.2707  0.7677 -0.3707
    4DOPE   H5X  477   3.000   4.247  14.068  0.8392 -2.1138 -0.2404
    4DOPE   H5Y  478   3.143   4.254  14.181 -2.1870 -0.7026 -0.0393
    4DOPE   C36  479   3.185   4.235  13.969 -0.3198  0.3552 -0.0912
    4DOPE   H6X  480   3.291   4.264  13.983 -0.3984  0.3367  0.6028
    4DOPE   H6Y  481   3.147   4.282  13.876 -1.1524  0.1449  0.1311
    4DOPE   C37  482   3.171   4.082  13.951 -0.2380 -0.6586 -0.2307
    4DOPE   H7X  483   3.076   4.047  13.997  0.7555 -0.8188  1.7852
    4DOPE   H7Y  484   3.159   4.054  13.844  0.1701  1.4269 -0.8804
    4DOPE   C38  485   3.296   4.019  14.023  0.4960  0.2039  0.7699
    4DOPE   H8X  486   3.279   4.039  14.131 -1.2103 -1.6553  0.9246
    4DOPE   H8Y  487   3.390   4.064  13.987 -2.0049  2.5340 -3.7726
    4DOPE   C39  488   3.302   3.869  14.008 -0.7726  0.4682  0.0861
    4DOPE   H9X  489   3.257   3.808  14.088 -1.7590 -0.1288 -0.8952
    4DOPE  C310  490   3.364   3.797  13.903 -0.0225  0.3236 -0.1801
    4DOPE  H10X  491   3.359   3.688  13.919 -1.0324  0.3662 -0.1556
    4DOPE  C311  492   3.431   3.856  13.782  0.4794  0.5958 -0.6506
    4DOPE  H11X  493   3.418   3.966  13.779 -2.7398  0.4289  1.3397
    4DOPE  H11Y  494   3.538   3.828  13.777  0.3960  0.3977 -1.3786
    4DOPE  C312  495   3.360   3.802  13.657  0.1811 -0.0317  0.2907
    4DOPE  H12X  496   3.249   3.802  13.665 -0.0055 -4.0699 -0.5120
    4DOPE  H12Y  497   3.387   3.697  13.635  0.2301 -0.0520  0.4503
    4DOPE  C313  498   3.403   3.878  13.530  0.1930  0.2965  0.5259
    4DOPE  H13X  499   3.389   3.988  13.540 -1.2353  0.2377 -0.4536
    4DOPE  H13Y  500   3.514   3.871  13.522  0.1766  0.9899 -0.6402
    4DOPE  C314  501   3.326   3.835  13.399  0.9302  0.2733 -0.1416
    4DOPE  H14X  502   3.217   3.839  13.422  0.8498  1.9379 -0.6418
    4DOPE  H14Y  503   3.350   3.727  13.391  1.7905  0.3196  1.3477
    4DOPE  C315  504   3.359   3.926  13.289 -0.0743 -0.5703 -0.3404
    4DOPE  H15X  505   3.466   3.913  13.262 -0.4461  1.3686 -3.3597
    4DOPE  H15Y  506   3.345   4.028  13.330  1.2953 -0.6303  0.3385
    4DOPE  C316  507   3.280   3.902  13.160  0.5648  0.7271 -0.2623
    4DOPE  H16X  508   3.322   3.958  13.073  0.6113 -0.2092 -0.8593
    4DOPE  H16Y  509   3.176   3.938  13.174 -0.3046 -1.8898  0.5995
    4DOPE  C317  510   3.268   3.752  13.116  0.2599 -0.0409  0.4379
    4DOPE  H17X  511   3.362   3.693  13.113  0.2963 -0.0019  0.7868
    4DOPE  H17Y  512   3.192   3.704  13.180 -0.4982  2.6605  1.7386
    4DOPE  C318  513   3.211   3.738  12.972 -0.4215 -0.4279 -0.4625
    4DOPE  H18X  514   3.118   3.798  12.969  0.6022  1.2432 -0.5509
    4DOPE  H18Y  515   3.276   3.778  12.891  0.0445  1.2572  0.6767
    4DOPE  H18Z  516   3.193   3.633  12.941 -0.2572  0.1352 -2.5992
    5DOPE     N  517   0.702   6.401  14.605  0.5579  0.0614 -0.3689
    5DOPE   HN1  518   0.693   6.301  14.633 -1.6964  0.1356 -0.6462
    5DOPE   HN2  519   0.797   6.422  14.642  0.8755 -1.4716 -0.2164
    5DOPE   HN3  520   0.632   6.462  14.652 -0.1467 -1.3785  0.5234
    5DOPE   C12  521   0.701   6.424  14.454  0.2588 -0.1313  0.0555
    5DOPE  H12A  522   0.604   6.389  14.411 -1.3064  3.9558 -0.1859
    5DOPE  H12B  523   0.789   6.370  14.412  0.4553 -1.3274  1.9049
    5DOPE   C11  524   0.714   6.568  14.414  0.6348  0.2241 -0.5828
    5DOPE  H11A  525   0.626   6.623  14.454 -1.3239 -1.3060 -2.5261
    5DOPE  H11B  526   0.721   6.584  14.305  0.0015 -0.9664 -0.8171
    5DOPE     P  527   0.864   6.778  14.441  0.1550 -0.0616 -0.0574
    5DOPE   O13  528   1.009   6.789  14.410 -0.0677  0.1354  0.0191
    5DOPE   O14  529   0.818   6.865  14.548  0.0958 -0.5344 -0.1714
    5DOPE   O11  530   0.783   6.812  14.310  0.2892 -0.2760 -0.0185
    5DOPE   O12  531   0.832   6.627  14.477 -0.2442  0.3890 -0.3976
    5DOPE    C1  532   0.680   6.916  14.311 -0.4581  0.4472 -0.2160
    5DOPE    HA  533   0.725   7.014  14.337  0.5655  0.5048 -2.0565
    5DOPE    HB  534   0.602   6.900  14.388  0.3248  1.4083  0.8113
    5DOPE    C2  535   0.606   6.919  14.177 -0.2674  0.4633  0.6385
    5DOPE    HS  536   0.543   7.010  14.165 -0.4600  0.2749  0.1845
    5DOPE   O21  537   0.535   6.797  14.179 -0.1730  0.0636 -0.3044
    5DOPE   C21  538   0.426   6.784  14.107  0.1436 -0.2568 -0.8936
    5DOPE   O22  539   0.367   6.872  14.051  0.1424  0.8376 -0.2356
    5DOPE   C22  540   0.375   6.642  14.111 -0.6100 -0.5301  0.1918
    5DOPE   H2R  541   0.280   6.656  14.056 -2.4827 -0.1337  3.2927
    5DOPE   H2S  542   0.343   6.617  14.214 -2.7446  1.2107  0.0174
    5DOPE    C3  543   0.716   6.929  14.061  0.3052 -0.4996  0.0775
    5DOPE    HX  544   0.770   6.832  14.070  0.3957 -0.4281  0.3037
    5DOPE    HY  545   0.794   7.003  14.088 -0.5675  1.3642 -2.2219
    5DOPE   O31  546   0.667   6.941  13.927 -0.2503 -0.1245 -0.6444
    5DOPE   C31  547   0.604   7.052  13.884 -0.2080 -0.2294 -0.7019
    5DOPE   O32  548   0.581   7.150  13.946  0.1769  0.1748 -0.0419
    5DOPE   C32  549   0.544   7.030  13.746 -0.5220  0.1561 -0.2248
    5DOPE   H2X  550   0.433   7.034  13.753 -0.7438 -2.1592 -1.3890
    5DOPE   H2Y  551   0.578   7.105  13.671  1.1582  0.6282  0.9499
    5DOPE   C23  552   0.476   6.536  14.055  0.0941  0.6469 -0.1591
    5DOPE   H3R  553   0.438   6.432  14.069  2.7984 -0.1622  1.9602
    5DOPE   H3S  554   0.574   6.547  14.106  0.2915  1.8719 -0.7610
    5DOPE   C24  555   0.491   6.550  13.905  0.8793 -0.3566 -0.5663
    5DOPE   H4R  556   0.581   6.490  13.881  1.2764 -0.3408  0.8264
    5DOPE   H4S  557   0.498   6.655  13.869 -0.5078 -0.0875 -0.1122
    5DOPE   C25  558   0.383   6.465  13.826  0.5446  0.5581 -0.2705
    5DOPE   H5R  559   0.291   6.484  13.884  1.7963  0.4485  1.8627
    5DOPE   H5S  560   0.411   6.357  13.826  0.3616  0.4995 -1.3205
    5DOPE   C26  561   0.369   6.520  13.691  0.0258  0.3865 -0.2768
    5DOPE   H6R  562   0.380   6.631  13.689  0.9430  0.2940 -0.6897
    5DOPE   H6S  563   0.271   6.480  13.657  0.9171 -2.0503 -0.1510
    5DOPE   C27  564   0.484   6.468  13.598  0.3131 -0.3214 -0.3789
    5DOPE   H7R  565   0.482   6.358  13.589  1.7962 -0.3378 -0.7935
    5DOPE   H7S  566   0.583   6.484  13.646 -0.8253 -0.2749  2.1275
    5DOPE   C28  567   0.479   6.519  13.458 -0.5398  0.0533  0.0163
    5DOPE   H8R  568   0.568   6.490  13.399  0.2741  2.7103 -0.1785
    5DOPE   H8S  569   0.493   6.629  13.467 -0.5209  0.2189 -1.6971
    5DOPE   C29  570   0.356   6.480  13.384 -0.3109  0.2055  0.7437
    5DOPE   H9R  571   0.285   6.413  13.435  0.0595 -1.1717 -0.4933
    5DOPE  C210  572   0.332   6.512  13.257 -0.1486  0.3078  0.0341
    5DOPE  H10R  573   0.234   6.491  13.213 -0.4119  2.2429 -0.3740
    5DOPE  C211  574   0.409   6.598  13.167  0.7163  0.4125 -0.4371
    5DOPE  H11R  575   0.517   6.590  13.192  1.4171 -1.1276 -3.4143
    5DOPE  H11S  576   0.384   6.706  13.175  1.5071  0.4658  2.1917
    5DOPE  C212  577   0.397   6.557  13.017  0.0187 -0.1371  0.0492
    5DOPE  H12R  578   0.482   6.615  12.977 -0.9261  1.1193 -0.2053
    5DOPE  H12S  579   0.304   6.584  12.963  0.1887  0.7328  0.1775
    5DOPE  C213  580   0.435   6.414  12.999 -0.3150  0.5997 -0.2815
    5DOPE  H13R  581   0.367   6.343  13.051 -0.6514  1.0993 -0.0378
    5DOPE  H13S  582   0.540   6.394  13.032  0.0598 -0.2189 -1.8700
    5DOPE  C214  583   0.430   6.380  12.847 -0.5489 -0.4107 -0.4357
    5DOPE  H14R  584   0.364   6.454  12.798 -1.3148  0.2786  1.5163
    5DOPE  H14S  585   0.392   6.276  12.841 -0.8923 -0.3610  0.6860
    5DOPE  C215  586   0.567   6.383  12.788  0.6272  0.1130 -0.3319
    5DOPE  H15R  587   0.635   6.330  12.859  0.1157 -1.0567 -0.6891
    5DOPE  H15S  588   0.581   6.493  12.787 -0.3210  0.2383 -1.8304
    5DOPE  C216  589   0.572   6.320  12.650 -0.0463  0.2439 -0.0672
    5DOPE  H16R  590   0.499   6.364  12.578 -1.6390 -0.6479  0.9228
    5DOPE  H16S  591   0.567   6.209  12.655  0.5455  0.2603  1.0558
    5DOPE  C217  592   0.709   6.350  12.596 -0.0901  0.2156 -0.3265
    5DOPE  H17R  593   0.780   6.307  12.670 -0.9540 -0.1053  0.3338
    5DOPE  H17S  594   0.706   6.461  12.603 -2.3069  0.1018  3.9219
    5DOPE  C218  595   0.743   6.297  12.461 -0.0712  0.0837  0.6545
    5DOPE  H18R  596   0.850   6.316  12.437 -0.4084 -0.3739 -1.3836
    5DOPE  H18S  597   0.692   6.357  12.383 -2.5346  1.8581  3.4247
    5DOPE  H18T  598   0.725   6.188  12.453 -0.1278  0.1455 -0.1681
    5DOPE   C33  599   0.572   6.891  13.687 -0.0659  0.2003  0.1646
    5DOPE   H3X  600   0.491   6.855  13.620  0.4618 -1.5992  0.4596
    5DOPE   H3Y  601   0.583   6.821  13.772  1.4970  0.2052  0.0118
    5DOPE   C34  602   0.706   6.876  13.596  0.2411  0.2191 -0.3660
    5DOPE   H4X  603   0.798   6.912  13.648  0.1198 -0.0422  0.0314
    5DOPE   H4Y  604   0.715   6.769  13.568  0.7169 -0.4985  2.2727
    5DOPE   C35  605   0.679   6.955  13.470  0.2388  0.1476  0.2615
    5DOPE   H5X  606   0.701   7.064  13.469 -0.4886  0.2997 -0.5398
    5DOPE   H5Y  607   0.570   6.955  13.445  0.4252 -0.5535 -0.6010
    5DOPE   C36  608   0.760   6.894  13.356 -0.0842  0.4853  0.2535
    5DOPE   H6X  609   0.740   6.785  13.348 -0.2253  0.4901  0.5369
    5DOPE   H6Y  610   0.866   6.905  13.388 -0.3721  0.8976  1.0809
    5DOPE   C37  611   0.755   6.968  13.221  1.0090  0.0119  0.3687
    5DOPE   H7X  612   0.650   6.983  13.187  0.8547  0.5347  1.0488
    5DOPE   H7Y  613   0.798   7.069  13.235  0.2603  0.4166 -0.1602
    5DOPE   C38  614   0.831   6.902  13.108 -0.3384  0.1071 -0.4254
    5DOPE   H8X  615   0.781   6.806  13.083 -1.0436  0.0692  1.0193
    5DOPE   H8Y  616   0.933   6.870  13.138 -0.4101 -0.1793 -0.4818
    5DOPE   C39  617   0.842   7.006  12.990 -0.1423 -0.0322  0.3084
    5DOPE   H9X  618   0.873   7.111  12.998 -2.9466  1.2951 -3.2656
    5DOPE  C310  619   0.789   6.995  12.869  0.2788  0.2496  0.3792
    5DOPE  H10X  620   0.790   7.082  12.803  1.6795  1.0336  1.3883
    5DOPE  C311  621   0.726   6.881  12.802  0.2842  0.1179 -0.4290
    5DOPE  H11X  622   0.781   6.862  12.707 -0.6179  0.4228 -1.0351
    5DOPE  H11Y  623   0.732   6.787  12.861 -0.3788  0.8968  0.9105
    5DOPE  C312  624   0.576   6.898  12.767  0.1402 -0.4135  0.1855
    5DOPE  H12X  625   0.558   6.998  12.721 -0.0926 -0.0078  1.1303
    5DOPE  H12Y  626   0.516   6.910  12.860  0.1145 -2.1184  0.4056
    5DOPE  C313  627   0.515   6.791  12.677 -0.3248  0.4520 -0.1753
    5DOPE  H13X  628   0.538   6.695  12.728 -2.5396 -1.1967 -2.0640
    5DOPE  H13Y  629   0.404   6.796  12.676 -0.3103  4.8553  0.7516
    5DOPE  C314  630   0.570   6.786  12.536  0.5130 -0.1252  0.0404
    5DOPE  H14X  631   0.678   6.759  12.541  0.0392 -2.1015  0.4369
    5DOPE  H14Y  632   0.561   6.888  12.493 -0.1748 -0.6266 -1.0529
    5DOPE  C315  633   0.505   6.679  12.451  0.6309  0.0290  0.5546
    5DOPE  H15X  634   0.402   6.715  12.426  0.2552 -0.6713  1.0596
    5DOPE  H15Y  635   0.497   6.585  12.509  1.3654  0.2859  1.0898
    5DOPE  C316  636   0.570   6.673  12.310  0.8389 -0.4158  0.2723
    5DOPE  H16X  637   0.666   6.623  12.336 -0.9801 -3.7800  1.1913
    5DOPE  H16Y  638   0.584   6.776  12.272 -0.3539 -1.1856 -2.6000
    5DOPE  C317  639   0.494   6.581  12.210  0.0894  0.4903  0.0670
    5DOPE  H17X  640   0.561   6.567  12.122  0.6129  0.2266  0.4967
    5DOPE  H17Y  641   0.491   6.488  12.270 -0.6516  1.1079  1.0243
    5DOPE  C318  642   0.350   6.628  12.175  0.6715 -0.2464 -0.2266
    5DOPE  H18X  643   0.344   6.735  12.147  0.4123  0.5859  2.6723
    5DOPE  H18Y  644   0.303   6.573  12.091 -0.5588 -0.4607  0.5700
    5DOPE  H18Z  645   0.281   6.610  12.261  0.2759  0.7518 -0.3245
    6DOPE     N  646   0.048   1.001  14.402  0.3810 -0.2543  0.1763
    6DOPE   HN1  647  -0.014   1.069  14.452  0.6567 -0.5294  0.9135
    6DOPE   HN2  648   0.115   1.051  14.340  0.5750 -1.4443 -0.6082
    6DOPE   HN3  649  -0.007   0.946  14.333 -1.2526  1.5561 -0.0581
    6DOPE   C12  650   0.116   0.927  14.511  0.8846 -0.0334  0.2962
    6DOPE  H12A  651   0.062   0.831  14.526  2.1195 -0.5576  1.5931
    6DOPE  H12B  652   0.098   0.998  14.595  0.0575 -0.4245  0.4579
    6DOPE   C11  653   0.263   0.912  14.482  0.0956 -0.1351  1.0835
    6DOPE  H11A  654   0.303   0.847  14.563 -2.9660 -3.1659  0.3868
    6DOPE  H11B  655   0.309   1.013  14.489  2.6242 -1.2752  2.1737
    6DOPE     P  656   0.438   0.851  14.312  0.0880  0.2151 -0.4379
    6DOPE   O13  657   0.505   0.758  14.404 -0.3189 -0.2482 -0.6881
    6DOPE   O14  658   0.500   0.984  14.297  0.0635  0.0806  0.2096
    6DOPE   O11  659   0.435   0.783  14.172  0.4823 -0.0584 -0.0239
    6DOPE   O12  660   0.286   0.867  14.347  0.0511  0.5042  0.3281
    6DOPE    C1  661   0.362   0.654  14.161 -0.3878  0.0884  0.0505
    6DOPE    HA  662   0.269   0.645  14.221  0.2603 -0.6369  0.9789
    6DOPE    HB  663   0.431   0.575  14.198 -0.9721 -0.0539  0.8581
    6DOPE    C2  664   0.322   0.620  14.018 -0.7112 -0.4977  0.2092
    6DOPE    HS  665   0.413   0.612  13.954 -0.3092 -1.6084  0.8858
    6DOPE   O21  666   0.212   0.703  13.961 -0.3476  0.1006 -0.5686
    6DOPE   C21  667   0.261   0.821  13.924 -0.0886  0.3757 -0.7167
    6DOPE   O22  668   0.375   0.845  13.901 -0.3024 -0.4821  0.2184
    6DOPE   C22  669   0.137   0.905  13.920  0.5514  0.5955 -0.0012
    6DOPE   H2R  670   0.090   0.920  14.020 -2.4884  0.4184 -1.3027
    6DOPE   H2S  671   0.059   0.857  13.857  1.1037  0.5456 -0.6627
    6DOPE    C3  672   0.265   0.474  14.015 -0.1053 -0.6774  0.2507
    6DOPE    HX  673   0.182   0.463  14.088 -1.9942  0.2854 -1.6530
    6DOPE    HY  674   0.346   0.404  14.043  0.1492 -0.9968 -1.2004
    6DOPE   O31  675   0.226   0.439  13.874  0.2182 -0.0397 -0.5692
    6DOPE   C31  676   0.098   0.461  13.848 -0.1162 -0.1217 -0.1704
    6DOPE   O32  677   0.013   0.499  13.928 -0.4259 -0.7247 -0.0443
    6DOPE   C32  678   0.091   0.465  13.690 -0.3305  0.5381  0.4707
    6DOPE   H2X  679   0.158   0.379  13.668  0.3169  0.3049  3.0032
    6DOPE   H2Y  680  -0.010   0.446  13.649  1.1454 -1.0472 -2.8447
    6DOPE   C23  681   0.159   1.040  13.846  0.1033 -0.4290  0.3828
    6DOPE   H3R  682   0.259   1.085  13.865 -0.0837  0.7505 -1.2243
    6DOPE   H3S  683   0.078   1.113  13.871 -1.9768 -3.1019  2.0196
    6DOPE   C24  684   0.136   1.031  13.692 -0.2362 -0.1807 -0.7093
    6DOPE   H4R  685   0.105   1.130  13.653 -3.2638 -1.0265 -0.7527
    6DOPE   H4S  686   0.064   0.949  13.671  0.6658 -0.6016 -2.3135
    6DOPE   C25  687   0.274   1.013  13.628  0.6723  0.3432  0.3057
    6DOPE   H5R  688   0.303   0.909  13.657  1.3457  0.5539  0.3805
    6DOPE   H5S  689   0.339   1.086  13.679 -0.0353  0.0596  1.6805
    6DOPE   C26  690   0.267   1.038  13.472  0.0483  0.0905  0.4946
    6DOPE   H6R  691   0.353   0.996  13.416 -1.0388 -0.9592 -0.4390
    6DOPE   H6S  692   0.277   1.147  13.453  0.0608  0.1804  0.9990
    6DOPE   C27  693   0.141   0.986  13.402 -0.7432 -0.0657  0.4271
    6DOPE   H7R  694   0.053   1.033  13.452 -1.2240  0.0202 -0.4832
    6DOPE   H7S  695   0.138   0.877  13.421  1.1272 -0.4428 -1.1969
    6DOPE   C28  696   0.126   1.030  13.252  0.6177  0.3915 -0.0833
    6DOPE   H8R  697   0.222   1.009  13.199 -0.9550 -1.4504 -2.4196
    6DOPE   H8S  698   0.126   1.141  13.243  1.3657  0.2506 -2.4460
    6DOPE   C29  699   0.005   0.960  13.190  0.4071 -0.2336  0.3330
    6DOPE   H9R  700  -0.074   0.940  13.264 -0.8324  0.2520 -0.7950
    6DOPE  C210  701  -0.000   0.901  13.067 -0.0694  0.1186 -0.3465
    6DOPE  H10R  702  -0.078   0.825  13.050 -1.7080  2.1687 -2.7520
    6DOPE  C211  703   0.104   0.908  12.962 -0.3744  0.0454 -0.8656
    6DOPE  H11R  704   0.134   0.806  12.932  1.4185  0.1086  0.5333
    6DOPE  H11S  705   0.200   0.956  12.992  0.1522 -0.6931 -1.3455
    6DOPE  C212  706   0.054   0.977  12.835 -0.1512 -0.7401  0.5010
    6DOPE  H12R  707   0.046   1.088  12.835  1.1017 -0.5280 -2.7851
    6DOPE  H12S  708  -0.047   0.931  12.827  0.2410 -1.5531  0.0588
    6DOPE  C213  709   0.140   0.939  12.715 -0.6576  0.1267  0.4030
    6DOPE  H13R  710   0.134   0.831  12.692  0.7264  0.4415 -1.6488
    6DOPE  H13S  711   0.244   0.970  12.739 -0.4402  0.3831 -0.8246
    6DOPE  C214  712   0.084   1.006  12.587  0.2159  0.2493  0.7370
    6DOPE  H14R  713   0.061   1.115  12.582  0.6126  0.2676 -1.4103
    6DOPE  H14S  714  -0.012   0.955  12.566  0.7905 -0.5236 -0.1100
    6DOPE  C215  715   0.177   0.990  12.462 -0.0752  0.6922 -0.8990
    6DOPE  H15R  716   0.197   0.881  12.451  0.2734  0.8924 -2.4891
    6DOPE  H15S  717   0.268   1.051  12.477 -0.5424  1.2006 -0.0304
    6DOPE  C216  718   0.112   1.047  12.341  0.2328  0.0632  0.5951
    6DOPE  H16R  719   0.071   1.149  12.360  0.2456  0.1968 -0.0638
    6DOPE  H16S  720   0.024   0.987  12.311  0.8563 -0.4174 -0.3110
    6DOPE  C217  721   0.192   1.057  12.202 -0.1539  0.0464 -0.1167
    6DOPE  H17R  722   0.273   0.982  12.217 -1.8646 -1.8101  0.2862
    6DOPE  H17S  723   0.232   1.159  12.185  2.2318 -1.0046 -1.2520
    6DOPE  C218  724   0.104   1.005  12.088  0.0330 -0.1181 -0.4091
    6DOPE  H18R  725   0.163   1.000  11.994  2.3107  0.8412  0.8810
    6DOPE  H18S  726   0.010   1.063  12.079 -0.0588  0.1152  1.5645
    6DOPE  H18T  727   0.068   0.900  12.098  0.4250 -0.5126 -2.6279
    6DOPE   C33  728   0.152   0.594  13.638 -0.4439  0.0230 -0.9113
    6DOPE   H3X  729   0.236   0.630  13.700 -1.7744  2.8122 -0.5724
    6DOPE   H3Y  730   0.078   0.676  13.626  1.1099  1.8198  1.0871
    6DOPE   C34  731   0.202   0.578  13.497 -0.8801  0.4460 -0.4912
    6DOPE   H4X  732   0.120   0.545  13.429 -1.7143 -3.1483  1.9677
    6DOPE   H4Y  733   0.238   0.678  13.465  1.7666 -0.9400 -2.2841
    6DOPE   C35  734   0.322   0.477  13.476  0.2912 -0.3747 -0.5218
    6DOPE   H5X  735   0.292   0.371  13.493  3.0047 -0.9293  1.5158
    6DOPE   H5Y  736   0.392   0.500  13.559 -0.7787 -0.4468  0.4210
    6DOPE   C36  737   0.391   0.495  13.341 -0.3771  0.1502  1.0060
    6DOPE   H6X  738   0.488   0.443  13.355  1.5285  3.0093 -0.4095
    6DOPE   H6Y  739   0.412   0.601  13.315 -0.9376  0.0553  0.1150
    6DOPE   C37  740   0.312   0.431  13.219 -0.3829  0.2332 -0.4991
    6DOPE   H7X  741   0.249   0.350  13.261  2.0816 -0.7380  1.5981
    6DOPE   H7Y  742   0.244   0.502  13.168  1.3162  2.0693 -0.3346
    6DOPE   C38  743   0.405   0.367  13.110  0.4740 -0.3678  0.2654
    6DOPE   H8X  744   0.463   0.287  13.162 -0.6985 -1.0662  0.5291
    6DOPE   H8Y  745   0.473   0.443  13.066  0.9931 -0.4631  0.8693
    6DOPE   C39  746   0.342   0.285  13.005  1.3458  0.1615 -0.0458
    6DOPE   H9X  747   0.365   0.178  13.008 -0.4153 -0.2403  1.7654
    6DOPE  C310  748   0.272   0.333  12.897  0.7185  1.0030  0.6997
    6DOPE  H10X  749   0.232   0.265  12.820  2.3266  0.8730 -0.0595
    6DOPE  C311  750   0.236   0.479  12.877  0.8069  0.1077  0.5611
    6DOPE  H11X  751   0.128   0.486  12.903  0.7560 -0.6182  0.5756
    6DOPE  H11Y  752   0.295   0.549  12.939 -0.8319  0.7258  1.4894
    6DOPE  C312  753   0.270   0.523  12.729  0.4761  0.1981  0.0917
    6DOPE  H12X  754   0.361   0.482  12.681 -1.4139 -2.1451 -1.7516
    6DOPE  H12Y  755   0.265   0.634  12.730 -0.9244  0.1493  0.5766
    6DOPE  C313  756   0.161   0.473  12.636  0.8419 -0.2766 -0.6432
    6DOPE  H13X  757   0.161   0.365  12.611 -0.3384 -0.3466 -0.4278
    6DOPE  H13Y  758   0.059   0.470  12.681  1.8105 -1.9500  1.6491
    6DOPE  C314  759   0.138   0.557  12.509 -0.8368  0.5387 -0.1299
    6DOPE  H14X  760   0.233   0.539  12.454  0.0805  1.8074  0.9873
    6DOPE  H14Y  761   0.129   0.667  12.523 -1.4931  0.4812 -0.0451
    6DOPE  C315  762   0.017   0.519  12.424  0.6583  0.4797 -0.2887
    6DOPE  H15X  763   0.015   0.562  12.321 -1.7659 -1.5272 -1.1830
    6DOPE  H15Y  764  -0.060   0.581  12.476  0.3255  1.1262 -1.5140
    6DOPE  C316  765  -0.016   0.376  12.405  0.1201 -0.4603  0.1103
    6DOPE  H16X  766  -0.034   0.325  12.502 -2.1334  2.7170  1.5409
    6DOPE  H16Y  767   0.061   0.313  12.355  4.0297  2.6996  1.6081
    6DOPE  C317  768  -0.153   0.348  12.339 -0.3393  0.9451 -0.1923
    6DOPE  H17X  769  -0.231   0.370  12.415 -0.3738  1.3028 -0.3289
    6DOPE  H17Y  770  -0.168   0.410  12.247 -0.5557 -0.1374 -0.9072
    6DOPE  C318  771  -0.162   0.200  12.295  0.3850 -0.4952 -0.1423
    6DOPE  H18X  772  -0.183   0.129  12.377  1.9174 -0.7877  0.0264
    6DOPE  H18Y  773  -0.244   0.190  12.221  0.8635 -0.2196 -0.7285
    6DOPE  H18Z  774  -0.071   0.149  12.256  0.7982 -0.1890  0.4091
    7DOPE     N  775   3.703   0.106  14.630  0.3258  0.6050  0.1566
    7DOPE   HN1  776   3.734   0.059  14.543 -0.7009 -0.5451  0.3785
    7DOPE   HN2  777   3.724   0.049  14.715  0.5186  1.7473  0.8971
    7DOPE   HN3  778   3.600   0.097  14.621  0.3557 -1.6793  1.2599
    7DOPE   C12  779   3.742   0.252  14.638  0.4995 -0.2160 -0.2205
    7DOPE  H12A  780   3.853   0.261  14.640  0.5777 -1.1311 -0.0650
    7DOPE  H12B  781   3.710   0.285  14.739 -0.3324 -0.3510 -0.4290
    7DOPE   C11  782   3.675   0.341  14.525  0.0769 -0.3885 -0.9019
    7DOPE  H11A  783   3.693   0.300  14.424 -1.3239 -1.9645 -0.5542
    7DOPE  H11B  784   3.723   0.441  14.529 -1.5461  0.4264 -1.0542
    7DOPE     P  785   3.424   0.280  14.477 -0.5426 -0.1070 -0.2058
    7DOPE   O13  786   3.294   0.345  14.504  0.2767  0.0709  0.3261
    7DOPE   O14  787   3.448   0.143  14.528  0.1672  0.4962 -0.2879
    7DOPE   O11  788   3.462   0.288  14.322 -0.3250 -0.8041 -0.6957
    7DOPE   O12  789   3.540   0.365  14.546  0.0065 -0.2054  0.2547
    7DOPE    C1  790   3.394   0.380  14.230 -0.2439  1.0473  0.3425
    7DOPE    HA  791   3.400   0.485  14.265  0.3683 -0.1967  4.5099
    7DOPE    HB  792   3.290   0.346  14.218  0.0361 -0.1993  1.2878
    7DOPE    C2  793   3.462   0.366  14.091  0.4933 -0.3653  1.4100
    7DOPE    HS  794   3.571   0.386  14.086  0.9501 -2.7644  0.8925
    7DOPE   O21  795   3.388   0.460  14.004 -0.1784 -0.4390 -0.4772
    7DOPE   C21  796   3.452   0.513  13.906 -0.3813 -0.1894  0.3329
    7DOPE   O22  797   3.568   0.523  13.886  0.1227 -0.0222 -0.1207
    7DOPE   C22  798   3.343   0.573  13.818  0.0446 -0.5875 -0.3428
    7DOPE   H2R  799   3.301   0.656  13.879  1.2451 -1.5747  1.9818
    7DOPE   H2S  800   3.264   0.497  13.799 -1.0259  0.4120 -0.0193
    7DOPE    C3  801   3.438   0.222  14.035 -0.0583 -0.1257  0.3916
    7DOPE    HX  802   3.335   0.186  14.056  0.1201 -2.5877 -2.2835
    7DOPE    HY  803   3.507   0.156  14.092  0.0182 -0.4425 -0.0640
    7DOPE   O31  804   3.473   0.205  13.894  1.0958  0.6501 -0.1534
    7DOPE   C31  805   3.378   0.161  13.813  0.7600 -0.2501 -0.1656
    7DOPE   O32  806   3.262   0.124  13.843  0.4574 -0.4865 -0.1260
    7DOPE   C32  807   3.423   0.180  13.666 -0.3172 -0.6102 -0.4944
    7DOPE   H2X  808   3.484   0.273  13.657 -1.1740 -0.0918 -1.0550
    7DOPE   H2Y  809   3.485   0.091  13.642 -0.3647 -1.1615  1.2736
    7DOPE   C23  810   3.380   0.626  13.676  0.5683  0.0951  0.0623
    7DOPE   H3R  811   3.439   0.547  13.625 -0.6323 -0.0918 -1.1006
    7DOPE   H3S  812   3.447   0.713  13.691 -0.5711  1.2329 -1.1451
    7DOPE   C24  813   3.251   0.666  13.605 -0.1332  0.3920  0.5089
    7DOPE   H4R  814   3.188   0.718  13.680 -0.9514 -0.1175  0.1860
    7DOPE   H4S  815   3.199   0.577  13.564  1.6267  0.7912 -2.9787
    7DOPE   C25  816   3.292   0.749  13.478  1.1004 -0.0324  0.0820
    7DOPE   H5R  817   3.392   0.719  13.443  1.3904 -2.8739  2.9174
    7DOPE   H5S  818   3.305   0.849  13.526  0.8028 -1.0349  2.3698
    7DOPE   C26  819   3.189   0.739  13.359 -0.1203  0.2671 -0.1749
    7DOPE   H6R  820   3.097   0.799  13.374  0.0641  0.8279 -1.1913
    7DOPE   H6S  821   3.154   0.634  13.348 -0.4856  0.2747  0.8119
    7DOPE   C27  822   3.251   0.763  13.221  0.0291  0.7730 -0.2076
    7DOPE   H7R  823   3.328   0.686  13.200 -2.1306 -1.5019 -0.3024
    7DOPE   H7S  824   3.301   0.862  13.215  0.6140  0.4306 -1.3019
    7DOPE   C28  825   3.157   0.766  13.100  0.5029 -0.7871  0.2787
    7DOPE   H8R  826   3.217   0.783  13.008 -0.1767  0.0944 -0.0194
    7DOPE   H8S  827   3.087   0.850  13.119 -0.5722 -1.9414  1.5969
    7DOPE   C29  828   3.071   0.644  13.074  0.4542  0.2391 -0.3857
    7DOPE   H9R  829   3.041   0.586  13.163 -0.5330 -0.0629 -0.9020
    7DOPE  C210  830   3.024   0.604  12.959  0.5615 -0.2852  0.4587
    7DOPE  H10R  831   2.960   0.514  12.963 -1.2746  0.9917  0.9063
    7DOPE  C211  832   3.047   0.676  12.824 -0.5668 -0.1099  0.1057
    7DOPE  H11R  833   3.101   0.772  12.833  0.2548 -0.5091 -0.4476
    7DOPE  H11S  834   2.946   0.702  12.786 -0.2828  1.5966  0.4462
    7DOPE  C212  835   3.112   0.590  12.715  1.1443  0.2464  0.1842
    7DOPE  H12R  836   3.066   0.490  12.728  1.1532  0.5107  2.7313
    7DOPE  H12S  837   3.221   0.574  12.730  0.9366  1.3540  3.8434
    7DOPE  C213  838   3.083   0.653  12.576 -0.3206  0.2447 -0.0763
    7DOPE  H13R  839   3.123   0.756  12.563 -0.6336  0.3305 -0.3719
    7DOPE  H13S  840   2.974   0.653  12.556 -0.7008 -0.7074  1.7999
    7DOPE  C214  841   3.129   0.551  12.463  0.2104 -0.4556  0.6792
    7DOPE  H14R  842   3.072   0.456  12.481  0.7404 -0.4665  2.5637
    7DOPE  H14S  843   3.236   0.521  12.465  0.4475  0.1640 -1.2597
    7DOPE  C215  844   3.105   0.600  12.317  0.1450  1.2108  0.7177
    7DOPE  H15R  845   3.135   0.706  12.307  0.1276  1.0536 -1.6613
    7DOPE  H15S  846   2.996   0.612  12.297  0.5026  0.5321 -2.0295
    7DOPE  C216  847   3.167   0.521  12.200  0.1275  0.4259 -0.6645
    7DOPE  H16R  848   3.120   0.420  12.196  2.6694 -0.8853  0.6233
    7DOPE  H16S  849   3.275   0.505  12.219 -0.5668 -2.6626  1.3895
    7DOPE  C217  850   3.162   0.594  12.067  0.2373  0.9515 -0.6921
    7DOPE  H17R  851   3.216   0.688  12.091  1.1323  0.6050 -1.3035
    7DOPE  H17S  852   3.062   0.629  12.036  0.2773 -1.1268 -3.6192
    7DOPE  C218  853   3.233   0.532  11.947  0.2010  0.2753 -0.2658
    7DOPE  H18R  854   3.214   0.594  11.857 -0.3931 -0.1648 -0.4557
    7DOPE  H18S  855   3.205   0.426  11.929  0.6921  0.0518  0.2548
    7DOPE  H18T  856   3.341   0.526  11.973 -0.3280 -1.9237  1.8047
    7DOPE   C33  857   3.309   0.188  13.566  0.0999  0.0383 -0.2037
    7DOPE   H3X  858   3.213   0.226  13.607 -1.5661 -1.0663 -2.8298
    7DOPE   H3Y  859   3.285   0.085  13.534  0.3206 -0.8273  2.2118
    7DOPE   C34  860   3.346   0.269  13.444  0.5376  0.0411  0.0710
    7DOPE   H4X  861   3.320   0.376  13.457  1.6223  0.4426 -0.8981
    7DOPE   H4Y  862   3.455   0.264  13.421  0.5332 -1.3624  0.2937
    7DOPE   C35  863   3.273   0.219  13.318 -0.6525 -0.3198  0.2952
    7DOPE   H5X  864   3.164   0.238  13.331 -0.3315  0.0218  3.3319
    7DOPE   H5Y  865   3.284   0.110  13.301  0.3255 -0.1093 -0.5457
    7DOPE   C36  866   3.319   0.302  13.194 -0.1363  0.6480 -0.2683
    7DOPE   H6X  867   3.424   0.271  13.180 -0.7169 -2.3074  1.0747
    7DOPE   H6Y  868   3.312   0.409  13.223  2.0703  0.7022  0.2026
    7DOPE   C37  869   3.225   0.274  13.078 -0.7920  0.1204 -0.2846
    7DOPE   H7X  870   3.238   0.164  13.067 -0.5714 -0.0834  1.7587
    7DOPE   H7Y  871   3.118   0.283  13.106  0.0898  1.9335  3.0738
    7DOPE   C38  872   3.262   0.347  12.949 -0.4332  0.3708  0.4023
    7DOPE   H8X  873   3.298   0.448  12.979 -1.2583  0.3181  1.6486
    7DOPE   H8Y  874   3.171   0.364  12.889 -0.2546  1.2527  0.3641
    7DOPE   C39  875   3.373   0.264  12.873 -0.4781 -0.5339  0.3219
    7DOPE   H9X  876   3.473   0.275  12.916 -0.5537 -3.1548  1.3837
    7DOPE  C310  877   3.371   0.190  12.758  0.3450 -0.0439  0.2597
    7DOPE  H10X  878   3.464   0.158  12.709 -0.3595 -1.4065 -0.2292
    7DOPE  C311  879   3.263   0.149  12.660  0.3877  0.1878 -0.1302
    7DOPE  H11X  880   3.283   0.044  12.630  1.7869  0.0348  1.1915
    7DOPE  H11Y  881   3.162   0.165  12.703  0.0001  2.4951 -1.7158
    7DOPE  C312  882   3.266   0.235  12.529 -0.1680  0.3086 -0.7062
    7DOPE  H12X  883   3.365   0.224  12.480  1.6500 -1.3083  2.9094
    7DOPE  H12Y  884   3.250   0.342  12.558  1.1173  0.2869  0.1592
    7DOPE  C313  885   3.146   0.181  12.447  0.0893 -0.6156 -0.3687
    7DOPE  H13X  886   3.059   0.165  12.514 -1.8654  1.6856 -2.1744
    7DOPE  H13Y  887   3.117   0.266  12.381 -0.5445 -1.1341 -0.7657
    7DOPE  C314  888   3.186   0.065  12.358 -0.6853 -0.3309  0.3832
    7DOPE  H14X  889   3.107  -0.013  12.353  0.8868 -1.9538  0.0507
    7DOPE  H14Y  890   3.279   0.012  12.387 -0.2809 -0.5283 -1.1807
    7DOPE  C315  891   3.212   0.103  12.209 -0.2331 -0.0906  0.0659
    7DOPE  H15X  892   3.290   0.182  12.194  0.9650 -1.3528 -0.5441
    7DOPE  H15Y  893   3.118   0.143  12.166  0.4461 -0.0831 -1.4864
    7DOPE  C316  894   3.244  -0.013  12.111  0.4173 -0.4269  0.5499
    7DOPE  H16X  895   3.179  -0.101  12.128  0.5008 -0.5988  0.0056
    7DOPE  H16Y  896   3.352  -0.037  12.125  0.0846 -2.6592 -0.3581
    7DOPE  C317  897   3.206   0.027  11.966 -0.2460  0.7241 -0.0965
    7DOPE  H17X  898   3.231   0.134  11.949  0.0308  0.7407  0.3920
    7DOPE  H17Y  899   3.277  -0.021  11.895  0.0907  1.3457 -0.1987
    7DOPE  C318  900   3.065   0.004  11.908  0.0424 -0.0533 -0.2863
    7DOPE  H18X  901   3.005   0.088  11.948  1.2103  0.2819  0.8320
    7DOPE  H18Y  902   3.064   0.022  11.798  1.2694  1.4453 -0.0914
    7DOPE  H18Z  903   3.021  -0.096  11.929  1.1993 -0.2897  1.1471
    8DOPE     N  904   3.566   0.861  14.470 -0.0888  0.1017 -0.2411
    8DOPE   HN1  905   3.632   0.867  14.550  1.2521  0.2008 -1.3070
    8DOPE   HN2  906   3.632   0.874  14.390  1.3742 -1.3612  0.6650
    8DOPE   HN3  907   3.497   0.938  14.479  0.1193 -0.0066  3.7230
    8DOPE   C12  908   3.501   0.726  14.457  0.7475 -0.4279 -0.2075
    8DOPE  H12A  909   3.581   0.656  14.488 -1.5877 -3.8809 -1.4477
    8DOPE  H12B  910   3.496   0.708  14.347  0.5453 -1.4218 -0.0423
    8DOPE   C11  911   3.372   0.708  14.541  0.1879 -0.2301  0.2076
    8DOPE  H11A  912   3.389   0.718  14.651 -2.0833 -0.7290  0.6624
    8DOPE  H11B  913   3.333   0.604  14.531 -1.1454  0.1523  1.0479
    8DOPE     P  914   3.122   0.790  14.495  0.5441  0.0377  0.5921
    8DOPE   O13  915   3.059   0.921  14.461  0.0679  0.1002 -0.0490
    8DOPE   O14  916   3.078   0.708  14.609  0.4972  0.2407  0.2848
    8DOPE   O11  917   3.123   0.700  14.361 -0.0945 -0.4316  0.1130
    8DOPE   O12  918   3.276   0.808  14.505  0.1406  0.1698 -0.3171
    8DOPE    C1  919   3.044   0.737  14.246 -0.3765 -0.3885 -0.3079
    8DOPE    HA  920   3.013   0.844  14.242  0.9123  0.0734 -6.4666
    8DOPE    HB  921   2.947   0.683  14.244 -1.6420  1.7468 -0.3150
    8DOPE    C2  922   3.126   0.734  14.110 -0.6442 -0.4603  0.1467
    8DOPE    HS  923   3.072   0.799  14.038 -0.4129  1.3569  1.5161
    8DOPE   O21  924   3.144   0.598  14.063  0.4103  0.0443 -0.4443
    8DOPE   C21  925   3.029   0.549  14.022 -0.1249 -0.9008 -0.2969
    8DOPE   O22  926   2.924   0.608  14.013  0.4425  0.5514 -0.3976
    8DOPE   C22  927   3.052   0.406  13.994  0.2811 -0.2800  0.0217
    8DOPE   H2R  928   3.066   0.353  14.091  0.7878 -0.7532 -0.3050
    8DOPE   H2S  929   3.149   0.400  13.940 -0.2074  1.3612 -1.0959
    8DOPE    C3  930   3.269   0.811  14.126  0.4764  0.3697 -0.8841
    8DOPE    HX  931   3.330   0.727  14.166  0.6560  0.6389 -0.5917
    8DOPE    HY  932   3.258   0.886  14.207  0.0453 -0.1633 -0.4370
    8DOPE   O31  933   3.327   0.859  13.999  0.3273  0.6041  0.0613
    8DOPE   C31  934   3.298   0.981  13.970  0.2529 -0.2094  0.4327
    8DOPE   O32  935   3.222   1.051  14.030  0.1593 -0.0341 -0.1136
    8DOPE   C32  936   3.387   1.023  13.843  0.1985 -0.3457 -0.1578
    8DOPE   H2X  937   3.483   1.062  13.882 -0.6383  0.2303  1.4600
    8DOPE   H2Y  938   3.405   0.933  13.781  0.4454 -0.3382 -0.0963
    8DOPE   C23  939   2.924   0.332  13.945  0.2279 -0.1324 -0.2374
    8DOPE   H3R  940   2.837   0.363  14.006  0.3328 -0.8327  0.2750
    8DOPE   H3S  941   2.941   0.222  13.946 -2.3130 -0.5885 -0.2282
    8DOPE   C24  942   2.877   0.365  13.799  0.0598 -0.6356  0.3449
    8DOPE   H4R  943   2.836   0.468  13.803 -0.5790 -0.9186  1.9825
    8DOPE   H4S  944   2.804   0.285  13.776 -0.5718  0.1343 -0.4001
    8DOPE   C25  945   2.996   0.342  13.700  0.0920  0.3384  0.0828
    8DOPE   H5R  946   3.026   0.236  13.718 -2.9098 -0.7396 -0.6738
    8DOPE   H5S  947   3.073   0.418  13.725  0.7108 -0.4018  0.4736
    8DOPE   C26  948   2.955   0.351  13.549 -0.0505  0.6591  0.7873
    8DOPE   H6R  949   3.042   0.331  13.483  0.0553 -1.3958  1.4875
    8DOPE   H6S  950   2.905   0.447  13.524 -0.9834  0.2923  1.1965
    8DOPE   C27  951   2.844   0.244  13.513  0.0737  0.0676 -0.5216
    8DOPE   H7R  952   2.754   0.269  13.574  0.9063  1.4653  0.1874
    8DOPE   H7S  953   2.883   0.146  13.548 -0.5798  0.4670  1.4832
    8DOPE   C28  954   2.820   0.233  13.363  0.8277  0.1069  0.2343
    8DOPE   H8R  955   2.758   0.142  13.347  1.0798 -0.1728  0.8019
    8DOPE   H8S  956   2.915   0.197  13.319  0.7713 -0.9620  0.9635
    8DOPE   C29  957   2.763   0.357  13.303 -0.7734 -0.6406  0.3229
    8DOPE   H9R  958   2.715   0.429  13.371 -1.1773 -1.4539  0.9161
    8DOPE  C210  959   2.747   0.365  13.169 -0.0265 -0.3461  0.1657
    8DOPE  H10R  960   2.705   0.460  13.131  1.6489  0.3205 -0.0794
    8DOPE  C211  961   2.777   0.265  13.059  0.1597  0.2994 -0.4502
    8DOPE  H11R  962   2.774   0.164  13.106 -0.9568  1.2322  1.5864
    8DOPE  H11S  963   2.876   0.279  13.011  0.3046  0.2128 -0.1799
    8DOPE  C212  964   2.675   0.279  12.939 -0.2652 -0.3957  0.4403
    8DOPE  H12R  965   2.570   0.286  12.977  0.3051 -1.3343  2.2920
    8DOPE  H12S  966   2.686   0.189  12.875  3.8381  0.1766  0.0887
    8DOPE  C213  967   2.704   0.411  12.857  0.1676  0.9074 -0.5341
    8DOPE  H13R  968   2.815   0.421  12.859  0.3240 -0.3760 -1.2178
    8DOPE  H13S  969   2.664   0.501  12.907 -2.5395 -1.1468  1.3152
    8DOPE  C214  970   2.632   0.412  12.724 -0.2374  0.5174 -0.3024
    8DOPE  H14R  971   2.521   0.418  12.729 -0.2641 -0.5591  0.9909
    8DOPE  H14S  972   2.648   0.311  12.680 -2.0812 -0.8460  1.9150
    8DOPE  C215  973   2.688   0.519  12.634  0.1911 -0.4914 -0.3232
    8DOPE  H15R  974   2.799   0.517  12.645  0.3521  1.0397 -1.2495
    8DOPE  H15S  975   2.646   0.611  12.680 -1.7876 -1.4082 -0.1843
    8DOPE  C216  976   2.655   0.519  12.481  0.2360 -0.9445 -0.2777
    8DOPE  H16R  977   2.677   0.620  12.442 -0.7612 -0.0607  1.3366
    8DOPE  H16S  978   2.544   0.508  12.474 -0.0449  1.7518 -0.8360
    8DOPE  C217  979   2.728   0.414  12.399 -0.3334 -0.4385  0.4653
    8DOPE  H17R  980   2.717   0.316  12.451 -0.4927  0.6712  2.6428
    8DOPE  H17S  981   2.832   0.450  12.408 -1.3265  2.2197  2.7321
    8DOPE  C218  982   2.690   0.419  12.252 -0.3174 -0.0022  0.5431
    8DOPE  H18R  983   2.580   0.409  12.235 -0.6683  0.2005  2.4441
    8DOPE  H18S  984   2.747   0.348  12.188  0.1109 -0.8975  1.8823
    8DOPE  H18T  985   2.724   0.514  12.206 -3.5456 -0.3108 -2.9887
    8DOPE   C33  986   3.298   1.127  13.763  0.6200 -0.2705  0.1490
    8DOPE   H3X  987   3.281   1.211  13.834  1.5862  0.0614  0.0109
    8DOPE   H3Y  988   3.194   1.090  13.750  0.5075  0.2791 -0.5552
    8DOPE   C34  989   3.358   1.181  13.625  0.1194  0.6518  0.1541
    8DOPE   H4X  990   3.383   1.288  13.640  0.7296  0.4930  0.2834
    8DOPE   H4Y  991   3.448   1.117  13.617 -1.2562 -1.3383 -0.3368
    8DOPE   C35  992   3.250   1.151  13.515  0.1022 -0.4886 -0.5347
    8DOPE   H5X  993   3.168   1.226  13.527 -0.5617 -1.5761  2.6619
    8DOPE   H5Y  994   3.208   1.049  13.521  0.5622 -0.7244 -1.1514
    8DOPE   C36  995   3.314   1.168  13.377  0.2014 -0.0225  0.0214
    8DOPE   H6X  996   3.396   1.093  13.382 -0.7306 -1.0490  4.9947
    8DOPE   H6Y  997   3.362   1.268  13.373 -0.9027  0.6509  2.0431
    8DOPE   C37  998   3.210   1.160  13.256 -1.3464 -0.2626 -0.3667
    8DOPE   H7X  999   3.157   1.063  13.264  1.6111 -2.2253 -2.3822
    8DOPE   H7Y 1000   3.143   1.248  13.265  0.3662  1.0463  0.1015
    8DOPE   C38 1001   3.283   1.169  13.116  0.7491 -0.2473  0.0815
    8DOPE   H8X 1002   3.365   1.095  13.112  0.5866 -0.3883 -1.0742
    8DOPE   H8Y 1003   3.326   1.272  13.110 -0.4506  0.2704  0.0899
    8DOPE   C39 1004   3.199   1.140  12.991 -0.5678  0.3809  0.4290
    8DOPE   H9X 1005   3.098   1.106  13.018 -0.3729 -0.5388  0.0181
    8DOPE  C310 1006   3.252   1.142  12.867  1.1956 -0.1127 -0.4817
    8DOPE  H10X 1007   3.189   1.135  12.776  0.8035  1.0104 -0.3167
    8DOPE  C311 1008   3.395   1.157  12.819  0.5415  0.2928 -0.3193
    8DOPE  H11X 1009   3.403   1.259  12.777  1.4607  0.9064  1.2437
    8DOPE  H11Y 1010   3.461   1.158  12.909 -0.4168  0.7019  0.3999
    8DOPE  C312 1011   3.455   1.062  12.715 -0.5387 -0.3327  0.2397
    8DOPE  H12X 1012   3.472   0.958  12.750  0.2043 -0.3851 -0.2345
    8DOPE  H12Y 1013   3.558   1.101  12.701 -0.7902 -0.0772 -1.0948
    8DOPE  C313 1014   3.382   1.062  12.581 -0.1010  0.0348  0.3382
    8DOPE  H13X 1015   3.432   0.990  12.512 -0.8564 -0.2064  0.0288
    8DOPE  H13Y 1016   3.275   1.031  12.589 -0.7141  1.7380 -0.7122
    8DOPE  C314 1017   3.369   1.202  12.517 -0.6320  0.1946 -0.3295
    8DOPE  H14X 1018   3.463   1.261  12.528 -1.5380  1.8161 -0.9899
    8DOPE  H14Y 1019   3.291   1.255  12.574  0.7340  1.6570  0.2599
    8DOPE  C315 1020   3.324   1.205  12.362 -0.1242  0.1911  0.0529
    8DOPE  H15X 1021   3.285   1.306  12.336  0.2239  0.8924  2.0250
    8DOPE  H15Y 1022   3.239   1.133  12.367 -1.3273  1.5806  0.2050
    8DOPE  C316 1023   3.436   1.159  12.265 -0.1002 -0.2297 -0.1547
    8DOPE  H16X 1024   3.494   1.071  12.299 -0.1355  0.3743  1.5627
    8DOPE  H16Y 1025   3.503   1.247  12.257  0.1498 -0.2940  1.0371
    8DOPE  C317 1026   3.394   1.096  12.128  0.0449 -0.7851 -0.1094
    8DOPE  H17X 1027   3.322   1.174  12.092  1.8353  1.5085  1.0054
    8DOPE  H17Y 1028   3.478   1.095  12.056 -0.8602 -1.0535 -1.1991
    8DOPE  C318 1029   3.317   0.961  12.131 -0.4139 -0.0221  0.3501
    8DOPE  H18X 1030   3.272   0.925  12.036  0.5935  1.0764 -0.5782
    8DOPE  H18Y 1031   3.250   0.963  12.219  0.7583 -1.9397  1.3596
    8DOPE  H18Z 1032   3.389   0.885  12.168 -0.6209 -0.0109  0.7737
    9DOPE     N 1033   6.597   0.097  14.734  0.5391 -0.3179  0.1305
    9DOPE   HN1 1034   6.617   0.053  14.826  0.4096  2.6663  1.6893
    9DOPE   HN2 1035   6.596   0.196  14.765  0.0771 -0.9791  2.3711
    9DOPE   HN3 1036   6.501   0.066  14.708 -0.3390  1.1071  1.5101
    9DOPE   C12 1037   6.689   0.073  14.615 -0.1549  0.1482  0.4139
    9DOPE  H12A 1038   6.784   0.117  14.650  0.2823  0.8888 -1.5873
    9DOPE  H12B 1039   6.650   0.131  14.529 -0.8005 -0.1464  0.5027
    9DOPE   C11 1040   6.688  -0.080  14.576  1.0671 -0.2680  0.1624
    9DOPE  H11A 1041   6.742  -0.092  14.479 -0.1590  0.8090 -0.6895
    9DOPE  H11B 1042   6.583  -0.108  14.552  1.6257 -3.3353  0.7904
    9DOPE     P 1043   6.873  -0.214  14.711 -0.0863  0.0115 -0.3119
    9DOPE   O13 1044   6.876  -0.318  14.816  0.7856 -0.5206 -0.4165
    9DOPE   O14 1045   6.960  -0.095  14.741  0.1861  0.5970 -0.4498
    9DOPE   O11 1046   6.912  -0.284  14.578  0.0554  0.3016 -0.5024
    9DOPE   O12 1047   6.725  -0.169  14.686  0.1441 -0.4329  0.5787
    9DOPE    C1 1048   6.839  -0.401  14.540  0.7501  0.6969 -0.0260
    9DOPE    HA 1049   6.731  -0.373  14.539  0.4196 -0.3790  1.2667
    9DOPE    HB 1050   6.854  -0.496  14.597 -0.3477 -0.7553 -2.0054
    9DOPE    C2 1051   6.865  -0.437  14.392 -1.0756  0.2025  0.6329
    9DOPE    HS 1052   6.809  -0.530  14.368  0.1527 -0.2631 -0.6173
    9DOPE   O21 1053   7.009  -0.462  14.365 -0.0731 -0.5129 -0.0061
    9DOPE   C21 1054   7.043  -0.587  14.393 -0.8557  0.0538 -0.3855
    9DOPE   O22 1055   6.972  -0.671  14.446 -0.7149 -0.2788  0.5299
    9DOPE   C22 1056   7.187  -0.608  14.343  0.4523  0.6036 -0.2869
    9DOPE   H2R 1057   7.252  -0.647  14.424  1.3052  0.0708 -1.2034
    9DOPE   H2S 1058   7.230  -0.511  14.307  0.6659  0.3477 -0.7347
    9DOPE    C3 1059   6.815  -0.333  14.283  0.7602  0.0917 -0.9425
    9DOPE    HX 1060   6.859  -0.232  14.275  1.6436 -0.2087 -0.0802
    9DOPE    HY 1061   6.710  -0.315  14.315  0.6268 -2.1926  0.1298
    9DOPE   O31 1062   6.820  -0.387  14.148  0.2422 -0.2879  0.1174
    9DOPE   C31 1063   6.714  -0.440  14.081  0.3321 -0.4815  0.4090
    9DOPE   O32 1064   6.601  -0.445  14.129 -0.0883  0.6610  0.4524
    9DOPE   C32 1065   6.755  -0.475  13.933  0.3293  0.1355  0.1347
    9DOPE   H2X 1066   6.830  -0.398  13.904  0.9288 -0.9108 -1.1750
    9DOPE   H2Y 1067   6.814  -0.570  13.931 -3.0699 -2.1638 -2.2257
    9DOPE   C23 1068   7.189  -0.712  14.231  0.8905 -0.3401 -0.5922
    9DOPE   H3R 1069   7.127  -0.801  14.257  0.5828  0.4810  1.7918
    9DOPE   H3S 1070   7.292  -0.751  14.216  1.0162 -0.3959  0.3472
    9DOPE   C24 1071   7.121  -0.670  14.098 -0.2177  0.3733  0.1302
    9DOPE   H4R 1072   7.180  -0.594  14.042  0.2046 -0.2311 -0.2575
    9DOPE   H4S 1073   7.026  -0.613  14.101  0.1729  1.1298 -1.3092
    9DOPE   C25 1074   7.104  -0.795  13.998  0.3912 -0.3570  0.0837
    9DOPE   H5R 1075   7.045  -0.873  14.050  1.9403 -0.8179  1.2186
    9DOPE   H5S 1076   7.206  -0.835  13.986  0.1073 -1.5071  1.3216
    9DOPE   C26 1077   7.035  -0.751  13.869 -0.6628 -0.0704 -0.1360
    9DOPE   H6R 1078   7.085  -0.659  13.833  0.1038 -0.0567  0.9374
    9DOPE   H6S 1079   6.928  -0.734  13.893 -0.2448  0.8701  1.1314
    9DOPE   C27 1080   7.043  -0.852  13.758 -0.1328 -0.2850 -0.0569
    9DOPE   H7R 1081   6.988  -0.946  13.781  0.1292 -0.5325 -0.4368
    9DOPE   H7S 1082   7.148  -0.878  13.735  0.0265 -0.4628  0.8444
    9DOPE   C28 1083   6.975  -0.803  13.630  0.1959  0.0036 -0.3870
    9DOPE   H8R 1084   6.871  -0.782  13.661 -0.2858  0.8227 -2.3774
    9DOPE   H8S 1085   6.963  -0.874  13.545 -0.3700  0.3325 -0.5903
    9DOPE   C29 1086   7.037  -0.673  13.573  0.5819 -0.1522 -0.3063
    9DOPE   H9R 1087   7.050  -0.590  13.643 -0.1764 -1.5169  1.5362
    9DOPE  C210 1088   7.118  -0.669  13.468  0.2450  0.2423 -0.0082
    9DOPE  H10R 1089   7.165  -0.575  13.437  0.5087  0.9233  2.2650
    9DOPE  C211 1090   7.150  -0.775  13.367 -0.3617  0.8161  0.1556
    9DOPE  H11R 1091   7.113  -0.871  13.411  1.6464  0.6119  1.5147
    9DOPE  H11S 1092   7.259  -0.783  13.349 -0.3428  1.5031 -0.0238
    9DOPE  C212 1093   7.082  -0.740  13.235  0.5774 -0.1965  0.4184
    9DOPE  H12R 1094   7.120  -0.646  13.188  1.6371 -1.6897 -1.9223
    9DOPE  H12S 1095   6.972  -0.729  13.249  0.1181 -2.1240 -1.2401
    9DOPE  C213 1096   7.107  -0.848  13.132 -0.5578 -0.3436 -0.8552
    9DOPE  H13R 1097   7.076  -0.951  13.162 -3.0054  0.7351  0.5690
    9DOPE  H13S 1098   7.218  -0.857  13.121 -0.4600 -0.6849  0.2535
    9DOPE  C214 1099   7.033  -0.817  12.992  0.0245  0.1294 -0.5517
    9DOPE  H14R 1100   7.061  -0.714  12.964 -1.2303  0.8974  0.8623
    9DOPE  H14S 1101   6.923  -0.822  13.005  0.3287 -1.3376  2.0611
    9DOPE  C215 1102   7.073  -0.919  12.886  0.1362 -0.5097  0.3004
    9DOPE  H15R 1103   6.981  -0.940  12.828  0.3013 -0.3086 -0.0397
    9DOPE  H15S 1104   7.095  -1.015  12.938 -0.4160 -0.8550 -0.0986
    9DOPE  C216 1105   7.177  -0.855  12.793  0.0936  0.3218 -0.5792
    9DOPE  H16R 1106   7.278  -0.856  12.840 -0.4243  0.1082  0.5705
    9DOPE  H16S 1107   7.155  -0.749  12.767  3.9070  1.3528 -0.2069
    9DOPE  C217 1108   7.180  -0.939  12.667  0.5546  0.0373 -0.2064
    9DOPE  H17R 1109   7.077  -0.933  12.627  0.5337  0.0135 -0.1565
    9DOPE  H17S 1110   7.203  -1.045  12.694  0.1996 -0.2090 -0.8665
    9DOPE  C218 1111   7.293  -0.908  12.564 -0.4943  0.1473  0.1954
    9DOPE  H18R 1112   7.297  -0.801  12.533  0.8803  0.1778  0.4443
    9DOPE  H18S 1113   7.279  -0.973  12.475 -1.0979  0.6519 -0.0948
    9DOPE  H18T 1114   7.391  -0.934  12.608 -1.9475 -2.1736  2.2615
    9DOPE   C33 1115   6.635  -0.476  13.832  0.3181  0.4272  0.0428
    9DOPE   H3X 1116   6.572  -0.387  13.852 -0.8977 -0.5299  0.6220
    9DOPE   H3Y 1117   6.566  -0.562  13.838 -1.6936  1.9542 -0.3270
    9DOPE   C34 1118   6.689  -0.460  13.691  0.0019 -0.0096  0.2549
    9DOPE   H4X 1119   6.752  -0.369  13.690  0.0775 -0.0641  0.1141
    9DOPE   H4Y 1120   6.764  -0.539  13.673 -1.0567 -0.5326 -2.2348
    9DOPE   C35 1121   6.587  -0.450  13.578  0.2051  0.9018 -0.0382
    9DOPE   H5X 1122   6.531  -0.354  13.583  0.3539  1.0455 -0.9271
    9DOPE   H5Y 1123   6.520  -0.538  13.572  1.5627 -0.2977  1.4254
    9DOPE   C36 1124   6.662  -0.434  13.437  0.9380  0.3693  0.4831
    9DOPE   H6X 1125   6.753  -0.371  13.446  1.4773 -0.3787  0.3111
    9DOPE   H6Y 1126   6.591  -0.382  13.368 -0.9826 -1.1299  1.2370
    9DOPE   C37 1127   6.696  -0.564  13.367  0.1252 -0.8752  0.7897
    9DOPE   H7X 1128   6.748  -0.629  13.442 -0.1710 -2.5714 -0.4131
    9DOPE   H7Y 1129   6.599  -0.612  13.342  1.3647 -2.7112 -0.8108
    9DOPE   C38 1130   6.775  -0.544  13.235  0.1351 -0.0441  0.5165
    9DOPE   H8X 1131   6.789  -0.648  13.198  0.0103  0.7453 -1.9727
    9DOPE   H8Y 1132   6.881  -0.514  13.254  0.3263  1.2489 -2.1145
    9DOPE   C39 1133   6.717  -0.448  13.129 -0.0155  0.1043  0.0602
    9DOPE   H9X 1134   6.734  -0.340  13.142 -1.7291  0.7975 -2.7317
    9DOPE  C310 1135   6.686  -0.495  13.001  0.2811  0.0007 -0.3821
    9DOPE  H10X 1136   6.650  -0.429  12.921  0.1384  0.0146 -0.3065
    9DOPE  C311 1137   6.667  -0.635  12.960  0.1545  0.2672  0.5563
    9DOPE  H11X 1138   6.729  -0.704  13.021 -1.5327 -1.9393 -0.1051
    9DOPE  H11Y 1139   6.561  -0.662  12.979  0.2861 -0.5900  0.0778
    9DOPE  C312 1140   6.686  -0.665  12.809  0.0137  0.3643  0.7053
    9DOPE  H12X 1141   6.609  -0.607  12.753 -1.5668 -1.8894  0.4151
    9DOPE  H12Y 1142   6.679  -0.774  12.790 -1.0040  0.7310 -1.2991
    9DOPE  C313 1143   6.827  -0.621  12.752  0.0837  0.2590 -0.3432
    9DOPE  H13X 1144   6.828  -0.510  12.745 -2.1229  0.2519 -1.9679
    9DOPE  H13Y 1145   6.908  -0.661  12.817 -1.3972  0.0714  1.4645
    9DOPE  C314 1146   6.853  -0.672  12.606  0.1495  0.2949 -0.1449
    9DOPE  H14X 1147   6.767  -0.645  12.542  0.8718  2.7102 -0.1646
    9DOPE  H14Y 1148   6.863  -0.783  12.612 -2.5615  0.0225  0.5187
    9DOPE  C315 1149   6.980  -0.609  12.543  0.2661 -0.1202 -0.2054
    9DOPE  H15X 1150   7.066  -0.663  12.588 -0.3465 -0.9367 -0.0004
    9DOPE  H15Y 1151   6.984  -0.502  12.575  1.5415 -0.5404  1.1408
    9DOPE  C316 1152   6.992  -0.626  12.388  0.0518  0.9886 -0.5667
    9DOPE  H16X 1153   7.004  -0.736  12.374  0.4368  1.0162 -0.4575
    9DOPE  H16Y 1154   7.087  -0.573  12.367  0.0011  1.1060 -0.5017
    9DOPE  C317 1155   6.875  -0.570  12.302 -0.2981 -0.5861 -0.4338
    9DOPE  H17X 1156   6.888  -0.564  12.192 -1.1365 -1.6776 -0.6098
    9DOPE  H17Y 1157   6.793  -0.643  12.316  0.3520 -1.0530  1.1462
    9DOPE  C318 1158   6.838  -0.423  12.339  0.4101 -0.1371  0.5475
    9DOPE  H18X 1159   6.768  -0.369  12.271 -1.4457 -0.3574  2.1931
    9DOPE  H18Y 1160   6.797  -0.410  12.441  1.6891 -1.6162  1.2830
    9DOPE  H18Z 1161   6.930  -0.363  12.328  1.5987 -2.2148 -2.0427
   10DOPE     N 1162   0.603   1.097  14.090 -0.0918  0.1218  0.3986
   10DOPE   HN1 1163   0.669   1.164  14.134 -0.3848  0.2774  0.6030
   10DOPE   HN2 1164   0.557   1.048  14.169  2.3387 -0.2933  1.6421
   10DOPE   HN3 1165   0.673   1.031  14.051 -0.0321 -0.2266  1.0822
   10DOPE   C12 1166   0.509   1.187  14.011 -0.2365  0.5177 -0.0017
   10DOPE  H12A 1167   0.483   1.138  13.914 -2.1035 -0.5432  0.9871
   10DOPE  H12B 1168   0.566   1.281  13.994 -0.7117  0.4412 -2.4534
   10DOPE   C11 1169   0.385   1.201  14.099  0.5012 -0.0747  0.0225
   10DOPE  H11A 1170   0.334   1.103  14.108  0.4711 -0.0287  0.3922
   10DOPE  H11B 1171   0.314   1.266  14.044  0.6128  1.6691  1.7990
   10DOPE     P 1172   0.282   1.317  14.315 -0.4461 -0.3746  0.0755
   10DOPE   O13 1173   0.329   1.335  14.453 -0.6225 -0.2171  0.0359
   10DOPE   O14 1174   0.172   1.223  14.291  0.1967 -0.7061 -0.4811
   10DOPE   O11 1175   0.244   1.461  14.245 -0.0870  0.3958 -0.0956
   10DOPE   O12 1176   0.409   1.280  14.220 -0.4598  0.1458  0.4259
   10DOPE    C1 1177   0.348   1.555  14.215 -0.3016  0.2083  0.9993
   10DOPE    HA 1178   0.452   1.541  14.252  0.4977  2.2535 -0.2930
   10DOPE    HB 1179   0.320   1.654  14.256 -1.2396 -0.8889  3.2233
   10DOPE    C2 1180   0.367   1.556  14.062  0.5871  0.5991  0.5498
   10DOPE    HS 1181   0.416   1.461  14.033  0.7743  0.4358  1.3529
   10DOPE   O21 1182   0.436   1.677  14.039  0.2070  0.0615 -1.0003
   10DOPE   C21 1183   0.509   1.676  13.931 -0.4696 -0.1862 -0.0756
   10DOPE   O22 1184   0.515   1.583  13.850  0.1832 -0.0688  0.3788
   10DOPE   C22 1185   0.562   1.821  13.908 -0.3216  0.3490  0.2026
   10DOPE   H2R 1186   0.629   1.845  13.993 -0.1801  2.2764 -0.3950
   10DOPE   H2S 1187   0.480   1.895  13.922 -0.3801  0.1540  0.8927
   10DOPE    C3 1188   0.224   1.554  13.997 -0.6608 -0.1941 -0.3071
   10DOPE    HX 1189   0.170   1.640  14.042 -0.8394 -0.2656 -0.3865
   10DOPE    HY 1190   0.172   1.464  14.034  0.5102  0.2673  2.7725
   10DOPE   O31 1191   0.220   1.569  13.851  0.1155 -0.5228 -0.4115
   10DOPE   C31 1192   0.248   1.451  13.780  0.3687 -0.0897 -0.9091
   10DOPE   O32 1193   0.240   1.345  13.837  0.3495  0.0536 -0.2384
   10DOPE   C32 1194   0.261   1.482  13.626 -0.0933 -1.0715 -0.4300
   10DOPE   H2X 1195   0.176   1.424  13.585 -2.4311 -0.3435  2.9427
   10DOPE   H2Y 1196   0.248   1.590  13.604 -0.3950 -0.4222  2.4686
   10DOPE   C23 1197   0.641   1.832  13.772  0.0465 -0.1271 -0.6032
   10DOPE   H3R 1198   0.692   1.736  13.750 -1.2992 -0.9093 -0.4557
   10DOPE   H3S 1199   0.720   1.910  13.776 -0.0225  0.0380 -1.9004
   10DOPE   C24 1200   0.549   1.871  13.658  0.2483  0.4861  0.7155
   10DOPE   H4R 1201   0.490   1.962  13.681  0.1494  0.5089  0.3680
   10DOPE   H4S 1202   0.480   1.788  13.634  0.6328  0.0583  1.0571
   10DOPE   C25 1203   0.635   1.916  13.532  0.2021 -0.9946  0.3312
   10DOPE   H5R 1204   0.708   1.838  13.501  1.5625 -0.2415  1.5206
   10DOPE   H5S 1205   0.701   2.003  13.552 -1.1448  0.1338  0.0159
   10DOPE   C26 1206   0.549   1.976  13.424 -0.4562 -0.0935  1.2342
   10DOPE   H6R 1207   0.509   2.067  13.473 -0.0326 -0.4951  2.3796
   10DOPE   H6S 1208   0.471   1.903  13.393 -1.0116  0.8974  0.2368
   10DOPE   C27 1209   0.637   2.019  13.306 -0.6025 -0.8325  0.4724
   10DOPE   H7R 1210   0.728   2.072  13.341  0.3343 -0.8508 -1.7811
   10DOPE   H7S 1211   0.596   2.102  13.245  1.7223 -0.9202 -1.3316
   10DOPE   C28 1212   0.685   1.906  13.215  0.0238  0.7638 -0.5637
   10DOPE   H8R 1213   0.717   1.816  13.272  1.4402  1.4147 -0.2771
   10DOPE   H8S 1214   0.767   1.934  13.146  1.2514 -1.7366 -0.2238
   10DOPE   C29 1215   0.572   1.851  13.133 -0.0905  0.1094 -0.1030
   10DOPE   H9R 1216   0.512   1.775  13.186 -2.2564  1.5081 -0.4249
   10DOPE  C210 1217   0.548   1.884  13.005  0.9257 -0.0755 -0.1793
   10DOPE  H10R 1218   0.462   1.841  12.952  0.8718  1.6840 -1.5787
   10DOPE  C211 1219   0.636   1.961  12.918  0.2478 -0.2105 -0.9557
   10DOPE  H11R 1220   0.716   1.895  12.879 -0.8736 -1.4919 -1.1568
   10DOPE  H11S 1221   0.682   2.047  12.970  1.3980 -0.1140 -2.0933
   10DOPE  C212 1222   0.554   2.004  12.790  0.0765  0.1073 -0.2264
   10DOPE  H12R 1223   0.604   2.072  12.717 -0.1957 -0.0328 -0.5464
   10DOPE  H12S 1224   0.460   2.055  12.820  0.0819 -0.1684  0.2589
   10DOPE  C213 1225   0.510   1.885  12.700 -0.3586 -0.4505  0.4313
   10DOPE  H13R 1226   0.447   1.811  12.753 -1.3452  0.6522  0.8395
   10DOPE  H13S 1227   0.600   1.828  12.666 -1.0026 -1.5608  0.5409
   10DOPE  C214 1228   0.430   1.928  12.579 -0.2488  0.3205 -0.2637
   10DOPE  H14R 1229   0.499   1.982  12.509 -0.8003  0.9156 -0.3603
   10DOPE  H14S 1230   0.351   2.002  12.602 -2.5773 -1.8779 -0.7969
   10DOPE  C215 1231   0.369   1.810  12.502  0.9122  0.2276 -0.0850
   10DOPE  H15R 1232   0.299   1.851  12.426  0.0110 -0.2877  0.4424
   10DOPE  H15S 1233   0.303   1.754  12.572  1.0793 -0.3848 -0.4140
   10DOPE  C216 1234   0.478   1.713  12.452 -0.3778 -0.7038  0.2074
   10DOPE  H16R 1235   0.431   1.627  12.402  1.2319 -1.5944  0.1589
   10DOPE  H16S 1236   0.524   1.665  12.541  0.0836 -0.3287  0.1771
   10DOPE  C217 1237   0.593   1.763  12.359  0.1536  0.3673 -0.6503
   10DOPE  H17R 1238   0.654   1.681  12.315  0.9713 -0.0137  1.1360
   10DOPE  H17S 1239   0.663   1.820  12.423 -1.0578  0.3746  0.7145
   10DOPE  C218 1240   0.538   1.862  12.250  0.2763 -0.2014 -0.4061
   10DOPE  H18R 1241   0.513   1.959  12.296  0.6979 -0.1017 -0.3838
   10DOPE  H18S 1242   0.452   1.807  12.205  0.0097  0.8326 -1.1891
   10DOPE  H18T 1243   0.623   1.888  12.182 -0.0750 -0.9603 -1.1550
   10DOPE   C33 1244   0.400   1.437  13.560  0.2410  0.1752 -0.4616
   10DOPE   H3X 1245   0.410   1.327  13.560  1.1521  0.1886 -2.9800
   10DOPE   H3Y 1246   0.475   1.483  13.628 -0.5220  2.6500 -1.1855
   10DOPE   C34 1247   0.414   1.487  13.417  0.5102 -0.2484  0.1508
   10DOPE   H4X 1248   0.394   1.596  13.417  0.1966 -0.2780  2.0336
   10DOPE   H4Y 1249   0.520   1.468  13.390 -0.1256 -0.9320 -2.0607
   10DOPE   C35 1250   0.315   1.416  13.314  0.3046  0.1698 -0.3381
   10DOPE   H5X 1251   0.209   1.430  13.343 -0.6169 -3.9207 -1.1431
   10DOPE   H5Y 1252   0.324   1.306  13.322 -2.5524 -0.0407  1.8483
   10DOPE   C36 1253   0.349   1.459  13.171 -0.3737  0.0949  0.5435
   10DOPE   H6X 1254   0.456   1.433  13.152 -0.0480  0.6468  1.5505
   10DOPE   H6Y 1255   0.347   1.570  13.164  1.2409  0.1116 -0.4630
   10DOPE   C37 1256   0.267   1.398  13.062  0.3270 -0.2921 -0.1133
   10DOPE   H7X 1257   0.253   1.289  13.077  1.6829 -0.8316 -2.2453
   10DOPE   H7Y 1258   0.171   1.452  13.079 -0.3185 -1.0044 -1.3246
   10DOPE   C38 1259   0.325   1.427  12.921 -0.0151  0.0327 -0.2832
   10DOPE   H8X 1260   0.418   1.367  12.925 -0.1350 -0.0852  1.4045
   10DOPE   H8Y 1261   0.347   1.536  12.911 -1.5282  0.2730 -1.2747
   10DOPE   C39 1262   0.233   1.375  12.813 -0.3179  0.0770  0.2873
   10DOPE   H9X 1263   0.130   1.410  12.832 -0.1764  0.9336 -0.4986
   10DOPE  C310 1264   0.260   1.299  12.702 -0.1997  0.3011  0.0130
   10DOPE  H10X 1265   0.181   1.284  12.628  0.8071  2.4890 -1.6313
   10DOPE  C311 1266   0.405   1.266  12.658  0.1702  0.1589  0.6072
   10DOPE  H11X 1267   0.474   1.276  12.744 -0.7770 -0.2506  1.4321
   10DOPE  H11Y 1268   0.430   1.166  12.617  1.8955  1.0163 -0.5927
   10DOPE  C312 1269   0.459   1.360  12.539  0.7712 -0.3089 -0.0330
   10DOPE  H12X 1270   0.568   1.379  12.546  0.3223  2.9615 -0.0918
   10DOPE  H12Y 1271   0.416   1.458  12.569  2.8131  0.8344 -0.6979
   10DOPE  C313 1272   0.419   1.307  12.402 -0.8996 -0.6249 -0.2119
   10DOPE  H13X 1273   0.315   1.268  12.402 -1.5234  0.8316 -2.5909
   10DOPE  H13Y 1274   0.414   1.398  12.338 -0.0302 -1.1443 -1.0372
   10DOPE  C314 1275   0.513   1.206  12.342 -0.7299  0.0253 -0.2956
   10DOPE  H14X 1276   0.505   1.102  12.381  1.8457 -0.1025  0.0725
   10DOPE  H14Y 1277   0.610   1.233  12.390 -0.3884 -0.9794 -0.3924
   10DOPE  C315 1278   0.531   1.205  12.193  0.9515 -0.0335 -0.8822
   10DOPE  H15X 1279   0.543   1.312  12.164 -0.0839  0.0158 -1.1455
   10DOPE  H15Y 1280   0.442   1.166  12.140 -1.2884  2.5700  0.6865
   10DOPE  C316 1281   0.654   1.119  12.162 -0.2396 -0.2538  0.4330
   10DOPE  H16X 1282   0.652   1.013  12.194  2.8071 -0.7207 -0.5469
   10DOPE  H16Y 1283   0.738   1.165  12.218 -0.8667 -0.4234  1.5378
   10DOPE  C317 1284   0.697   1.116  12.017 -0.2424 -0.8881 -0.4018
   10DOPE  H17X 1285   0.783   1.048  11.999  1.5572  0.4380  2.4832
   10DOPE  H17Y 1286   0.607   1.080  11.962 -2.8018  2.6038  1.1092
   10DOPE  C318 1287   0.741   1.251  11.949 -0.4015 -0.4044  0.1454
   10DOPE  H18X 1288   0.762   1.225  11.843  0.5601  0.0043  0.2227
   10DOPE  H18Y 1289   0.649   1.313  11.936  0.4949  0.4792 -2.8863
   10DOPE  H18Z 1290   0.829   1.297  11.999 -0.8583 -0.1021  0.6766
   11DOPE     N 1291   6.522   5.453  14.817  0.0083  0.3308  0.5700
   11DOPE   HN1 1292   6.563   5.543  14.848 -0.4315  1.0625 -0.8736
   11DOPE   HN2 1293   6.478   5.393  14.890 -0.9818 -1.5861 -1.4776
   11DOPE   HN3 1294   6.603   5.398  14.781  0.3532  0.0857  1.6753
   11DOPE   C12 1295   6.418   5.495  14.715  0.3914  0.2583 -0.3428
   11DOPE  H12A 1296   6.354   5.407  14.688 -0.5552  0.2495  1.7304
   11DOPE  H12B 1297   6.469   5.536  14.625 -1.4569  1.9712 -0.6804
   11DOPE   C11 1298   6.316   5.606  14.769 -0.0690 -0.2300  0.2074
   11DOPE  H11A 1299   6.252   5.558  14.846  1.2798 -1.9614  0.2915
   11DOPE  H11B 1300   6.245   5.637  14.689  0.2200  0.2285  0.1208
   11DOPE     P 1301   6.374   5.870  14.779  0.1341  0.0827 -0.0523
   11DOPE   O13 1302   6.502   5.925  14.822 -0.1964  0.1029  0.5482
   11DOPE   O14 1303   6.253   5.934  14.836  0.2135 -0.2122  0.7432
   11DOPE   O11 1304   6.363   5.864  14.623  0.1057 -0.1124  0.3902
   11DOPE   O12 1305   6.383   5.721  14.822  0.3310 -0.0456  0.5887
   11DOPE    C1 1306   6.293   5.975  14.565  0.1247 -0.6765  0.5787
   11DOPE    HA 1307   6.330   6.072  14.603 -1.7098 -0.0207  0.8051
   11DOPE    HB 1308   6.184   5.972  14.589 -0.1205 -0.8651 -0.5037
   11DOPE    C2 1309   6.313   5.968  14.409 -0.2313 -0.1571  0.0006
   11DOPE    HS 1310   6.287   6.067  14.365  0.6605 -0.0560 -0.3195
   11DOPE   O21 1311   6.232   5.876  14.338  0.2960  0.1914  0.0493
   11DOPE   C21 1312   6.095   5.898  14.352 -0.0884  0.4544 -1.0105
   11DOPE   O22 1313   6.047   6.006  14.386 -0.3733 -0.1349  0.8690
   11DOPE   C22 1314   6.023   5.771  14.324 -0.3637 -0.0708 -0.0134
   11DOPE   H2R 1315   5.917   5.796  14.302 -0.1256  0.8344 -0.2060
   11DOPE   H2S 1316   6.035   5.700  14.408  1.6019 -0.2693 -0.4076
   11DOPE    C3 1317   6.458   5.940  14.379 -0.5969 -0.2098  0.1385
   11DOPE    HX 1318   6.479   5.832  14.398 -3.8586 -1.1177 -0.8229
   11DOPE    HY 1319   6.520   6.003  14.446  2.7613 -1.2705 -1.7096
   11DOPE   O31 1320   6.492   5.973  14.242  0.3987  0.1130 -0.2244
   11DOPE   C31 1321   6.466   5.883  14.148  0.0891 -0.1637  0.0306
   11DOPE   O32 1322   6.412   5.772  14.162  0.5391  0.0888 -0.0456
   11DOPE   C32 1323   6.531   5.923  14.016  0.3716  0.2903  0.0709
   11DOPE   H2X 1324   6.523   6.033  14.010  0.0758  0.4762  2.7347
   11DOPE   H2Y 1325   6.636   5.887  14.016 -0.1481 -1.3011 -0.8637
   11DOPE   C23 1326   6.072   5.700  14.203  0.2013 -0.6412  0.5205
   11DOPE   H3R 1327   6.035   5.596  14.210 -0.0239 -0.4893  1.8632
   11DOPE   H3S 1328   6.182   5.688  14.189  0.0544 -1.2927 -0.1492
   11DOPE   C24 1329   6.038   5.773  14.068  0.6034 -0.2358 -0.1177
   11DOPE   H4R 1330   6.048   5.882  14.083  2.2213 -0.4304  0.4821
   11DOPE   H4S 1331   5.932   5.752  14.046  0.6628 -0.2465 -0.3931
   11DOPE   C25 1332   6.117   5.709  13.950  0.5943 -0.2648 -0.3161
   11DOPE   H5R 1333   6.095   5.600  13.951  1.0344 -0.4439  3.3617
   11DOPE   H5S 1334   6.226   5.723  13.967  0.5375  0.0316 -0.1938
   11DOPE   C26 1335   6.075   5.756  13.815  0.8061  0.5869  0.6408
   11DOPE   H6R 1336   6.112   5.860  13.799  0.2853  0.4268 -2.0849
   11DOPE   H6S 1337   5.965   5.770  13.809  0.9429  2.2796  1.4512
   11DOPE   C27 1338   6.109   5.673  13.688  0.9728 -0.5859 -0.6561
   11DOPE   H7R 1339   6.052   5.579  13.704 -0.2664 -0.1606 -2.3234
   11DOPE   H7S 1340   6.219   5.657  13.695  1.2380  0.9574 -0.8691
   11DOPE   C28 1341   6.069   5.740  13.552  0.1582 -0.0565 -0.1368
   11DOPE   H8R 1342   6.109   5.843  13.552 -2.9194  1.2526  0.0043
   11DOPE   H8S 1343   5.958   5.739  13.547  0.2206 -1.6025 -2.6158
   11DOPE   C29 1344   6.128   5.658  13.451 -1.0180  0.6851  1.2938
   11DOPE   H9R 1345   6.131   5.553  13.482  0.5448 -0.2620 -1.6781
   11DOPE  C210 1346   6.189   5.684  13.331 -0.0643  0.4866  0.6138
   11DOPE  H10R 1347   6.222   5.603  13.264 -2.6957  1.3878 -1.9838
   11DOPE  C211 1348   6.203   5.821  13.287 -0.6062 -0.4557  0.4956
   11DOPE  H11R 1349   6.309   5.833  13.258 -0.1133 -2.8445  1.1051
   11DOPE  H11S 1350   6.186   5.892  13.371  1.8820  2.0438 -0.9567
   11DOPE  C212 1351   6.114   5.861  13.171 -0.4820 -0.0519 -0.0151
   11DOPE  H12R 1352   6.116   5.970  13.148  1.7103 -0.4274 -1.9677
   11DOPE  H12S 1353   6.007   5.836  13.187 -1.1580  1.0879 -2.3337
   11DOPE  C213 1354   6.153   5.794  13.038 -0.3054 -0.1185 -0.8241
   11DOPE  H13R 1355   6.140   5.684  13.027  0.9277 -0.3002 -0.5770
   11DOPE  H13S 1356   6.259   5.819  13.019 -0.4454  1.0873 -0.1565
   11DOPE  C214 1357   6.076   5.858  12.928 -0.0698 -0.1617 -0.2326
   11DOPE  H14R 1358   6.027   5.948  12.970  0.1862  0.4090 -1.1462
   11DOPE  H14S 1359   5.999   5.798  12.876  1.8754 -1.6325 -1.6050
   11DOPE  C215 1360   6.158   5.920  12.811 -0.6437 -0.5794  0.5644
   11DOPE  H15R 1361   6.215   6.008  12.846 -1.0008  0.0399 -0.3938
   11DOPE  H15S 1362   6.090   5.951  12.729  0.7091 -3.0007 -1.6433
   11DOPE  C216 1363   6.246   5.823  12.739  0.3727  0.0647  0.3823
   11DOPE  H16R 1364   6.183   5.754  12.679  0.9950  1.1200 -1.5593
   11DOPE  H16S 1365   6.308   5.761  12.808  0.8926  1.1280  0.8914
   11DOPE  C217 1366   6.348   5.890  12.647 -0.3285  0.1121 -0.0257
   11DOPE  H17R 1367   6.394   5.803  12.596  1.0044 -0.1715  1.5729
   11DOPE  H17S 1368   6.430   5.939  12.704 -1.3855  1.1706  0.6534
   11DOPE  C218 1369   6.292   5.982  12.543 -0.1616 -0.5106 -0.4168
   11DOPE  H18R 1370   6.206   5.933  12.493 -1.3340  0.6133  0.4662
   11DOPE  H18S 1371   6.373   6.025  12.480  0.7690 -1.7812 -0.1390
   11DOPE  H18T 1372   6.241   6.067  12.592  1.5321 -0.1194  0.7611
   11DOPE   C33 1373   6.458   5.862  13.896  0.3422  0.3240  0.0335
   11DOPE   H3X 1374   6.357   5.908  13.889  0.9751  1.7512 -0.0871
   11DOPE   H3Y 1375   6.438   5.754  13.914  1.1143  0.2211  0.2908
   11DOPE   C34 1376   6.540   5.887  13.766 -0.5077  0.1722  0.6493
   11DOPE   H4X 1377   6.573   5.993  13.767  0.1553  0.0149 -1.0622
   11DOPE   H4Y 1378   6.628   5.820  13.754  2.0860  3.3311  0.6411
   11DOPE   C35 1379   6.443   5.884  13.645 -0.1916  0.2488 -0.2621
   11DOPE   H5X 1380   6.371   5.963  13.676 -0.4737 -0.0496 -0.1548
   11DOPE   H5Y 1381   6.395   5.785  13.627 -2.3203  0.7260  2.1780
   11DOPE   C36 1382   6.519   5.936  13.515 -0.1077  0.4608  0.6468
   11DOPE   H6X 1383   6.589   6.017  13.543  2.2182 -0.7386 -1.3869
   11DOPE   H6Y 1384   6.456   5.970  13.430  0.9009 -1.0496 -0.7666
   11DOPE   C37 1385   6.593   5.815  13.457 -0.1267  0.0005 -0.5273
   11DOPE   H7X 1386   6.653   5.769  13.539 -0.1645 -0.2927 -0.6658
   11DOPE   H7Y 1387   6.517   5.741  13.426  0.3895 -1.0661  0.6690
   11DOPE   C38 1388   6.676   5.860  13.333  0.1135 -0.1521 -0.0633
   11DOPE   H8X 1389   6.749   5.938  13.363 -1.7639  2.2024 -1.2923
   11DOPE   H8Y 1390   6.614   5.898  13.250  0.2014 -0.8767 -0.4699
   11DOPE   C39 1391   6.760   5.733  13.299  0.5361 -0.3409  0.1419
   11DOPE   H9X 1392   6.833   5.711  13.378 -0.5312 -2.2801  0.6512
   11DOPE  C310 1393   6.749   5.653  13.187 -0.4168 -1.1381 -0.5197
   11DOPE  H10X 1394   6.810   5.562  13.194 -0.3332 -0.9554  2.4618
   11DOPE  C311 1395   6.648   5.672  13.076  0.1188 -0.6197  0.5161
   11DOPE  H11X 1396   6.596   5.576  13.052  3.0710 -1.8774 -1.4915
   11DOPE  H11Y 1397   6.576   5.755  13.092 -0.2945 -1.1776  1.5882
   11DOPE  C312 1398   6.729   5.711  12.946  0.1369 -0.4828 -0.5443
   11DOPE  H12X 1399   6.806   5.632  12.938  1.0645  0.4053 -0.4940
   11DOPE  H12Y 1400   6.781   5.809  12.944 -4.5558  2.3629  1.0159
   11DOPE  C313 1401   6.640   5.702  12.821  0.0339  0.6539  0.7715
   11DOPE  H13X 1402   6.580   5.609  12.825 -0.0030  0.5466 -1.1232
   11DOPE  H13Y 1403   6.571   5.790  12.819 -0.1911  0.5216 -2.4206
   11DOPE  C314 1404   6.711   5.710  12.686  0.2793 -0.0918 -0.4200
   11DOPE  H14X 1405   6.767   5.806  12.671 -0.5360  0.3044 -0.9716
   11DOPE  H14Y 1406   6.641   5.706  12.600 -0.7811  1.9113  0.2807
   11DOPE  C315 1407   6.802   5.599  12.663 -0.0489 -0.0661 -0.4617
   11DOPE  H15X 1408   6.747   5.503  12.669  1.6442 -1.0079  0.8743
   11DOPE  H15Y 1409   6.889   5.599  12.732 -0.8154 -0.8370  0.5325
   11DOPE  C316 1410   6.854   5.595  12.517  0.3315 -0.2348  0.6301
   11DOPE  H16X 1411   6.904   5.689  12.485 -1.3547  0.9887  1.3704
   11DOPE  H16Y 1412   6.778   5.576  12.438  1.9678 -0.8892 -0.8333
   11DOPE  C317 1413   6.958   5.483  12.491  0.8773  0.1495  0.2890
   11DOPE  H17X 1414   7.029   5.492  12.576  0.4712 -0.1176  0.6568
   11DOPE  H17Y 1415   6.901   5.389  12.506  0.7263  0.1040 -0.5166
   11DOPE  C318 1416   7.027   5.495  12.360 -0.5041  0.5463 -0.3165
   11DOPE  H18X 1417   7.082   5.590  12.343  1.0673 -0.2855 -0.1133
   11DOPE  H18Y 1418   7.086   5.402  12.344 -0.7358 -0.2505  2.8458
   11DOPE  H18Z 1419   6.946   5.488  12.284 -1.6530 -1.2866  1.0025
   12DOPE     N 1420   1.752   1.784  14.954  0.2967  0.9049  0.5342
   12DOPE   HN1 1421   1.832   1.721  14.975  0.1321  0.0779 -1.1502
   12DOPE   HN2 1422   1.753   1.857  15.027  0.2144  0.5972  0.8482
   12DOPE   HN3 1423   1.671   1.718  14.953  1.4418 -0.6024 -1.8789
   12DOPE   C12 1424   1.763   1.845  14.821 -0.2188 -0.0212  0.1212
   12DOPE  H12A 1425   1.779   1.770  14.740 -2.1158 -0.0069 -0.3126
   12DOPE  H12B 1426   1.851   1.912  14.824  0.4031 -0.8401  0.6390
   12DOPE   C11 1427   1.632   1.913  14.779 -0.0136  0.1160 -0.0103
   12DOPE  H11A 1428   1.637   1.965  14.680 -1.4166 -1.4896 -0.9811
   12DOPE  H11B 1429   1.599   1.979  14.862 -0.1617  0.4070 -0.2974
   12DOPE     P 1430   1.379   1.854  14.740  0.0430 -0.1619  0.0653
   12DOPE   O13 1431   1.356   1.998  14.701 -0.0710  0.2806 -0.0620
   12DOPE   O14 1432   1.299   1.809  14.854  0.3416 -0.5263 -0.3876
   12DOPE   O11 1433   1.335   1.761  14.622  0.0627  0.0958  0.0124
   12DOPE   O12 1434   1.530   1.820  14.764 -0.0686  0.4568 -0.4035
   12DOPE    C1 1435   1.404   1.646  14.577 -0.3863 -0.0124 -0.9318
   12DOPE    HA 1436   1.340   1.556  14.587 -2.3627  1.4599  0.7091
   12DOPE    HB 1437   1.499   1.625  14.631  0.6276  0.9103 -2.2989
   12DOPE    C2 1438   1.453   1.658  14.432 -0.0021 -0.3256 -0.6056
   12DOPE    HS 1439   1.495   1.560  14.402 -2.1669 -1.2082 -0.9528
   12DOPE   O21 1440   1.554   1.761  14.409  0.1682  0.4183  0.4443
   12DOPE   C21 1441   1.675   1.729  14.446 -0.3600 -0.4431 -0.1777
   12DOPE   O22 1442   1.710   1.631  14.509  0.5223 -0.2724  0.2109
   12DOPE   C22 1443   1.781   1.832  14.396  0.0241  0.4567 -0.3386
   12DOPE   H2R 1444   1.882   1.790  14.376  0.4938  0.4090  1.8638
   12DOPE   H2S 1445   1.798   1.905  14.478  0.0533  0.5157 -0.3983
   12DOPE    C3 1446   1.330   1.687  14.346  1.0649  0.1887  0.0419
   12DOPE    HX 1447   1.297   1.792  14.360 -0.5853 -0.4693  1.4564
   12DOPE    HY 1448   1.255   1.615  14.386  0.6286  0.4529 -0.2857
   12DOPE   O31 1449   1.351   1.661  14.206 -1.1680  0.6385 -0.0152
   12DOPE   C31 1450   1.312   1.746  14.115 -0.2526  0.3418  0.3115
   12DOPE   O32 1451   1.272   1.860  14.131 -0.3798  0.7493  0.9938
   12DOPE   C32 1452   1.321   1.669  13.983  0.5488  0.6610 -0.9984
   12DOPE   H2X 1453   1.429   1.661  13.961  0.7604 -0.6707  0.3875
   12DOPE   H2Y 1454   1.276   1.570  14.006  0.4407  0.5838 -1.5296
   12DOPE   C23 1455   1.745   1.909  14.266 -0.7341  0.1510 -0.3269
   12DOPE   H3R 1456   1.831   1.980  14.259 -1.2326  0.7286 -0.7405
   12DOPE   H3S 1457   1.651   1.962  14.294 -1.0030 -0.8070  0.6364
   12DOPE   C24 1458   1.740   1.825  14.147  0.1606  0.9348  0.4623
   12DOPE   H4R 1459   1.658   1.753  14.167  0.4828  0.3557 -0.2741
   12DOPE   H4S 1460   1.837   1.772  14.142 -2.2595 -3.9584 -1.7400
   12DOPE   C25 1461   1.682   1.889  14.016 -0.8552  0.5665 -0.1426
   12DOPE   H5R 1462   1.717   1.990  13.983 -0.6848  0.2689 -0.8905
   12DOPE   H5S 1463   1.573   1.904  14.032 -0.6597  0.8234  1.0662
   12DOPE   C26 1464   1.704   1.793  13.901 -0.0680 -0.5893 -0.6277
   12DOPE   H6R 1465   1.655   1.700  13.936  1.1077 -0.5134  1.3535
   12DOPE   H6S 1466   1.813   1.773  13.895  0.1959  0.4427  0.3990
   12DOPE   C27 1467   1.638   1.845  13.770  0.3324 -0.2968  0.6321
   12DOPE   H7R 1468   1.640   1.952  13.743 -0.1648 -0.7378 -1.2563
   12DOPE   H7S 1469   1.528   1.840  13.783 -0.1669  0.1949 -2.5655
   12DOPE   C28 1470   1.681   1.768  13.639 -0.0679 -1.0943 -0.2925
   12DOPE   H8R 1471   1.637   1.667  13.650 -1.7603 -0.4563 -0.9488
   12DOPE   H8S 1472   1.792   1.758  13.634 -0.2730 -3.4535 -1.9377
   12DOPE   C29 1473   1.616   1.819  13.516  0.0794 -0.0265  0.0010
   12DOPE   H9R 1474   1.562   1.915  13.514 -1.5759 -0.8346  2.0920
   12DOPE  C210 1475   1.615   1.753  13.394  0.2199 -0.2505  0.0329
   12DOPE  H10R 1476   1.578   1.810  13.307 -1.6442  1.1721  1.6637
   12DOPE  C211 1477   1.695   1.623  13.362 -0.1389 -0.1932 -0.0965
   12DOPE  H11R 1478   1.623   1.548  13.322  3.4216 -2.4107 -2.8910
   12DOPE  H11S 1479   1.742   1.571  13.449 -3.4103  0.9158  2.5918
   12DOPE  C212 1480   1.799   1.643  13.245 -0.1351 -0.3905  0.1656
   12DOPE  H12R 1481   1.854   1.546  13.243  0.0886 -0.2811  0.7053
   12DOPE  H12S 1482   1.870   1.727  13.265  0.4615 -1.1227  1.2529
   12DOPE  C213 1483   1.724   1.661  13.111  0.5461  0.0540 -0.8485
   12DOPE  H13R 1484   1.659   1.751  13.120  2.2019  1.1240  2.2221
   12DOPE  H13S 1485   1.667   1.566  13.105 -2.2502  1.5310  0.4984
   12DOPE  C214 1486   1.822   1.671  13.002 -0.2547  0.4562 -0.0046
   12DOPE  H14R 1487   1.897   1.589  13.010 -0.1124  0.5837 -0.0262
   12DOPE  H14S 1488   1.885   1.758  13.029  1.7646 -1.8013  3.2060
   12DOPE  C215 1489   1.770   1.690  12.859 -0.6648  0.0081 -0.0377
   12DOPE  H15R 1490   1.725   1.791  12.845  1.6977  1.0892 -0.3687
   12DOPE  H15S 1491   1.690   1.615  12.843  1.4007 -2.5241  0.8194
   12DOPE  C216 1492   1.883   1.694  12.761  0.5089  0.4904 -0.2604
   12DOPE  H16R 1493   1.837   1.656  12.667 -0.2214  0.6798  0.0192
   12DOPE  H16S 1494   1.959   1.617  12.788 -0.8882 -0.3997  1.2594
   12DOPE  C217 1495   1.950   1.835  12.751 -0.6015  0.4216  1.0990
   12DOPE  H17R 1496   1.972   1.876  12.852 -0.1462  1.1621  0.7091
   12DOPE  H17S 1497   1.877   1.901  12.700  0.8895 -0.6645 -2.8508
   12DOPE  C218 1498   2.077   1.838  12.667  0.1801  0.0981 -0.4039
   12DOPE  H18R 1499   2.059   1.819  12.559 -0.3478  0.2699 -0.3458
   12DOPE  H18S 1500   2.153   1.761  12.693 -0.8346 -0.7899 -0.0093
   12DOPE  H18T 1501   2.135   1.932  12.681 -1.6931  1.0135  1.7830
   12DOPE   C33 1502   1.252   1.724  13.859 -0.9231  0.6880 -0.3463
   12DOPE   H3X 1503   1.302   1.818  13.826  2.9529 -0.6172  1.2859
   12DOPE   H3Y 1504   1.145   1.741  13.885 -0.9265 -0.5235  0.4738
   12DOPE   C34 1505   1.256   1.631  13.742  0.1272  0.2788 -0.3008
   12DOPE   H4X 1506   1.349   1.570  13.739 -0.1356 -0.2273  1.2378
   12DOPE   H4Y 1507   1.174   1.557  13.757  1.5164 -0.9052  1.9965
   12DOPE   C35 1508   1.235   1.703  13.608  0.4280  0.1613 -0.5516
   12DOPE   H5X 1509   1.294   1.797  13.602 -0.7364  0.9237 -0.5948
   12DOPE   H5Y 1510   1.131   1.742  13.620  0.8313  0.7759  1.1578
   12DOPE   C36 1511   1.244   1.615  13.481 -0.0976  0.4413  0.0603
   12DOPE   H6X 1512   1.174   1.530  13.494 -0.5805  1.0623  1.8354
   12DOPE   H6Y 1513   1.347   1.572  13.480  0.9354  2.7625 -0.0075
   12DOPE   C37 1514   1.216   1.693  13.352 -0.2269 -0.8444 -0.7035
   12DOPE   H7X 1515   1.122   1.747  13.376  1.4170  0.8008  2.7272
   12DOPE   H7Y 1516   1.300   1.762  13.329 -0.1645 -1.0561 -1.1283
   12DOPE   C38 1517   1.197   1.601  13.233 -0.7031 -0.0082 -0.1242
   12DOPE   H8X 1518   1.144   1.658  13.154  1.0616  0.3698 -1.0931
   12DOPE   H8Y 1519   1.123   1.523  13.262 -1.5864  1.4621  1.7870
   12DOPE   C39 1520   1.322   1.547  13.165  0.1553  0.0660  0.4544
   12DOPE   H9X 1521   1.406   1.509  13.225  1.8168  2.3500 -0.2827
   12DOPE  C310 1522   1.331   1.517  13.034 -0.9049  0.1056  0.0367
   12DOPE  H10X 1523   1.422   1.467  12.999 -0.5700  1.2501 -0.7833
   12DOPE  C311 1524   1.222   1.527  12.933 -0.0476  0.0763 -0.3675
   12DOPE  H11X 1525   1.217   1.427  12.884  2.9712 -0.3473  0.0065
   12DOPE  H11Y 1526   1.128   1.574  12.968  0.6712  1.5144 -0.3142
   12DOPE  C312 1527   1.277   1.620  12.823  0.0254  0.0609  0.1927
   12DOPE  H12X 1528   1.346   1.571  12.751 -0.8646 -1.6451  0.4522
   12DOPE  H12Y 1529   1.326   1.708  12.870  0.5917  0.2464 -0.7132
   12DOPE  C313 1530   1.161   1.659  12.726  0.6421 -0.0693 -0.4378
   12DOPE  H13X 1531   1.123   1.567  12.677  3.0426 -0.5957 -1.4647
   12DOPE  H13Y 1532   1.081   1.704  12.788  1.5454 -0.9886  1.4878
   12DOPE  C314 1533   1.196   1.765  12.626 -0.5711 -0.0465  0.8951
   12DOPE  H14X 1534   1.257   1.844  12.675  0.1256 -0.6839  1.0722
   12DOPE  H14Y 1535   1.108   1.819  12.585  0.0038  1.2747  1.3615
   12DOPE  C315 1536   1.284   1.698  12.510  0.5302 -0.5208  0.4140
   12DOPE  H15X 1537   1.226   1.617  12.461  0.0645  0.4101 -0.6066
   12DOPE  H15Y 1538   1.369   1.646  12.559  0.3872  0.3113  1.5963
   12DOPE  C316 1539   1.335   1.810  12.408 -0.5852 -0.1830  1.0403
   12DOPE  H16X 1540   1.363   1.905  12.459 -1.3101 -0.1928  1.4730
   12DOPE  H16Y 1541   1.251   1.833  12.339  0.3891 -0.1018 -0.1516
   12DOPE  C317 1542   1.450   1.745  12.328  0.3738  0.0983  0.0024
   12DOPE  H17X 1543   1.530   1.821  12.315  0.3271  0.1874  0.2397
   12DOPE  H17Y 1544   1.500   1.669  12.391 -0.8735  0.8061  1.9419
   12DOPE  C318 1545   1.401   1.689  12.197  0.6386  0.5908  0.4027
   12DOPE  H18X 1546   1.353   1.589  12.206 -1.8571  1.8564  2.1201
   12DOPE  H18Y 1547   1.322   1.757  12.160  1.0452  0.5878 -0.4915
   12DOPE  H18Z 1548   1.485   1.677  12.125  2.8504 -1.2406  3.0736
   13DOPE     N 1549   0.356   4.814  14.677 -0.0090 -0.2631 -0.2649
   13DOPE   HN1 1550   0.422   4.734  14.675 -0.1849 -0.3931 -1.1198
   13DOPE   HN2 1551   0.329   4.830  14.578 -2.9010 -2.4802  0.0463
   13DOPE   HN3 1552   0.392   4.900  14.722  0.7075 -1.1730  0.9592
   13DOPE   C12 1553   0.235   4.772  14.749 -0.9222 -0.0192 -0.2707
   13DOPE  H12A 1554   0.153   4.838  14.714 -0.2252  0.8010 -0.3886
   13DOPE  H12B 1555   0.242   4.792  14.858 -3.4049  0.7247 -0.2123
   13DOPE   C11 1556   0.200   4.632  14.709  0.0007  0.5960 -0.2989
   13DOPE  H11A 1557   0.195   4.649  14.599 -0.7061  2.1835 -0.0404
   13DOPE  H11B 1558   0.103   4.591  14.743 -0.2975  0.2989 -1.4469
   13DOPE     P 1559   0.299   4.398  14.792 -0.2573 -0.6099 -0.1423
   13DOPE   O13 1560   0.174   4.381  14.858  0.0414 -0.2068  0.0398
   13DOPE   O14 1561   0.417   4.378  14.874  0.0513 -0.2820  0.1174
   13DOPE   O11 1562   0.293   4.310  14.657 -0.2587 -1.0730 -0.0344
   13DOPE   O12 1563   0.309   4.549  14.742  0.7728  0.1518 -0.6458
   13DOPE    C1 1564   0.363   4.366  14.545 -0.4162 -0.3070 -0.2566
   13DOPE    HA 1565   0.459   4.311  14.535  0.0348 -0.1958  2.4935
   13DOPE    HB 1566   0.401   4.469  14.562  1.6481 -1.0422 -0.1448
   13DOPE    C2 1567   0.288   4.370  14.416  0.3128 -0.4042  0.5841
   13DOPE    HS 1568   0.219   4.457  14.418  0.9503  0.0886  1.6268
   13DOPE   O21 1569   0.209   4.249  14.411  0.0736 -0.0721 -0.3136
   13DOPE   C21 1570   0.085   4.257  14.457  0.2406 -0.2701 -0.2908
   13DOPE   O22 1571   0.037   4.361  14.501  0.3769 -0.1939  0.4991
   13DOPE   C22 1572   0.008   4.133  14.435 -0.6781  0.5198 -0.2956
   13DOPE   H2R 1573  -0.027   4.115  14.539 -1.9899  2.8619 -0.2612
   13DOPE   H2S 1574   0.062   4.044  14.399  0.0005  1.6999 -2.3618
   13DOPE    C3 1575   0.380   4.386  14.295 -0.6869 -0.2129  0.3997
   13DOPE    HX 1576   0.458   4.309  14.304 -0.3694  0.1443  0.7162
   13DOPE    HY 1577   0.422   4.489  14.295  1.8810 -1.1531 -1.5252
   13DOPE   O31 1578   0.315   4.357  14.167 -0.1781 -0.7637  0.3211
   13DOPE   C31 1579   0.399   4.375  14.061  0.0723  0.0960 -0.4726
   13DOPE   O32 1580   0.516   4.404  14.067  0.0461 -0.4399 -0.2904
   13DOPE   C32 1581   0.325   4.327  13.931  0.6588  0.5729 -0.2130
   13DOPE   H2X 1582   0.409   4.281  13.875 -1.5666 -2.4730 -1.3134
   13DOPE   H2Y 1583   0.238   4.259  13.944 -0.2333  1.3752 -1.7044
   13DOPE   C23 1584  -0.119   4.156  14.352  1.0001  0.4127  0.7200
   13DOPE   H3R 1585  -0.182   4.240  14.389  0.5243 -0.3539  1.7119
   13DOPE   H3S 1586  -0.193   4.074  14.356  0.3309  0.9080 -0.7655
   13DOPE   C24 1587  -0.076   4.176  14.205  0.5859  0.0798 -0.5878
   13DOPE   H4R 1588  -0.012   4.092  14.170  0.2732 -1.2462  1.7957
   13DOPE   H4S 1589  -0.010   4.264  14.192  2.4997 -1.2841 -0.6290
   13DOPE   C25 1590  -0.198   4.211  14.123  0.1023  0.2027 -0.2241
   13DOPE   H5R 1591  -0.260   4.289  14.170 -1.5380 -1.2784  0.1726
   13DOPE   H5S 1592  -0.257   4.118  14.106  1.7138 -0.4353 -3.2305
   13DOPE   C26 1593  -0.150   4.277  13.994  0.1688  0.6142  0.2653
   13DOPE   H6R 1594  -0.088   4.363  14.028 -0.5812  1.7130 -1.0548
   13DOPE   H6S 1595  -0.229   4.318  13.928  2.6483  4.3440 -0.6683
   13DOPE   C27 1596  -0.084   4.167  13.905 -0.3688 -0.2377 -0.3366
   13DOPE   H7R 1597  -0.012   4.105  13.962  1.0346  0.0116 -1.7717
   13DOPE   H7S 1598  -0.032   4.221  13.823 -1.5289  0.8333 -0.3850
   13DOPE   C28 1599  -0.187   4.062  13.847  0.6078 -0.2940 -0.4716
   13DOPE   H8R 1600  -0.215   4.015  13.944 -0.9330  2.2495  0.4286
   13DOPE   H8S 1601  -0.139   3.983  13.786 -1.6582 -0.9509 -1.5311
   13DOPE   C29 1602  -0.315   4.117  13.778 -0.1812  0.1541  0.0138
   13DOPE   H9R 1603  -0.406   4.102  13.839 -0.1742  1.0970  0.2819
   13DOPE  C210 1604  -0.326   4.188  13.664 -0.0373 -0.5839  0.8989
   13DOPE  H10R 1605  -0.426   4.227  13.640  0.0827 -1.8991 -2.1970
   13DOPE  C211 1606  -0.220   4.232  13.571 -0.0574  0.3180 -0.1509
   13DOPE  H11R 1607  -0.122   4.198  13.613 -0.7328 -1.5712 -0.0120
   13DOPE  H11S 1608  -0.222   4.343  13.562  1.6585  0.4775  0.8780
   13DOPE  C212 1609  -0.215   4.178  13.423  0.6332  0.0134  0.5288
   13DOPE  H12R 1610  -0.189   4.070  13.426  1.9903  0.3188  0.7743
   13DOPE  H12S 1611  -0.140   4.233  13.361 -0.3131  1.7126  0.8439
   13DOPE  C213 1612  -0.357   4.206  13.354 -0.5104 -0.4827  0.2428
   13DOPE  H13R 1613  -0.387   4.313  13.359 -1.7726 -0.8678  2.3408
   13DOPE  H13S 1614  -0.430   4.140  13.404 -2.7574  0.6435 -1.3794
   13DOPE  C214 1615  -0.345   4.174  13.205  0.4979 -0.4859 -0.1733
   13DOPE  H14R 1616  -0.298   4.073  13.200 -0.3178 -0.8992  0.3162
   13DOPE  H14S 1617  -0.272   4.245  13.160 -0.8650  0.6017 -0.7322
   13DOPE  C215 1618  -0.481   4.185  13.130 -0.0256  0.2518  0.1053
   13DOPE  H15R 1619  -0.519   4.290  13.131 -2.6081 -0.6310  1.4019
   13DOPE  H15S 1620  -0.559   4.115  13.166 -0.5049 -0.0940 -1.5269
   13DOPE  C216 1621  -0.460   4.149  12.978  0.4324  0.1427  0.0463
   13DOPE  H16R 1622  -0.417   4.049  12.959  2.5212  0.8192  0.9296
   13DOPE  H16S 1623  -0.383   4.217  12.935  0.0807 -0.3140 -1.3836
   13DOPE  C217 1624  -0.586   4.169  12.904 -1.0707 -0.3503 -0.2149
   13DOPE  H17R 1625  -0.604   4.279  12.903 -1.4180 -0.3489  1.5270
   13DOPE  H17S 1626  -0.656   4.116  12.971 -1.8237 -0.9644 -1.4599
   13DOPE  C218 1627  -0.588   4.111  12.768  0.1013  0.0727 -0.3406
   13DOPE  H18R 1628  -0.692   4.105  12.729 -0.2443 -0.6774  0.6420
   13DOPE  H18S 1629  -0.547   4.007  12.765  1.4354  0.5722  0.0968
   13DOPE  H18T 1630  -0.535   4.175  12.695  0.8109 -0.6284 -0.4547
   13DOPE   C33 1631   0.268   4.444  13.847  0.1146 -0.4859  0.6444
   13DOPE   H3X 1632   0.349   4.519  13.834  0.3708 -0.7436  0.7519
   13DOPE   H3Y 1633   0.178   4.486  13.896  1.0474  2.0089  0.3658
   13DOPE   C34 1634   0.212   4.389  13.708 -0.3159 -0.9406 -0.3250
   13DOPE   H4X 1635   0.297   4.335  13.663  2.6923  1.7871  1.6347
   13DOPE   H4Y 1636   0.134   4.314  13.734  0.0129 -0.9411  0.7378
   13DOPE   C35 1637   0.177   4.505  13.618  0.2357  0.2653  0.3800
   13DOPE   H5X 1638   0.264   4.574  13.611  0.1921  0.3263  0.4308
   13DOPE   H5Y 1639   0.089   4.566  13.650  0.3770  0.5448  0.2424
   13DOPE   C36 1640   0.159   4.444  13.476  0.0405  0.0686  0.0344
   13DOPE   H6X 1641   0.105   4.348  13.489 -0.1351  0.3010  1.1332
   13DOPE   H6Y 1642   0.261   4.426  13.437  1.3296  1.7280  2.3995
   13DOPE   C37 1643   0.086   4.538  13.379 -0.2221  0.5698  0.2856
   13DOPE   H7X 1644  -0.007   4.571  13.431 -0.6663  1.2235 -0.8654
   13DOPE   H7Y 1645   0.162   4.619  13.375  0.1817  0.2679  1.4484
   13DOPE   C38 1646   0.044   4.487  13.239 -0.2493 -0.1478  0.3849
   13DOPE   H8X 1647  -0.013   4.571  13.194 -2.3529 -1.1253  1.0978
   13DOPE   H8Y 1648  -0.034   4.409  13.250 -0.5547 -0.5098 -3.2497
   13DOPE   C39 1649   0.169   4.445  13.159  0.1887  0.5573 -0.8186
   13DOPE   H9X 1650   0.251   4.396  13.214 -1.4734 -2.0828 -0.5347
   13DOPE  C310 1651   0.176   4.437  13.023  0.0953  0.4639 -0.9822
   13DOPE  H10X 1652   0.266   4.399  12.974  1.1641 -0.5920  1.6354
   13DOPE  C311 1653   0.053   4.449  12.939 -0.1762 -0.3848  0.6034
   13DOPE  H11X 1654  -0.045   4.416  12.982 -1.6362 -0.8067 -2.6916
   13DOPE  H11Y 1655   0.039   4.555  12.909 -0.0458 -0.3122  0.8000
   13DOPE  C312 1656   0.065   4.359  12.812  0.0353 -0.2058 -0.0979
   13DOPE  H12X 1657  -0.031   4.336  12.759  0.3279 -2.1113  0.1514
   13DOPE  H12Y 1658   0.092   4.260  12.852  1.2813  0.5616  1.0147
   13DOPE  C313 1659   0.167   4.410  12.707 -0.3235 -0.1249  0.3324
   13DOPE  H13X 1660   0.265   4.425  12.756  0.4962 -1.9298 -0.6653
   13DOPE  H13Y 1661   0.177   4.345  12.617 -0.1869  0.1721  0.1306
   13DOPE  C314 1662   0.138   4.552  12.648  0.3710  0.2820 -0.3621
   13DOPE  H14X 1663   0.220   4.573  12.577 -0.7079  0.9138 -1.4750
   13DOPE  H14Y 1664   0.132   4.623  12.734  0.0283 -0.2666  0.0766
   13DOPE  C315 1665   0.003   4.563  12.573 -0.4963 -0.5115 -0.3971
   13DOPE  H15X 1666  -0.082   4.536  12.640 -1.0932  0.0511 -0.9097
   13DOPE  H15Y 1667  -0.004   4.479  12.501 -1.2750  1.0099 -2.2090
   13DOPE  C316 1668  -0.026   4.701  12.512  0.4341  0.6374  0.2334
   13DOPE  H16X 1669   0.048   4.717  12.431 -0.7377 -0.8893 -1.2092
   13DOPE  H16Y 1670  -0.017   4.776  12.593 -2.1977  0.4623  0.7906
   13DOPE  C317 1671  -0.168   4.708  12.443 -0.0028  0.2446 -0.2718
   13DOPE  H17X 1672  -0.233   4.700  12.533  1.6584  1.5998  1.1414
   13DOPE  H17Y 1673  -0.184   4.807  12.396 -0.8334 -0.1909 -0.9260
   13DOPE  C318 1674  -0.185   4.591  12.336 -0.1344 -0.1011 -0.2321
   13DOPE  H18X 1675  -0.103   4.599  12.262 -0.8537  3.0008 -0.8270
   13DOPE  H18Y 1676  -0.175   4.494  12.389  0.4301 -0.0619 -0.2610
   13DOPE  H18Z 1677  -0.281   4.601  12.281  1.1871  0.6176 -2.5323
   14DOPE     N 1678   4.199   0.292  14.359 -0.4284  0.0979  0.0141
   14DOPE   HN1 1679   4.257   0.247  14.433 -0.6526 -0.5421 -0.1887
   14DOPE   HN2 1680   4.267   0.332  14.292 -0.6548  0.5801  0.0667
   14DOPE   HN3 1681   4.143   0.371  14.398 -0.7702  0.3871 -1.0427
   14DOPE   C12 1682   4.104   0.200  14.292  0.1316  0.0960 -0.1446
   14DOPE  H12A 1683   4.060   0.255  14.206 -0.8454  1.2363  1.0337
   14DOPE  H12B 1684   4.027   0.168  14.365 -1.1543 -1.9214 -2.2591
   14DOPE   C11 1685   4.177   0.088  14.222  1.0602  0.4295 -0.6611
   14DOPE  H11A 1686   4.234   0.127  14.134  0.4099  1.3388 -0.7016
   14DOPE  H11B 1687   4.104   0.020  14.172  0.6632 -0.0985  0.6120
   14DOPE     P 1688   4.207  -0.083  14.417 -0.1239  0.5266  0.2858
   14DOPE   O13 1689   4.085  -0.029  14.475  0.0237  0.0842  0.1295
   14DOPE   O14 1690   4.310  -0.122  14.510 -0.5221 -0.3325  0.1446
   14DOPE   O11 1691   4.174  -0.213  14.334 -0.5508 -0.2584  0.2456
   14DOPE   O12 1692   4.270   0.013  14.310  0.0695  0.4830  0.2957
   14DOPE    C1 1693   4.283  -0.275  14.263 -0.1974 -0.1822  0.2807
   14DOPE    HA 1694   4.264  -0.384  14.268 -1.8723  0.0767  0.0860
   14DOPE    HB 1695   4.382  -0.251  14.307  0.1945  2.9861 -1.9468
   14DOPE    C2 1696   4.307  -0.226  14.119  0.3856 -0.5612 -0.0478
   14DOPE    HS 1697   4.351  -0.124  14.120  0.5088 -0.6190  0.4732
   14DOPE   O21 1698   4.176  -0.228  14.057  0.1261  0.0420 -0.2720
   14DOPE   C21 1699   4.156  -0.131  13.971  0.1198  0.2549 -0.5775
   14DOPE   O22 1700   4.234  -0.035  13.951 -0.4505  0.0064  0.2493
   14DOPE   C22 1701   4.023  -0.150  13.897  0.4215  0.0572  0.2418
   14DOPE   H2R 1702   3.945  -0.097  13.955 -0.0030 -1.3388  0.9953
   14DOPE   H2S 1703   3.993  -0.257  13.897 -1.4740  0.5287 -1.4596
   14DOPE    C3 1704   4.401  -0.320  14.049  0.6269  0.3767 -0.4072
   14DOPE    HX 1705   4.358  -0.422  14.061 -1.2956  1.0831 -0.8337
   14DOPE    HY 1706   4.496  -0.332  14.104  0.2854 -0.8172 -0.0527
   14DOPE   O31 1707   4.428  -0.288  13.908  0.5213 -0.4296 -0.2104
   14DOPE   C31 1708   4.506  -0.177  13.895  0.1507  0.1016  0.0576
   14DOPE   O32 1709   4.552  -0.116  13.989 -0.8492  0.6416  0.2887
   14DOPE   C32 1710   4.511  -0.137  13.751  0.3565 -0.1103  0.1405
   14DOPE   H2X 1711   4.541  -0.222  13.685  1.6394 -0.9186  1.6704
   14DOPE   H2Y 1712   4.418  -0.091  13.712  0.0224 -0.6160  0.3255
   14DOPE   C23 1713   4.043  -0.100  13.755 -0.1052  0.8602 -0.3318
   14DOPE   H3R 1714   4.122  -0.164  13.710 -0.3217 -0.1931  0.7315
   14DOPE   H3S 1715   4.086   0.002  13.753  1.3026  0.2835 -0.6707
   14DOPE   C24 1716   3.902  -0.114  13.677 -0.6149 -0.3427 -0.5360
   14DOPE   H4R 1717   3.817  -0.060  13.724 -0.1907  0.3202 -0.5155
   14DOPE   H4S 1718   3.877  -0.219  13.703 -1.6091 -0.6514 -2.5677
   14DOPE   C25 1719   3.917  -0.105  13.525 -0.4102  0.4006 -0.0676
   14DOPE   H5R 1720   4.024  -0.130  13.511 -0.1882  2.5288 -3.1059
   14DOPE   H5S 1721   3.903  -0.001  13.489 -1.6751 -0.2226 -1.4871
   14DOPE   C26 1722   3.836  -0.200  13.436 -0.0165 -0.1806 -0.1288
   14DOPE   H6R 1723   3.725  -0.189  13.446  0.1697  1.7514  0.2929
   14DOPE   H6S 1724   3.862  -0.304  13.466  0.4884 -0.7300 -2.2803
   14DOPE   C27 1725   3.886  -0.189  13.293  0.1535  0.9660  0.7855
   14DOPE   H7R 1726   3.996  -0.175  13.283  0.1977 -0.3761 -1.2543
   14DOPE   H7S 1727   3.859  -0.088  13.257  0.2806 -0.1401 -2.8328
   14DOPE   C28 1728   3.836  -0.308  13.204 -0.0172 -0.4572  0.3153
   14DOPE   H8R 1729   3.725  -0.311  13.206 -0.2012 -1.5869 -3.5993
   14DOPE   H8S 1730   3.872  -0.397  13.260 -0.6045 -0.2422  1.0612
   14DOPE   C29 1731   3.881  -0.296  13.061 -0.5169  0.1008  0.6465
   14DOPE   H9R 1732   3.819  -0.227  13.002 -1.8314 -0.7202  1.0119
   14DOPE  C210 1733   3.979  -0.367  12.999  0.6052 -0.1308 -0.0938
   14DOPE  H10R 1734   3.988  -0.356  12.890 -0.6411 -0.9165 -0.3059
   14DOPE  C211 1735   4.067  -0.471  13.066  0.3356  0.6596  0.0781
   14DOPE  H11R 1736   4.024  -0.512  13.160  1.2022 -0.0948  0.1591
   14DOPE  H11S 1737   4.171  -0.432  13.073  0.9318 -0.7762 -0.4626
   14DOPE  C212 1738   4.094  -0.608  12.995  0.0751  0.2919  0.1497
   14DOPE  H12R 1739   4.000  -0.668  12.990 -3.5852  5.4459 -0.6533
   14DOPE  H12S 1740   4.158  -0.673  13.057 -0.4589 -0.1889  0.2092
   14DOPE  C213 1741   4.154  -0.616  12.856 -0.1255  0.2289 -0.1289
   14DOPE  H13R 1742   4.257  -0.573  12.857 -0.2005  0.4408 -1.0383
   14DOPE  H13S 1743   4.082  -0.564  12.789 -3.0454 -3.0665  0.1512
   14DOPE  C214 1744   4.173  -0.758  12.788  0.2063 -0.4355 -1.2336
   14DOPE  H14R 1745   4.078  -0.813  12.776  0.8468 -1.4845 -1.6439
   14DOPE  H14S 1746   4.238  -0.805  12.865 -0.5271  0.2981 -0.1415
   14DOPE  C215 1747   4.261  -0.745  12.664  0.3345  0.6090  0.2320
   14DOPE  H15R 1748   4.326  -0.835  12.654 -1.7648 -1.2465  2.1043
   14DOPE  H15S 1749   4.328  -0.658  12.680  0.5065  0.8002 -1.3990
   14DOPE  C216 1750   4.176  -0.736  12.543  0.9388  0.3338  0.1864
   14DOPE  H16R 1751   4.104  -0.652  12.557 -0.3299 -0.5126 -0.9938
   14DOPE  H16S 1752   4.114  -0.827  12.523 -0.8827  1.3587  0.8913
   14DOPE  C217 1753   4.262  -0.698  12.420  0.7365  0.5169 -0.0566
   14DOPE  H17R 1754   4.348  -0.767  12.406 -0.7565 -1.4451 -0.1573
   14DOPE  H17S 1755   4.306  -0.599  12.443  2.7198 -0.3716  0.1333
   14DOPE  C218 1756   4.181  -0.700  12.288  0.1552  0.4640  0.6934
   14DOPE  H18R 1757   4.250  -0.668  12.206 -1.0052  2.2861  0.3603
   14DOPE  H18S 1758   4.107  -0.618  12.296  0.0913  0.3312  1.4995
   14DOPE  H18T 1759   4.133  -0.795  12.257  0.1265  0.1533  1.6676
   14DOPE   C33 1760   4.618  -0.031  13.725 -0.4507  0.0132 -0.0125
   14DOPE   H3X 1761   4.709  -0.092  13.742 -0.6104 -0.2608 -0.1384
   14DOPE   H3Y 1762   4.613   0.052  13.799  0.2910 -2.2262  2.7344
   14DOPE   C34 1763   4.633   0.025  13.576  0.6328  0.4072  0.5242
   14DOPE   H4X 1764   4.617  -0.061  13.507  0.9704 -0.0892  1.0543
   14DOPE   H4Y 1765   4.557   0.102  13.550  0.8258  0.7757  1.0223
   14DOPE   C35 1766   4.763   0.096  13.539 -0.2781 -0.1029  0.4767
   14DOPE   H5X 1767   4.837   0.013  13.530  1.7231  1.7602 -1.5484
   14DOPE   H5Y 1768   4.805   0.174  13.605  0.4997  0.1687 -0.3212
   14DOPE   C36 1769   4.758   0.153  13.393 -0.4345 -0.0840  0.2027
   14DOPE   H6X 1770   4.852   0.207  13.370  1.2338 -2.7249  0.3460
   14DOPE   H6Y 1771   4.676   0.223  13.370 -1.4623 -0.9811  1.0488
   14DOPE   C37 1772   4.759   0.042  13.292 -0.2068 -0.1732  0.7748
   14DOPE   H7X 1773   4.809  -0.049  13.330 -1.9735 -1.0918  0.9746
   14DOPE   H7Y 1774   4.656   0.016  13.259  0.4350  0.8115 -2.2999
   14DOPE   C38 1775   4.826   0.093  13.159  1.0114 -0.3912 -0.6383
   14DOPE   H8X 1776   4.926   0.139  13.177 -0.2261  1.6672  1.5796
   14DOPE   H8Y 1777   4.760   0.161  13.101  1.6578  0.7913 -0.0218
   14DOPE   C39 1778   4.850  -0.026  13.074  0.0388 -0.3997  0.5223
   14DOPE   H9X 1779   4.881  -0.117  13.128 -2.8708 -1.9120 -0.1470
   14DOPE  C310 1780   4.852  -0.029  12.941 -0.6539 -0.2061  0.6601
   14DOPE  H10X 1781   4.850  -0.128  12.893 -0.5651  0.8624 -1.6957
   14DOPE  C311 1782   4.836   0.086  12.849  0.7044 -0.3251  0.3926
   14DOPE  H11X 1783   4.841   0.183  12.902  0.4367 -1.3372  2.3652
   14DOPE  H11Y 1784   4.896   0.086  12.755  1.3898 -2.5445  0.7594
   14DOPE  C312 1785   4.690   0.070  12.795  0.9311  0.4078  0.2370
   14DOPE  H12X 1786   4.623   0.070  12.883 -0.3791  1.4969 -0.7139
   14DOPE  H12Y 1787   4.694  -0.029  12.745 -0.6111  1.2446 -1.6626
   14DOPE  C313 1788   4.642   0.183  12.700 -0.0207  0.2179  0.1274
   14DOPE  H13X 1789   4.631   0.276  12.760 -1.7627 -0.1380  0.4132
   14DOPE  H13Y 1790   4.727   0.204  12.632  0.2573  0.8554  0.6639
   14DOPE  C314 1791   4.522   0.153  12.606  0.0357  0.4663  0.3203
   14DOPE  H14X 1792   4.506   0.242  12.541 -1.1954  0.1962  0.2298
   14DOPE  H14Y 1793   4.434   0.136  12.672  0.1326  1.5377  0.7449
   14DOPE  C315 1794   4.550   0.027  12.516  0.2378 -0.0036  0.4667
   14DOPE  H15X 1795   4.457  -0.003  12.463  1.3569  0.5078 -1.9770
   14DOPE  H15Y 1796   4.574  -0.059  12.582  0.6550  0.4640  0.9290
   14DOPE  C316 1797   4.661   0.053  12.411  0.4720  0.4756 -0.5704
   14DOPE  H16X 1798   4.754   0.084  12.466  0.7891  2.4816 -2.1261
   14DOPE  H16Y 1799   4.628   0.137  12.346 -2.2252 -1.4768 -1.8718
   14DOPE  C317 1800   4.685  -0.060  12.318  0.0735 -0.3353 -0.6367
   14DOPE  H17X 1801   4.771  -0.035  12.253  2.2897 -0.2311  2.1290
   14DOPE  H17Y 1802   4.708  -0.159  12.362 -1.3178 -1.1156 -1.5818
   14DOPE  C318 1803   4.568  -0.078  12.224  0.1643  1.0093  0.8392
   14DOPE  H18X 1804   4.493  -0.150  12.263  1.6080  0.9516  3.7708
   14DOPE  H18Y 1805   4.517   0.017  12.194 -4.8956 -1.9969 -1.5022
   14DOPE  H18Z 1806   4.610  -0.130  12.136  1.2963  0.6156  1.5985
   15DOPE     N 1807   5.614   5.412  14.840 -0.7052  0.1025  0.5159
   15DOPE   HN1 1808   5.562   5.416  14.750 -1.6717 -0.6116  1.0207
   15DOPE   HN2 1809   5.561   5.464  14.913 -2.5408  0.3218 -0.9171
   15DOPE   HN3 1810   5.713   5.443  14.837 -0.1147 -1.6878  0.1971
   15DOPE   C12 1811   5.601   5.265  14.867  0.6764 -0.0149 -0.6395
   15DOPE  H12A 1812   5.576   5.211  14.773 -0.4976 -0.6108 -0.0050
   15DOPE  H12B 1813   5.514   5.252  14.934  0.8169 -1.5166 -0.7204
   15DOPE   C11 1814   5.734   5.204  14.935  0.0110 -0.0242  0.2374
   15DOPE  H11A 1815   5.714   5.096  14.946  0.6293 -0.1679  0.0042
   15DOPE  H11B 1816   5.742   5.255  15.034 -0.1621  0.4970 -0.0104
   15DOPE     P 1817   5.943   5.335  14.860 -0.1278 -0.1069  0.0190
   15DOPE   O13 1818   5.983   5.338  15.004 -0.7258 -0.2459 -0.2841
   15DOPE   O14 1819   5.875   5.459  14.805  0.0260  0.0203 -0.2475
   15DOPE   O11 1820   6.066   5.315  14.769  0.0558 -0.1333  0.2320
   15DOPE   O12 1821   5.849   5.208  14.848 -0.1732  0.6524 -0.6313
   15DOPE    C1 1822   6.106   5.187  14.724  0.4396  0.1790  0.0385
   15DOPE    HA 1823   6.101   5.105  14.799  0.3475 -0.4775 -0.6785
   15DOPE    HB 1824   6.213   5.188  14.694 -0.0210  0.0227 -1.6815
   15DOPE    C2 1825   6.024   5.147  14.601  0.0140  0.7192  0.0368
   15DOPE    HS 1826   5.920   5.122  14.632 -0.1520  1.3251 -0.0142
   15DOPE   O21 1827   6.090   5.026  14.554 -0.0747 -0.3380  0.2999
   15DOPE   C21 1828   6.013   4.953  14.478  0.4565 -0.0353 -0.1815
   15DOPE   O22 1829   5.900   4.984  14.432 -0.3648  0.2747 -0.0829
   15DOPE   C22 1830   6.086   4.822  14.438  0.7926 -0.2700  0.4924
   15DOPE   H2R 1831   6.028   4.733  14.471 -0.9943  0.2475 -1.0437
   15DOPE   H2S 1832   6.188   4.819  14.483  0.8415 -1.6612  0.3039
   15DOPE    C3 1833   6.019   5.267  14.500 -0.4542 -0.3164 -0.4819
   15DOPE    HX 1834   6.101   5.336  14.528  0.0038 -1.3868  0.9312
   15DOPE    HY 1835   5.923   5.317  14.525  0.2307  1.5121 -1.3715
   15DOPE   O31 1836   6.032   5.235  14.357  0.0170  0.5087 -0.0251
   15DOPE   C31 1837   5.927   5.257  14.284 -0.2717 -1.1751 -0.9032
   15DOPE   O32 1838   5.826   5.321  14.320 -0.0738  0.4613 -0.1010
   15DOPE   C32 1839   5.941   5.202  14.139  1.0350  0.5301 -0.2967
   15DOPE   H2X 1840   5.866   5.121  14.130  2.2102 -0.6007 -0.3449
   15DOPE   H2Y 1841   5.898   5.287  14.082 -0.8555 -1.1845 -1.5464
   15DOPE   C23 1842   6.096   4.818  14.281 -0.1032 -0.0857  0.2621
   15DOPE   H3R 1843   6.172   4.748  14.240 -1.9219 -1.7847 -0.3855
   15DOPE   H3S 1844   6.135   4.917  14.249  1.0042 -0.5564  0.0825
   15DOPE   C24 1845   5.965   4.786  14.203  0.9212  0.3257 -0.1198
   15DOPE   H4R 1846   5.902   4.877  14.196 -1.5609 -1.2156  1.0441
   15DOPE   H4S 1847   5.908   4.702  14.247 -1.4798  1.1457 -1.4916
   15DOPE   C25 1848   6.002   4.751  14.058 -0.2109 -0.7426 -0.4543
   15DOPE   H5R 1849   6.066   4.660  14.064 -0.1272 -0.6443  4.0971
   15DOPE   H5S 1850   6.065   4.835  14.022  0.2448 -0.9821 -0.2262
   15DOPE   C26 1851   5.881   4.737  13.963  0.3582 -0.7716 -0.2579
   15DOPE   H6R 1852   5.807   4.815  13.992  0.5498  0.6419 -3.1618
   15DOPE   H6S 1853   5.828   4.640  13.975 -1.0153 -0.2691 -1.7913
   15DOPE   C27 1854   5.918   4.769  13.810 -0.0135 -0.0767 -0.2145
   15DOPE   H7R 1855   5.987   4.693  13.767  0.0801 -0.9510  1.3898
   15DOPE   H7S 1856   5.969   4.867  13.800 -2.4425  1.0718 -2.6461
   15DOPE   C28 1857   5.789   4.774  13.733 -0.7865  0.2160 -0.2466
   15DOPE   H8R 1858   5.734   4.866  13.761  0.2920  0.8057 -0.0270
   15DOPE   H8S 1859   5.718   4.692  13.758 -0.0281  0.1563  1.9674
   15DOPE   C29 1860   5.829   4.779  13.587 -0.1850 -0.1614 -0.3063
   15DOPE   H9R 1861   5.926   4.820  13.557 -0.3997  1.1574  0.7203
   15DOPE  C210 1862   5.749   4.743  13.484 -0.6970 -0.3009 -0.0403
   15DOPE  H10R 1863   5.790   4.783  13.390  0.0724  1.3869  0.9637
   15DOPE  C211 1864   5.604   4.699  13.496 -0.4722 -0.0446  0.0930
   15DOPE  H11R 1865   5.541   4.791  13.490  0.4228  1.0322  4.0016
   15DOPE  H11S 1866   5.587   4.645  13.592  1.6345 -1.2809 -0.1741
   15DOPE  C212 1867   5.567   4.607  13.379  0.5738 -0.3992 -0.0383
   15DOPE  H12R 1868   5.462   4.579  13.404  0.0861  0.2728 -1.2967
   15DOPE  H12S 1869   5.632   4.518  13.364 -1.2132 -1.8959  0.5856
   15DOPE  C213 1870   5.564   4.680  13.237 -0.5658  0.5236 -0.5080
   15DOPE  H13R 1871   5.669   4.681  13.200 -0.3357 -0.3752  0.0960
   15DOPE  H13S 1872   5.527   4.781  13.264 -0.8219 -0.0830  1.6056
   15DOPE  C214 1873   5.477   4.610  13.131 -0.3810 -0.2178 -0.5650
   15DOPE  H14R 1874   5.377   4.589  13.175 -0.5293  1.0173 -0.2836
   15DOPE  H14S 1875   5.521   4.510  13.111  1.0630  0.3611 -0.4110
   15DOPE  C215 1876   5.457   4.674  12.995 -0.5829  0.2529 -0.7646
   15DOPE  H15R 1877   5.419   4.779  12.995  0.2986  0.6038  1.3187
   15DOPE  H15S 1878   5.388   4.620  12.926  0.1026 -0.0175 -1.2472
   15DOPE  C216 1879   5.593   4.671  12.924  0.6081 -0.1731  0.1463
   15DOPE  H16R 1880   5.648   4.575  12.928  0.8976 -0.2663 -3.2295
   15DOPE  H16S 1881   5.658   4.749  12.970  1.0016 -0.0853 -0.5443
   15DOPE  C217 1882   5.565   4.707  12.776  0.6404  0.1566 -0.0598
   15DOPE  H17R 1883   5.464   4.755  12.774 -0.0361 -1.1597  0.8667
   15DOPE  H17S 1884   5.553   4.607  12.729 -0.8387 -0.6678  1.9055
   15DOPE  C218 1885   5.640   4.821  12.708  0.6982 -0.3335  0.6955
   15DOPE  H18R 1886   5.746   4.793  12.690 -0.0032 -2.9971  0.2179
   15DOPE  H18S 1887   5.634   4.912  12.771  1.9780  1.2074 -1.2790
   15DOPE  H18T 1888   5.598   4.832  12.606  1.4496 -0.0280  0.4127
   15DOPE   C33 1889   6.088   5.170  14.091 -0.1733 -0.2562 -0.3983
   15DOPE   H3X 1890   6.114   5.072  14.135  2.9658  0.1907 -1.0376
   15DOPE   H3Y 1891   6.159   5.252  14.116 -1.7007  1.1164 -0.3905
   15DOPE   C34 1892   6.088   5.136  13.936  0.4858 -0.0409 -0.3966
   15DOPE   H4X 1893   6.174   5.066  13.922 -0.5922 -1.4684 -0.1670
   15DOPE   H4Y 1894   5.992   5.082  13.919  0.8639 -0.7754 -0.2572
   15DOPE   C35 1895   6.080   5.261  13.849  0.6556 -0.1345  1.4155
   15DOPE   H5X 1896   6.183   5.302  13.853  1.5839 -1.7566 -2.2195
   15DOPE   H5Y 1897   6.012   5.338  13.891  0.4022  1.5232 -1.7609
   15DOPE   C36 1898   6.043   5.225  13.702  0.2416 -0.4612 -0.5324
   15DOPE   H6X 1899   6.046   5.320  13.645 -2.0967 -0.8910 -1.4791
   15DOPE   H6Y 1900   5.936   5.195  13.711  0.4074 -1.2607 -1.1111
   15DOPE   C37 1901   6.127   5.125  13.640 -1.0757  0.0846  0.6302
   15DOPE   H7X 1902   6.230   5.161  13.620 -1.8814  0.9191 -2.6341
   15DOPE   H7Y 1903   6.122   5.033  13.703 -1.3335  0.2982  0.9208
   15DOPE   C38 1904   6.076   5.088  13.497  0.0106 -0.0906 -0.0650
   15DOPE   H8X 1905   6.101   5.166  13.421  1.0181  0.9234  1.2664
   15DOPE   H8Y 1906   5.965   5.082  13.499 -0.0196  0.3065 -0.2538
   15DOPE   C39 1907   6.126   4.957  13.446 -0.4927  0.1919  0.5307
   15DOPE   H9X 1908   6.193   4.904  13.515 -0.3102 -0.3820 -0.0754
   15DOPE  C310 1909   6.081   4.895  13.336 -0.1873  0.0979 -0.4237
   15DOPE  H10X 1910   6.125   4.802  13.298 -0.2651  0.6759 -2.0470
   15DOPE  C311 1911   5.979   4.958  13.240  0.0365 -0.1796 -0.1321
   15DOPE  H11X 1912   5.888   4.895  13.228 -0.8281  0.9269  0.4568
   15DOPE  H11Y 1913   5.938   5.055  13.274  1.8446  0.6103 -0.0680
   15DOPE  C312 1914   6.027   4.971  13.093 -0.2982  0.0989 -0.2238
   15DOPE  H12X 1915   6.126   5.020  13.084  0.7385 -1.8223  0.1990
   15DOPE  H12Y 1916   5.966   5.042  13.034 -1.2474  0.5733  1.2700
   15DOPE  C313 1917   6.025   4.845  13.011 -0.3511  0.1429  0.3142
   15DOPE  H13X 1918   6.106   4.777  13.044 -0.8419 -1.5793 -1.8220
   15DOPE  H13Y 1919   5.928   4.790  13.012 -0.8745  1.0358  1.3181
   15DOPE  C314 1920   6.058   4.871  12.864  0.7030  0.1111  0.0478
   15DOPE  H14X 1921   6.160   4.913  12.853 -0.2584  2.8988  0.8993
   15DOPE  H14Y 1922   5.994   4.947  12.814  0.5993 -0.9960 -1.5935
   15DOPE  C315 1923   6.048   4.739  12.788  0.2622  0.0910 -0.1238
   15DOPE  H15X 1924   5.943   4.705  12.802  0.4232 -0.6256 -0.5767
   15DOPE  H15Y 1925   6.115   4.664  12.836  0.0765 -0.6271 -0.9488
   15DOPE  C316 1926   6.083   4.742  12.636 -0.1828 -0.3825 -0.0601
   15DOPE  H16X 1927   6.192   4.765  12.636 -0.0529 -0.8629  1.6148
   15DOPE  H16Y 1928   6.025   4.824  12.589 -0.2738 -0.5664 -0.2735
   15DOPE  C317 1929   6.052   4.605  12.581  0.0166  0.2828  0.4107
   15DOPE  H17X 1930   6.100   4.529  12.647 -0.4468 -0.6661 -0.3388
   15DOPE  H17Y 1931   5.943   4.587  12.591  0.2408 -2.9245 -1.5294
   15DOPE  C318 1932   6.098   4.583  12.439 -0.3399  0.7669  0.2893
   15DOPE  H18X 1933   6.109   4.479  12.401 -0.2713  1.1685 -0.8302
   15DOPE  H18Y 1934   6.027   4.633  12.370  0.2485 -0.4225 -1.2344
   15DOPE  H18Z 1935   6.199   4.627  12.419 -0.7779  1.8811  0.4512
   16DOPE     N 1936   5.369   6.737  14.748  0.1895 -0.8677 -0.1090
   16DOPE   HN1 1937   5.324   6.830  14.731 -0.3541 -1.2585 -0.9358
   16DOPE   HN2 1938   5.298   6.663  14.764 -1.4832  0.8984  1.1878
   16DOPE   HN3 1939   5.435   6.742  14.828  0.1006 -0.7058 -0.0451
   16DOPE   C12 1940   5.447   6.684  14.629 -0.2883  0.1055 -1.0647
   16DOPE  H12A 1941   5.541   6.744  14.620  0.5014 -0.7180  0.9688
   16DOPE  H12B 1942   5.383   6.694  14.540 -2.8661  2.3101  0.8629
   16DOPE   C11 1943   5.482   6.539  14.649 -0.2966 -0.1893  0.1018
   16DOPE  H11A 1944   5.545   6.541  14.740 -0.6274  4.1372  0.4151
   16DOPE  H11B 1945   5.532   6.493  14.561 -0.3511  0.4650 -0.2741
   16DOPE     P 1946   5.358   6.321  14.717  0.0442  0.6511 -0.1515
   16DOPE   O13 1947   5.235   6.306  14.795 -0.0492  0.5262 -0.0856
   16DOPE   O14 1948   5.484   6.311  14.792  0.0035  0.1627 -0.9301
   16DOPE   O11 1949   5.362   6.219  14.595 -0.8062 -0.2945 -0.3545
   16DOPE   O12 1950   5.357   6.470  14.668  0.5125  0.0521  0.2506
   16DOPE    C1 1951   5.314   6.243  14.461  0.2872  0.4336 -0.2613
   16DOPE    HA 1952   5.236   6.323  14.462 -1.4636 -1.1957  1.6204
   16DOPE    HB 1953   5.260   6.151  14.428  2.1029 -0.5242 -0.6623
   16DOPE    C2 1954   5.430   6.252  14.359 -0.2165  0.0438 -0.6413
   16DOPE    HS 1955   5.489   6.341  14.390  0.5113  0.1838 -2.3647
   16DOPE   O21 1956   5.379   6.270  14.230  0.3552  0.5048  0.2336
   16DOPE   C21 1957   5.318   6.391  14.207 -0.1717 -0.9687  0.5833
   16DOPE   O22 1958   5.311   6.484  14.278 -0.3831 -0.0219  0.1644
   16DOPE   C22 1959   5.266   6.392  14.065  0.2516 -0.1162 -0.1170
   16DOPE   H2R 1960   5.271   6.499  14.038  3.2751 -0.1546 -0.0722
   16DOPE   H2S 1961   5.166   6.344  14.062  0.9670 -1.6883 -0.0147
   16DOPE    C3 1962   5.527   6.124  14.363  0.3223 -0.8695 -0.5307
   16DOPE    HX 1963   5.466   6.034  14.383 -2.0173  0.6330 -0.4943
   16DOPE    HY 1964   5.594   6.132  14.451  0.9945  2.1940 -1.1892
   16DOPE   O31 1965   5.603   6.103  14.243 -0.2329 -0.4190 -0.6723
   16DOPE   C31 1966   5.726   6.149  14.249 -0.8971 -0.1357  1.0042
   16DOPE   O32 1967   5.767   6.236  14.322 -0.4222  0.1034 -0.1964
   16DOPE   C32 1968   5.810   6.078  14.136 -0.4337 -0.1551  0.7655
   16DOPE   H2X 1969   5.915   6.068  14.170  0.2515  1.0983 -0.8434
   16DOPE   H2Y 1970   5.780   5.971  14.139 -0.3307 -0.2339 -0.5872
   16DOPE   C23 1971   5.350   6.317  13.963  0.0036  0.0550 -0.8234
   16DOPE   H3R 1972   5.381   6.214  13.991  2.5858  1.1770  0.7590
   16DOPE   H3S 1973   5.442   6.379  13.962 -1.4519  2.3606 -2.2054
   16DOPE   C24 1974   5.284   6.316  13.826 -0.0147 -0.6101 -0.5494
   16DOPE   H4R 1975   5.196   6.248  13.812  0.5173 -1.1398 -1.4676
   16DOPE   H4S 1976   5.356   6.290  13.746  0.5333 -0.2639 -0.1669
   16DOPE   C25 1977   5.234   6.451  13.776 -0.2541 -0.2299  0.3930
   16DOPE   H5R 1978   5.309   6.531  13.795  0.1163 -0.0960 -1.3892
   16DOPE   H5S 1979   5.141   6.473  13.832 -1.0115 -1.2129 -0.4328
   16DOPE   C26 1980   5.200   6.452  13.620  0.4499  0.2927 -0.2665
   16DOPE   H6R 1981   5.147   6.362  13.581  1.1354  0.1393 -0.8878
   16DOPE   H6S 1982   5.295   6.448  13.562  1.3032 -1.7133  1.1322
   16DOPE   C27 1983   5.122   6.575  13.578  0.4560 -0.3408  0.0819
   16DOPE   H7R 1984   5.153   6.670  13.627  1.6344 -1.0626  0.7616
   16DOPE   H7S 1985   5.011   6.572  13.588  0.5048 -2.5933  0.4129
   16DOPE   C28 1986   5.142   6.587  13.417 -0.1464 -0.0909 -0.4532
   16DOPE   H8R 1987   5.241   6.633  13.394  1.1047 -1.3463  2.0276
   16DOPE   H8S 1988   5.069   6.666  13.388  0.1757  0.7611  0.9560
   16DOPE   C29 1989   5.103   6.464  13.340  0.3076 -1.0604  0.4011
   16DOPE   H9R 1990   5.007   6.420  13.371  0.6283 -0.8376  1.7996
   16DOPE  C210 1991   5.178   6.414  13.240  0.3047  0.0388 -0.2194
   16DOPE  H10R 1992   5.142   6.324  13.188 -1.7640  1.0357 -0.6108
   16DOPE  C211 1993   5.306   6.466  13.171 -0.5986 -0.1116  0.3130
   16DOPE  H11R 1994   5.372   6.380  13.149 -0.4601  0.2538 -0.7446
   16DOPE  H11S 1995   5.361   6.541  13.233 -0.9778  0.3676  0.0769
   16DOPE  C212 1996   5.286   6.556  13.049 -0.1192  0.1834  0.2172
   16DOPE  H12R 1997   5.384   6.597  13.016 -0.0296 -0.6969 -0.6331
   16DOPE  H12S 1998   5.208   6.631  13.079 -1.2889 -2.0426  3.2184
   16DOPE  C213 1999   5.214   6.473  12.938 -0.5642  0.0691  0.0303
   16DOPE  H13R 2000   5.126   6.422  12.982  0.0844 -0.8751  0.2663
   16DOPE  H13S 2001   5.283   6.393  12.902  1.3431  1.6669 -0.0437
   16DOPE  C214 2002   5.172   6.562  12.821 -0.1939  0.3483 -0.4558
   16DOPE  H14R 2003   5.265   6.611  12.785  0.8874 -0.4592  1.1228
   16DOPE  H14S 2004   5.107   6.647  12.851 -0.1187  0.1566  0.2623
   16DOPE  C215 2005   5.092   6.484  12.723  0.0615  0.0477  0.2802
   16DOPE  H15R 2006   5.008   6.434  12.774 -1.1648  1.8609  0.1482
   16DOPE  H15S 2007   5.146   6.401  12.673 -1.7613 -0.3769 -1.0681
   16DOPE  C216 2008   5.033   6.583  12.612 -0.4384 -0.2748 -0.2336
   16DOPE  H16R 2009   4.986   6.670  12.664 -0.6346  0.4592 -1.5920
   16DOPE  H16S 2010   4.965   6.519  12.552 -0.4679 -1.0477  0.6075
   16DOPE  C217 2011   5.141   6.653  12.526  0.6501  0.0912 -0.1303
   16DOPE  H17R 2012   5.208   6.584  12.468  0.9801 -0.2477  0.6445
   16DOPE  H17S 2013   5.207   6.704  12.599  2.5015 -2.5522  0.2021
   16DOPE  C218 2014   5.083   6.760  12.428  0.0827  0.1207  0.1438
   16DOPE  H18R 2015   5.022   6.832  12.487  0.8614  0.2570  0.8131
   16DOPE  H18S 2016   5.019   6.709  12.353  0.5518  0.0957 -0.2446
   16DOPE  H18T 2017   5.168   6.804  12.371 -1.3468  1.1846 -1.2353
   16DOPE   C33 2018   5.775   6.136  13.999 -0.4634  0.4558 -0.6501
   16DOPE   H3X 2019   5.841   6.224  13.980 -1.4099  1.5272  0.7887
   16DOPE   H3Y 2020   5.670   6.170  13.996 -0.5191  0.2504 -1.1139
   16DOPE   C34 2021   5.807   6.039  13.892 -0.5014  0.1140  0.2701
   16DOPE   H4X 2022   5.912   6.004  13.898 -1.0699 -1.7780 -0.3357
   16DOPE   H4Y 2023   5.755   5.942  13.900  0.1681 -0.2321  0.4928
   16DOPE   C35 2024   5.779   6.103  13.754  0.2293 -0.1431  0.0480
   16DOPE   H5X 2025   5.851   6.187  13.742 -1.0383  0.8401 -1.1457
   16DOPE   H5Y 2026   5.679   6.150  13.741  0.7094  1.3367  1.3184
   16DOPE   C36 2027   5.802   5.999  13.649 -0.8328  0.3800 -0.5400
   16DOPE   H6X 2028   5.741   5.909  13.670  2.3799 -1.8038  0.2521
   16DOPE   H6Y 2029   5.909   5.969  13.652 -0.4122  1.8788  0.2715
   16DOPE   C37 2030   5.768   6.045  13.513 -0.2387 -0.1055 -0.0774
   16DOPE   H7X 2031   5.659   6.021  13.510  0.0474 -1.7103  0.9632
   16DOPE   H7Y 2032   5.790   6.153  13.501 -1.2324 -0.1119 -2.3857
   16DOPE   C38 2033   5.847   5.972  13.404 -0.1022 -0.3088 -0.8217
   16DOPE   H8X 2034   5.828   5.865  13.430 -0.7769  0.2479  1.1070
   16DOPE   H8Y 2035   5.954   6.002  13.400 -0.4380  0.8606 -1.1699
   16DOPE   C39 2036   5.788   6.026  13.276  0.0003  0.6449 -0.2606
   16DOPE   H9X 2037   5.815   6.129  13.248  2.9539 -0.0895 -0.5280
   16DOPE  C310 2038   5.722   5.954  13.191  0.3647  0.4781 -0.1293
   16DOPE  H10X 2039   5.684   6.003  13.100  0.4696  0.3941 -0.2192
   16DOPE  C311 2040   5.688   5.806  13.203  0.0878 -0.1703  0.8039
   16DOPE  H11X 2041   5.784   5.749  13.204 -0.0891 -0.7134 -2.6668
   16DOPE  H11Y 2042   5.638   5.790  13.301  1.5410 -2.2571  1.2981
   16DOPE  C312 2043   5.598   5.756  13.084  0.3603  0.2873 -0.7221
   16DOPE  H12X 2044   5.523   5.834  13.059  0.1450  0.1953 -0.3706
   16DOPE  H12Y 2045   5.534   5.676  13.128 -0.6913  1.9566  0.8977
   16DOPE  C313 2046   5.689   5.716  12.969  0.0919  0.4085  0.3861
   16DOPE  H13X 2047   5.774   5.788  12.967 -0.3915  0.9801 -0.0349
   16DOPE  H13Y 2048   5.732   5.618  12.998 -1.2244 -0.1976  0.3870
   16DOPE  C314 2049   5.622   5.706  12.830  0.0801  0.1465 -0.7484
   16DOPE  H14X 2050   5.568   5.798  12.798 -0.8631  0.3418  1.2482
   16DOPE  H14Y 2051   5.550   5.622  12.825 -1.0216  0.9683  0.7489
   16DOPE  C315 2052   5.729   5.696  12.726 -0.0277 -0.4131 -0.3326
   16DOPE  H15X 2053   5.801   5.613  12.744 -0.7751 -0.8485  0.6874
   16DOPE  H15Y 2054   5.785   5.792  12.728 -0.2636 -0.2215  3.2462
   16DOPE  C316 2055   5.677   5.683  12.584 -1.1649 -0.0085  0.2753
   16DOPE  H16X 2056   5.594   5.751  12.554 -1.1727  0.3876  1.1455
   16DOPE  H16Y 2057   5.648   5.577  12.567 -0.7761  0.1546 -1.5809
   16DOPE  C317 2058   5.792   5.715  12.479 -0.0937 -0.4275  0.2613
   16DOPE  H17X 2059   5.820   5.823  12.480  0.6614 -0.6123 -0.0401
   16DOPE  H17Y 2060   5.883   5.661  12.513 -1.8431 -4.1603 -0.5573
   16DOPE  C318 2061   5.752   5.679  12.335  0.6718  0.3354  0.1689
   16DOPE  H18X 2062   5.696   5.766  12.292 -2.1279 -2.4010 -2.2729
   16DOPE  H18Y 2063   5.846   5.674  12.276  0.1015  1.6803 -0.9275
   16DOPE  H18Z 2064   5.696   5.584  12.323  1.2239  0.0708 -0.3541
   17DOPE     N 2065   0.414   2.459  14.607 -0.0448 -0.2184 -0.0371
   17DOPE   HN1 2066   0.362   2.385  14.555  0.6141 -1.6076  1.1971
   17DOPE   HN2 2067   0.346   2.520  14.655  0.4188 -0.5751  1.1051
   17DOPE   HN3 2068   0.464   2.515  14.535  0.2967 -1.8109 -1.0862
   17DOPE   C12 2069   0.527   2.396  14.689 -0.5519  0.2818  0.6184
   17DOPE  H12A 2070   0.471   2.327  14.756  1.7712 -0.8589  1.4749
   17DOPE  H12B 2071   0.592   2.475  14.730  0.6410 -0.7227  0.7227
   17DOPE   C11 2072   0.619   2.296  14.602  0.0365  1.0202 -0.4777
   17DOPE  H11A 2073   0.694   2.248  14.668 -0.3284 -1.1284 -1.5427
   17DOPE  H11B 2074   0.672   2.353  14.524  1.0946 -0.7858 -1.1488
   17DOPE     P 2075   0.592   2.098  14.433 -0.5623  0.0570  0.1174
   17DOPE   O13 2076   0.480   2.014  14.384 -0.0404  0.2547 -0.0185
   17DOPE   O14 2077   0.712   2.032  14.491  0.4820  0.1340  0.3316
   17DOPE   O11 2078   0.635   2.194  14.322  0.0986  0.1673  0.3201
   17DOPE   O12 2079   0.533   2.198  14.544 -0.6077 -0.1172 -0.0462
   17DOPE    C1 2080   0.566   2.299  14.254  0.2292  0.0973 -0.0057
   17DOPE    HA 2081   0.636   2.385  14.244  0.6247  0.3677  3.6704
   17DOPE    HB 2082   0.478   2.335  14.311  0.8962 -0.5460  1.4640
   17DOPE    C2 2083   0.535   2.257  14.104  0.3201 -0.3072 -0.5824
   17DOPE    HS 2084   0.486   2.348  14.060  0.7428  0.1647 -0.0842
   17DOPE   O21 2085   0.450   2.146  14.096  0.5102 -0.0320 -0.1136
   17DOPE   C21 2086   0.329   2.171  14.156  0.0785  0.4720  0.8374
   17DOPE   O22 2087   0.280   2.283  14.175  0.2730  0.2584  0.3631
   17DOPE   C22 2088   0.261   2.039  14.189 -0.8318 -0.7676  0.1334
   17DOPE   H2R 2089   0.209   2.049  14.287  0.6162 -1.7057  1.0392
   17DOPE   H2S 2090   0.330   1.952  14.196 -2.8582 -2.4900 -0.2612
   17DOPE    C3 2091   0.664   2.216  14.034  0.0334  0.5497 -0.8239
   17DOPE    HX 2092   0.695   2.124  14.087 -1.5171  1.3723  1.7093
   17DOPE    HY 2093   0.747   2.289  14.039 -0.3775  1.1672 -2.5025
   17DOPE   O31 2094   0.634   2.187  13.896  0.1944 -0.0048 -0.1036
   17DOPE   C31 2095   0.599   2.295  13.828  0.2701  0.4176  0.0886
   17DOPE   O32 2096   0.632   2.409  13.851 -0.2744 -0.3356 -0.1824
   17DOPE   C32 2097   0.509   2.265  13.707  0.2153  0.0863  0.0407
   17DOPE   H2X 2098   0.571   2.203  13.639 -0.4348 -0.3178 -0.1884
   17DOPE   H2Y 2099   0.421   2.215  13.752  0.3076  0.6184  0.8274
   17DOPE   C23 2100   0.144   1.997  14.103 -0.0922 -0.1687 -0.3476
   17DOPE   H3R 2101   0.061   2.070  14.093 -0.6722 -0.9196 -1.1586
   17DOPE   H3S 2102   0.100   1.907  14.152 -1.3552  0.0330 -1.0620
   17DOPE   C24 2103   0.176   1.970  13.951  0.6770  0.3385 -0.4333
   17DOPE   H4R 2104   0.218   1.868  13.938  1.4044  0.3733  1.3522
   17DOPE   H4S 2105   0.255   2.036  13.909 -0.8708  1.3414 -1.9003
   17DOPE   C25 2106   0.052   2.002  13.858 -1.1204 -0.3509 -0.7204
   17DOPE   H5R 2107   0.036   2.108  13.888 -2.3423 -0.6784 -0.1843
   17DOPE   H5S 2108  -0.036   1.941  13.888 -1.4113 -0.6356 -2.0845
   17DOPE   C26 2109   0.077   1.985  13.713 -0.5101  0.8250  0.0397
   17DOPE   H6R 2110   0.160   2.052  13.683  1.4003 -1.6430 -0.5594
   17DOPE   H6S 2111  -0.021   2.012  13.668  0.0036 -1.3141 -2.6299
   17DOPE   C27 2112   0.094   1.842  13.670 -0.1330  0.0936 -0.3647
   17DOPE   H7R 2113   0.006   1.774  13.668  0.6674 -0.9447 -1.5490
   17DOPE   H7S 2114   0.173   1.789  13.726 -2.8290 -0.7524  2.9961
   17DOPE   C28 2115   0.151   1.835  13.521  0.2616  0.1274 -0.7463
   17DOPE   H8R 2116   0.168   1.729  13.492  1.1621  0.0246  0.1307
   17DOPE   H8S 2117   0.250   1.885  13.533  0.1183 -0.0456  1.6456
   17DOPE   C29 2118   0.071   1.901  13.413 -0.2206  0.0093 -0.8905
   17DOPE   H9R 2119  -0.008   1.972  13.445  0.2131 -0.3563  1.0785
   17DOPE  C210 2120   0.074   1.868  13.280 -0.1398 -0.6106 -0.6938
   17DOPE  H10R 2121   0.017   1.923  13.204  2.6185  0.8666 -1.8358
   17DOPE  C211 2122   0.182   1.777  13.221  0.7070 -0.6697  0.0072
   17DOPE  H11R 2123   0.159   1.672  13.248  0.6978 -0.1357  2.2851
   17DOPE  H11S 2124   0.273   1.808  13.276  0.4419  0.2596 -0.0514
   17DOPE  C212 2125   0.203   1.809  13.072  0.2331  0.0163 -0.0494
   17DOPE  H12R 2126   0.287   1.749  13.031  0.9817  0.6039  0.5935
   17DOPE  H12S 2127   0.234   1.915  13.064 -0.3320  0.0461 -3.0677
   17DOPE  C213 2128   0.074   1.798  12.978  0.5594  0.7941  0.1475
   17DOPE  H13R 2129  -0.020   1.845  13.012 -0.6180 -1.1897 -0.1773
   17DOPE  H13S 2130   0.054   1.689  12.984 -0.8969  1.0911  1.1129
   17DOPE  C214 2131   0.099   1.846  12.837 -0.5177  0.0362 -0.3516
   17DOPE  H14R 2132   0.209   1.842  12.820 -0.0882  0.1899  2.0975
   17DOPE  H14S 2133   0.066   1.951  12.824 -0.0204 -0.0134 -2.3696
   17DOPE  C215 2134   0.019   1.754  12.736  0.1442  0.4181  0.5033
   17DOPE  H15R 2135  -0.044   1.681  12.790 -0.2147  0.4049  0.0761
   17DOPE  H15S 2136   0.093   1.696  12.677  1.0169  2.6955 -0.7787
   17DOPE  C216 2137  -0.068   1.822  12.633 -0.2982 -0.5061 -0.3142
   17DOPE  H16R 2138  -0.008   1.889  12.567  0.2843 -0.6199  0.0923
   17DOPE  H16S 2139  -0.145   1.883  12.683  0.4932 -0.2030  0.5780
   17DOPE  C217 2140  -0.144   1.727  12.542 -0.3204  0.5750 -0.6429
   17DOPE  H17R 2141  -0.188   1.655  12.615 -0.0549 -1.7040 -2.5930
   17DOPE  H17S 2142  -0.088   1.665  12.469 -3.7201 -0.3139 -2.7071
   17DOPE  C218 2143  -0.261   1.793  12.462 -0.5442 -0.6631  0.1958
   17DOPE  H18R 2144  -0.347   1.824  12.526  0.8864  1.4182  1.2149
   17DOPE  H18S 2145  -0.296   1.718  12.388 -1.3622  1.2266 -1.4139
   17DOPE  H18T 2146  -0.219   1.882  12.411  1.7201 -2.4855 -1.3162
   17DOPE   C33 2147   0.455   2.394  13.635 -0.0857  0.4229  0.8903
   17DOPE   H3X 2148   0.539   2.467  13.626 -1.6315  2.1766  0.1570
   17DOPE   H3Y 2149   0.371   2.438  13.692 -1.3448 -0.5347 -0.1545
   17DOPE   C34 2150   0.405   2.361  13.490  0.7042  0.7350 -0.0948
   17DOPE   H4X 2151   0.476   2.301  13.429 -1.9915 -0.4365 -2.2349
   17DOPE   H4Y 2152   0.316   2.296  13.501  1.4269 -0.4121 -0.8214
   17DOPE   C35 2153   0.356   2.482  13.405 -0.0672  0.1058 -0.0717
   17DOPE   H5X 2154   0.437   2.549  13.370 -0.6009  1.0558  0.4896
   17DOPE   H5Y 2155   0.297   2.548  13.471  0.9645  1.4419 -0.4440
   17DOPE   C36 2156   0.272   2.446  13.284  0.9378 -0.2489 -0.0613
   17DOPE   H6X 2157   0.243   2.543  13.239  0.6461 -0.2330  0.1577
   17DOPE   H6Y 2158   0.182   2.395  13.326  0.5103  1.8013  1.7122
   17DOPE   C37 2159   0.351   2.373  13.184  0.0301 -0.5216  0.8977
   17DOPE   H7X 2160   0.425   2.429  13.122  0.1729  1.2813  2.6065
   17DOPE   H7Y 2161   0.412   2.298  13.238 -3.1572 -1.1592  4.0060
   17DOPE   C38 2162   0.261   2.295  13.085  0.2162  0.4256 -0.1658
   17DOPE   H8X 2163   0.188   2.225  13.134 -0.5190  0.8017 -0.7070
   17DOPE   H8Y 2164   0.325   2.220  13.035 -0.9809  0.0212 -1.1465
   17DOPE   C39 2165   0.180   2.390  12.991 -0.6032 -0.1591 -0.3328
   17DOPE   H9X 2166   0.106   2.453  13.043  0.5685  2.0701 -1.2287
   17DOPE  C310 2167   0.201   2.419  12.864  0.6356  0.8462  0.3360
   17DOPE  H10X 2168   0.141   2.498  12.815 -2.3823 -1.4367  0.0519
   17DOPE  C311 2169   0.312   2.359  12.784 -0.0164 -0.2420  0.0604
   17DOPE  H11X 2170   0.391   2.435  12.766 -0.9083  0.4101 -1.3455
   17DOPE  H11Y 2171   0.355   2.268  12.831  3.0772  1.6072  1.0937
   17DOPE  C312 2172   0.256   2.322  12.646  0.1426  0.4494  0.6976
   17DOPE  H12X 2173   0.333   2.281  12.578  0.2115  1.3480  0.2226
   17DOPE  H12Y 2174   0.204   2.406  12.595  0.9461 -0.0256 -0.9769
   17DOPE  C313 2175   0.157   2.204  12.650  0.0728 -0.1396  0.1684
   17DOPE  H13X 2176   0.212   2.124  12.704 -0.0627 -0.8263 -0.6930
   17DOPE  H13Y 2177   0.069   2.232  12.711 -0.7118 -2.3498  0.1350
   17DOPE  C314 2178   0.095   2.153  12.516 -0.3370 -0.1807  0.6429
   17DOPE  H14X 2179  -0.013   2.144  12.535 -1.1765 -0.2679 -3.2548
   17DOPE  H14Y 2180   0.133   2.052  12.492  0.8343 -0.2223  2.4551
   17DOPE  C315 2181   0.121   2.244  12.387  0.7364  0.6834 -0.3833
   17DOPE  H15X 2182   0.227   2.277  12.382  0.4813  1.5693 -0.0050
   17DOPE  H15Y 2183   0.050   2.328  12.399 -1.6405 -1.4596  2.0125
   17DOPE  C316 2184   0.103   2.183  12.246  0.4518  0.4255  0.3613
   17DOPE  H16X 2185   0.193   2.121  12.226 -0.1631 -0.2647 -0.3116
   17DOPE  H16Y 2186   0.102   2.272  12.179 -1.2183 -0.4498 -0.8381
   17DOPE  C317 2187  -0.014   2.089  12.228 -0.4292  0.0397  0.1678
   17DOPE  H17X 2188  -0.018   2.007  12.303 -2.2953  0.1138  0.1922
   17DOPE  H17Y 2189  -0.106   2.151  12.236 -1.5967 -1.8036  1.9603
   17DOPE  C318 2190  -0.000   2.023  12.088  0.1404  1.0795  0.3368
   17DOPE  H18X 2191  -0.097   1.977  12.058  0.8565  1.3200 -2.5953
   17DOPE  H18Y 2192   0.028   2.101  12.014 -1.6691  0.8133 -0.6909
   17DOPE  H18Z 2193   0.075   1.942  12.085 -0.3438  0.6591 -0.8727
   18DOPE     N 2194   4.334   6.044  14.577  0.3236  0.2254 -0.5843
   18DOPE   HN1 2195   4.367   6.120  14.640 -1.5099 -0.1860  0.9685
   18DOPE   HN2 2196   4.357   6.078  14.481  0.8458 -0.0223 -0.5484
   18DOPE   HN3 2197   4.232   6.026  14.582  0.4492 -0.0381  1.8073
   18DOPE   C12 2198   4.425   5.930  14.605 -0.4074  0.5682  0.1580
   18DOPE  H12A 2199   4.384   5.847  14.543 -1.9438 -0.3489  2.2977
   18DOPE  H12B 2200   4.403   5.890  14.706 -1.0470 -0.4374 -0.3650
   18DOPE   C11 2201   4.569   5.954  14.571  0.1306  0.0882 -0.8292
   18DOPE  H11A 2202   4.586   5.957  14.461  1.7011  0.5443 -0.5918
   18DOPE  H11B 2203   4.625   5.863  14.602 -1.4727 -1.1820 -1.4641
   18DOPE     P 2204   4.732   6.091  14.741 -0.0824  0.2070  0.1033
   18DOPE   O13 2205   4.742   5.969  14.817 -0.1217 -0.3443 -0.2298
   18DOPE   O14 2206   4.712   6.212  14.819  0.1874 -0.1421 -0.0860
   18DOPE   O11 2207   4.865   6.108  14.660 -0.1008  0.2988 -0.2226
   18DOPE   O12 2208   4.622   6.076  14.623  0.3130 -0.0049 -0.1302
   18DOPE    C1 2209   4.880   6.223  14.572 -1.1349 -0.3062 -0.0645
   18DOPE    HA 2210   4.989   6.245  14.580 -0.3913 -3.1186 -1.0602
   18DOPE    HB 2211   4.815   6.309  14.596 -1.7462 -0.8860  0.4160
   18DOPE    C2 2212   4.865   6.187  14.417 -0.4136 -0.0093 -0.2990
   18DOPE    HS 2213   4.760   6.154  14.400  0.1065 -1.9434 -0.0695
   18DOPE   O21 2214   4.958   6.076  14.395 -0.1024  0.3066 -0.1021
   18DOPE   C21 2215   4.918   5.973  14.333  0.0713 -0.1171 -0.0827
   18DOPE   O22 2216   4.806   5.965  14.280 -0.5980 -0.0904  0.8163
   18DOPE   C22 2217   5.024   5.870  14.332 -0.4339  0.5101  0.7392
   18DOPE   H2R 2218   4.976   5.773  14.360  0.3075 -0.8967 -2.4230
   18DOPE   H2S 2219   5.093   5.887  14.418  0.9243 -0.2331 -0.1555
   18DOPE    C3 2220   4.903   6.301  14.322  0.4536 -0.1093  0.4036
   18DOPE    HX 2221   5.005   6.340  14.341  0.0279  0.2784  2.1026
   18DOPE    HY 2222   4.830   6.380  14.351  0.7559  0.9480 -1.5698
   18DOPE   O31 2223   4.887   6.260  14.190  0.0905  0.2801  0.1961
   18DOPE   C31 2224   4.769   6.247  14.140  0.8292  0.1622 -0.2131
   18DOPE   O32 2225   4.666   6.278  14.197 -0.0857 -0.4767  0.0187
   18DOPE   C32 2226   4.773   6.207  13.989  0.1873  0.1654  0.7484
   18DOPE   H2X 2227   4.735   6.103  13.990  1.6484 -0.4462 -1.0943
   18DOPE   H2Y 2228   4.696   6.268  13.937 -1.2634 -2.2288 -0.0604
   18DOPE   C23 2229   5.086   5.853  14.193  0.9783 -0.2569  0.1157
   18DOPE   H3R 2230   5.015   5.822  14.114  0.1846  1.6413  0.0295
   18DOPE   H3S 2231   5.146   5.760  14.206 -0.7533 -1.3154  0.9005
   18DOPE   C24 2232   5.173   5.969  14.153 -0.1317 -0.8581  1.0746
   18DOPE   H4R 2233   5.208   6.028  14.240  3.2376  0.3635 -0.9283
   18DOPE   H4S 2234   5.116   6.046  14.097  1.0179  0.0826  1.1615
   18DOPE   C25 2235   5.296   5.942  14.058 -0.2812  0.2361 -0.3282
   18DOPE   H5R 2236   5.333   5.844  14.095  0.3621  0.3546 -0.6436
   18DOPE   H5S 2237   5.380   6.012  14.079 -0.6537  0.1307  1.7194
   18DOPE   C26 2238   5.252   5.932  13.912  0.4682 -0.2702  0.4263
   18DOPE   H6R 2239   5.180   6.010  13.879  1.0808  0.1192 -0.0137
   18DOPE   H6S 2240   5.196   5.837  13.917  0.6679 -0.3646  0.8613
   18DOPE   C27 2241   5.374   5.939  13.826 -0.0233  0.1267  0.3891
   18DOPE   H7R 2242   5.466   5.893  13.869  1.5785  0.7189 -2.1923
   18DOPE   H7S 2243   5.403   6.045  13.816  2.2155 -0.6084 -2.4391
   18DOPE   C28 2244   5.363   5.887  13.681  0.9973 -0.3957 -0.1435
   18DOPE   H8R 2245   5.348   5.777  13.677  1.0025 -0.4303  0.6981
   18DOPE   H8S 2246   5.465   5.907  13.641  1.4342  0.9469  1.5349
   18DOPE   C29 2247   5.251   5.960  13.605  0.6649  0.4452  0.1123
   18DOPE   H9R 2248   5.156   5.971  13.660  0.2530  0.9897 -0.6993
   18DOPE  C210 2249   5.249   5.982  13.474 -0.2036  0.0019  0.1386
   18DOPE  H10R 2250   5.159   6.012  13.418  0.8344  0.3109 -1.4349
   18DOPE  C211 2251   5.361   5.954  13.378 -0.6412 -0.3651  0.5861
   18DOPE  H11R 2252   5.384   5.845  13.377  1.3524  0.0145 -0.3704
   18DOPE  H11S 2253   5.458   6.000  13.405  0.5384 -0.5871 -2.7408
   18DOPE  C212 2254   5.320   6.012  13.237 -0.2758  0.3122  0.2383
   18DOPE  H12R 2255   5.411   6.006  13.173 -0.7776 -2.2978 -0.3530
   18DOPE  H12S 2256   5.294   6.120  13.242  1.4411  0.8804 -1.8388
   18DOPE  C213 2257   5.215   5.925  13.176  0.3804 -0.4083 -0.4071
   18DOPE  H13R 2258   5.113   5.931  13.218  0.2762 -2.2271 -0.3239
   18DOPE  H13S 2259   5.245   5.818  13.177  0.7071 -0.3207 -0.5580
   18DOPE  C214 2260   5.174   5.954  13.028  0.3243 -0.4761  0.7137
   18DOPE  H14R 2261   5.170   6.060  12.998 -1.0679 -0.7200 -0.0103
   18DOPE  H14S 2262   5.071   5.919  13.007  1.2735 -1.6396 -2.6485
   18DOPE  C215 2263   5.264   5.882  12.924  0.0069 -0.8355 -0.2093
   18DOPE  H15R 2264   5.308   5.798  12.982  0.7946 -0.1553  0.2002
   18DOPE  H15S 2265   5.345   5.955  12.905 -2.4891  1.3501 -3.6743
   18DOPE  C216 2266   5.186   5.860  12.796 -0.2142  0.7764 -0.1725
   18DOPE  H16R 2267   5.138   5.954  12.759 -0.6951 -0.7384 -3.9176
   18DOPE  H16S 2268   5.105   5.785  12.813 -0.7792  1.6969  1.3683
   18DOPE  C217 2269   5.277   5.821  12.681 -0.1580 -0.0315 -0.1331
   18DOPE  H17R 2270   5.331   5.725  12.698  0.3570  0.6651  2.7636
   18DOPE  H17S 2271   5.354   5.897  12.658 -0.8740  0.9732  0.7055
   18DOPE  C218 2272   5.194   5.793  12.556  0.0257 -0.0176 -0.5296
   18DOPE  H18R 2273   5.122   5.711  12.579  0.0556 -0.4010 -1.7190
   18DOPE  H18S 2274   5.259   5.758  12.472 -1.6326 -0.1089 -1.8356
   18DOPE  H18T 2275   5.145   5.881  12.510 -0.7014 -0.8646 -1.4366
   18DOPE   C33 2276   4.910   6.205  13.928  0.4993 -0.7062  0.3685
   18DOPE   H3X 2277   4.982   6.150  13.992 -1.3364 -1.1999  2.1472
   18DOPE   H3Y 2278   4.949   6.308  13.912  0.6249 -1.1536 -2.9711
   18DOPE   C34 2279   4.900   6.138  13.793  0.0748 -0.6735  0.6174
   18DOPE   H4X 2280   5.006   6.130  13.760  0.2056  1.4625  0.4428
   18DOPE   H4Y 2281   4.856   6.036  13.801 -1.6613 -0.0241 -0.1673
   18DOPE   C35 2282   4.833   6.212  13.679  0.2954  0.3469 -0.6456
   18DOPE   H5X 2283   4.867   6.316  13.696 -0.0981  0.2063  1.2213
   18DOPE   H5Y 2284   4.726   6.230  13.701  0.3299 -0.5707  0.3593
   18DOPE   C36 2285   4.871   6.154  13.544  0.3894 -0.3520  0.1455
   18DOPE   H6X 2286   4.845   6.046  13.538  1.7689 -0.7549  0.9563
   18DOPE   H6Y 2287   4.982   6.162  13.539  0.3205  1.1526  0.4399
   18DOPE   C37 2288   4.802   6.226  13.425  0.4984 -0.2731  0.1644
   18DOPE   H7X 2289   4.692   6.217  13.438  0.1317  2.1398 -0.7662
   18DOPE   H7Y 2290   4.814   6.336  13.436  1.3378 -0.4093  0.7812
   18DOPE   C38 2291   4.860   6.178  13.292 -0.7463 -0.5589 -0.0214
   18DOPE   H8X 2292   4.856   6.068  13.283 -0.6090 -0.5212 -0.6551
   18DOPE   H8Y 2293   4.970   6.194  13.292 -0.6104 -1.2108 -2.1862
   18DOPE   C39 2294   4.802   6.249  13.177 -0.1495  0.2164  0.1485
   18DOPE   H9X 2295   4.775   6.353  13.200  2.2251  0.8641  0.3347
   18DOPE  C310 2296   4.783   6.202  13.048 -0.0247 -0.5322 -0.2036
   18DOPE  H10X 2297   4.735   6.272  12.977  1.5191  2.0335  1.1321
   18DOPE  C311 2298   4.822   6.065  13.004 -0.1788  0.5555  0.0076
   18DOPE  H11X 2299   4.896   6.006  13.062  0.7741 -0.8400 -2.4624
   18DOPE  H11Y 2300   4.727   6.008  13.003 -0.5971  1.1886  1.4170
   18DOPE  C312 2301   4.897   6.090  12.872  0.7437  0.6247 -0.2069
   18DOPE  H12X 2302   4.929   5.988  12.841  0.9814 -0.1689  2.3845
   18DOPE  H12Y 2303   4.993   6.144  12.886  1.6314 -0.6204 -1.1964
   18DOPE  C313 2304   4.815   6.157  12.763  0.6015  0.0999 -0.0941
   18DOPE  H13X 2305   4.712   6.122  12.783  0.1572  1.3491 -0.0672
   18DOPE  H13Y 2306   4.819   6.268  12.770  0.1415  0.1807 -0.9449
   18DOPE  C314 2307   4.871   6.120  12.620 -0.3222  0.5163 -0.0529
   18DOPE  H14X 2308   4.982   6.113  12.623 -0.2816  0.3744 -1.1943
   18DOPE  H14Y 2309   4.844   6.207  12.557  3.0109  0.7382 -1.4035
   18DOPE  C315 2310   4.800   5.998  12.562  0.2614  0.0999 -0.5326
   18DOPE  H15X 2311   4.691   6.022  12.570  0.2788 -0.3368  1.4653
   18DOPE  H15Y 2312   4.820   5.909  12.624  2.9498  1.0418  0.0906
   18DOPE  C316 2313   4.846   5.961  12.418  0.0409 -0.4418 -0.6122
   18DOPE  H16X 2314   4.957   5.947  12.423  0.0152 -0.1297  1.8236
   18DOPE  H16Y 2315   4.846   6.044  12.344  1.7450  3.0334  2.8885
   18DOPE  C317 2316   4.788   5.834  12.364 -0.3049  0.3546  0.0159
   18DOPE  H17X 2317   4.839   5.807  12.269 -1.8528  0.1983 -0.7961
   18DOPE  H17Y 2318   4.815   5.753  12.433 -0.6056  0.7660  0.6249
   18DOPE  C318 2319   4.644   5.844  12.326 -0.1223  0.7674 -0.5366
   18DOPE  H18X 2320   4.582   5.872  12.414 -0.6936  2.3130 -1.3919
   18DOPE  H18Y 2321   4.616   5.926  12.256  0.8645  1.0503 -0.6111
   18DOPE  H18Z 2322   4.608   5.748  12.284  0.1416  0.6267 -0.4387
   19DOPE     N 2323   4.781   0.748  14.376 -0.2165  0.4761  0.4814
   19DOPE   HN1 2324   4.778   0.851  14.389 -2.0093  0.3990  0.9643
   19DOPE   HN2 2325   4.805   0.725  14.278 -1.6423 -2.2274  0.6940
   19DOPE   HN3 2326   4.685   0.711  14.390  0.8245 -2.2002  1.1183
   19DOPE   C12 2327   4.897   0.689  14.454  0.0801  0.2336 -0.9358
   19DOPE  H12A 2328   4.875   0.703  14.562  1.5281 -3.6887  0.0416
   19DOPE  H12B 2329   4.983   0.758  14.438  0.4226 -0.5708 -2.8154
   19DOPE   C11 2330   4.926   0.541  14.426  0.4937  0.4144  0.1593
   19DOPE  H11A 2331   4.843   0.480  14.468  0.5251 -0.8732 -1.5118
   19DOPE  H11B 2332   5.018   0.509  14.479  0.3728  1.5050  1.0630
   19DOPE     P 2333   5.015   0.386  14.234 -0.3410  0.2945 -0.1027
   19DOPE   O13 2334   5.036   0.299  14.357  0.3383  0.3985  0.3402
   19DOPE   O14 2335   5.136   0.427  14.168 -0.2583 -0.4217  0.0163
   19DOPE   O11 2336   4.929   0.310  14.130 -0.3143 -0.2647 -0.5638
   19DOPE   O12 2337   4.932   0.511  14.285  0.1446 -0.3407 -0.2466
   19DOPE    C1 2338   4.845   0.384  14.041  0.9975  0.2455  0.0592
   19DOPE    HA 2339   4.825   0.488  14.074 -0.1061  0.2538 -0.5888
   19DOPE    HB 2340   4.743   0.339  14.039  0.9124  0.4469 -0.4778
   19DOPE    C2 2341   4.892   0.406  13.896  0.0656  0.0885 -0.3059
   19DOPE    HS 2342   4.956   0.496  13.903  1.4139 -0.9018  0.7738
   19DOPE   O21 2343   4.781   0.410  13.810  0.0481 -0.2388  0.5133
   19DOPE   C21 2344   4.715   0.524  13.792 -1.1506  0.0383 -0.1836
   19DOPE   O22 2345   4.732   0.617  13.868 -0.5478 -0.0501 -0.1492
   19DOPE   C22 2346   4.632   0.520  13.664 -0.1897 -0.0614  0.2573
   19DOPE   H2R 2347   4.552   0.597  13.663 -1.1284 -1.0143 -1.0274
   19DOPE   H2S 2348   4.582   0.421  13.659  0.9038 -0.5448 -2.5823
   19DOPE    C3 2349   4.987   0.293  13.856 -0.5854  0.0473 -0.0208
   19DOPE    HX 2350   4.922   0.202  13.854 -0.0387 -0.3444 -0.1202
   19DOPE    HY 2351   5.063   0.281  13.936  0.0377  2.2310 -0.2403
   19DOPE   O31 2352   5.043   0.317  13.724 -0.0473 -0.5015 -0.1539
   19DOPE   C31 2353   5.114   0.217  13.678  0.1412 -0.1466 -0.7874
   19DOPE   O32 2354   5.139   0.116  13.740 -0.1678  0.0296  0.4287
   19DOPE   C32 2355   5.149   0.237  13.533  0.0145  0.8020  0.1626
   19DOPE   H2X 2356   5.255   0.206  13.518 -0.3185 -0.2030 -0.2320
   19DOPE   H2Y 2357   5.088   0.166  13.473  1.0292 -1.2097  1.4004
   19DOPE   C23 2358   4.715   0.533  13.531  0.2774 -0.0132  0.1348
   19DOPE   H3R 2359   4.791   0.452  13.535 -0.3252 -0.5239  2.3453
   19DOPE   H3S 2360   4.766   0.632  13.535 -2.8336  1.6880  1.1752
   19DOPE   C24 2361   4.636   0.536  13.403  0.6823  0.1004  0.2607
   19DOPE   H4R 2362   4.567   0.623  13.404 -2.6742 -2.3594  1.0291
   19DOPE   H4S 2363   4.572   0.445  13.398  1.1083 -0.1784 -0.3607
   19DOPE   C25 2364   4.707   0.570  13.268  0.7085  0.1109  0.0593
   19DOPE   H5R 2365   4.789   0.500  13.240 -0.8135 -1.2868 -1.1662
   19DOPE   H5S 2366   4.755   0.670  13.274  0.4932  0.1465  1.5604
   19DOPE   C26 2367   4.604   0.566  13.146  0.3114 -0.1782 -0.5749
   19DOPE   H6R 2368   4.506   0.609  13.177  1.6326  2.4849  0.2279
   19DOPE   H6S 2369   4.587   0.459  13.120 -0.0251  0.5024 -3.5501
   19DOPE   C27 2370   4.678   0.640  13.030 -0.1773  0.0343 -0.2786
   19DOPE   H7R 2371   4.779   0.598  13.047 -0.5461 -0.4919  0.6491
   19DOPE   H7S 2372   4.674   0.750  13.048  0.4509 -0.3442  2.6059
   19DOPE   C28 2373   4.620   0.591  12.898  0.3165 -0.1051 -0.3871
   19DOPE   H8R 2374   4.517   0.631  12.888  0.6983  1.4373  1.4017
   19DOPE   H8S 2375   4.619   0.480  12.903 -1.7067 -0.0688  1.2280
   19DOPE   C29 2376   4.702   0.635  12.788 -0.4547  0.2005  0.3920
   19DOPE   H9R 2377   4.811   0.625  12.801 -0.0451 -0.9323 -2.9593
   19DOPE  C210 2378   4.663   0.632  12.660  0.3214 -0.2576  0.4650
   19DOPE  H10R 2379   4.740   0.647  12.582 -0.1986 -0.1467 -0.0349
   19DOPE  C211 2380   4.517   0.617  12.620  0.4124 -0.0355  0.0598
   19DOPE  H11R 2381   4.460   0.686  12.687  2.4104  0.7098  1.0729
   19DOPE  H11S 2382   4.474   0.517  12.643 -1.0518  0.5080 -0.1890
   19DOPE  C212 2383   4.485   0.665  12.473 -0.4919 -0.6018 -0.5870
   19DOPE  H12R 2384   4.543   0.757  12.449 -1.7079  0.8432  1.6554
   19DOPE  H12S 2385   4.379   0.697  12.471 -0.0390  0.9498 -1.8208
   19DOPE  C213 2386   4.510   0.568  12.358 -1.4026  0.1982 -0.1392
   19DOPE  H13R 2387   4.439   0.574  12.273  1.0966  0.8450 -2.3411
   19DOPE  H13S 2388   4.515   0.464  12.399  1.1655  0.2540 -0.1333
   19DOPE  C214 2389   4.646   0.595  12.285  0.0353 -0.4022 -0.0941
   19DOPE  H14R 2390   4.723   0.565  12.360 -1.0790 -2.5308  0.2922
   19DOPE  H14S 2391   4.652   0.701  12.253 -1.6223 -0.5025 -0.7887
   19DOPE  C215 2392   4.666   0.527  12.143 -0.5180 -0.0459 -0.1941
   19DOPE  H15R 2393   4.749   0.587  12.098  1.3126  0.1751  3.1311
   19DOPE  H15S 2394   4.572   0.529  12.086 -1.0906 -0.6625  0.7026
   19DOPE  C216 2395   4.715   0.384  12.152 -0.1310 -0.2567  0.2050
   19DOPE  H16R 2396   4.673   0.326  12.067 -1.4503 -1.7282  1.8022
   19DOPE  H16S 2397   4.678   0.332  12.243  1.4464 -1.3748  0.2352
   19DOPE  C217 2398   4.869   0.369  12.137 -0.7724  0.4634  0.1848
   19DOPE  H17R 2399   4.913   0.441  12.210  1.6925 -0.7895  0.0454
   19DOPE  H17S 2400   4.896   0.400  12.034  0.6565  0.2275  0.4704
   19DOPE  C218 2401   4.935   0.229  12.161  0.2927 -0.3795 -0.0665
   19DOPE  H18R 2402   4.881   0.174  12.241  1.1050 -0.6413  0.3150
   19DOPE  H18S 2403   5.039   0.227  12.201 -0.6494 -2.6877  2.6101
   19DOPE  H18T 2404   4.938   0.151  12.082  0.2352 -0.5662  0.1136
   19DOPE   C33 2405   5.143   0.382  13.485 -0.8284  0.3095 -0.6804
   19DOPE   H3X 2406   5.200   0.444  13.558  0.6080 -0.7542 -0.8431
   19DOPE   H3Y 2407   5.034   0.400  13.495 -1.5449 -3.3326 -0.3618
   19DOPE   C34 2408   5.201   0.403  13.348 -0.1510 -0.3234 -0.2260
   19DOPE   H4X 2409   5.191   0.504  13.304 -0.4877 -0.7643 -1.1891
   19DOPE   H4Y 2410   5.311   0.389  13.340 -0.0858 -0.8173  1.2247
   19DOPE   C35 2411   5.119   0.316  13.252  0.0616  0.5295 -0.1132
   19DOPE   H5X 2412   5.012   0.336  13.271  0.3467  2.0007  0.0979
   19DOPE   H5Y 2413   5.137   0.207  13.269 -1.3744  0.1470 -0.8922
   19DOPE   C36 2414   5.140   0.343  13.099  0.3987  0.4543  0.2536
   19DOPE   H6X 2415   5.120   0.449  13.073 -0.0101  0.1195 -0.8670
   19DOPE   H6Y 2416   5.055   0.291  13.049 -0.4894  4.0910 -2.3892
   19DOPE   C37 2417   5.282   0.296  13.048  0.5831  0.7289 -0.1601
   19DOPE   H7X 2418   5.359   0.366  13.086  1.9429  0.0610 -1.5694
   19DOPE   H7Y 2419   5.299   0.195  13.092  0.0642  0.5398 -0.3910
   19DOPE   C38 2420   5.291   0.283  12.893  0.1650  0.1939 -0.2200
   19DOPE   H8X 2421   5.394   0.243  12.878 -0.2056 -2.3420  2.9659
   19DOPE   H8Y 2422   5.289   0.386  12.853 -0.7910 -0.6583 -2.5252
   19DOPE   C39 2423   5.190   0.213  12.815  0.4773 -0.4814  0.2861
   19DOPE   H9X 2424   5.176   0.111  12.852  0.3291 -0.0852  1.3544
   19DOPE  C310 2425   5.110   0.277  12.721 -0.3439 -0.2077  0.2916
   19DOPE  H10X 2426   5.065   0.205  12.651  3.4118 -2.7026  0.1477
   19DOPE  C311 2427   5.107   0.417  12.670 -0.1792  0.3029  1.0080
   19DOPE  H11X 2428   5.002   0.453  12.668  0.3496  1.8743 -0.2850
   19DOPE  H11Y 2429   5.158   0.490  12.737  1.9371 -1.1601  1.1086
   19DOPE  C312 2430   5.143   0.434  12.522  0.5786  0.3480 -0.4233
   19DOPE  H12X 2431   5.122   0.344  12.461  1.3992  0.0565 -0.2999
   19DOPE  H12Y 2432   5.254   0.447  12.522  0.7999 -1.4073 -0.4203
   19DOPE  C313 2433   5.077   0.557  12.463 -0.5181  0.2329 -0.0061
   19DOPE  H13X 2434   4.970   0.528  12.453 -0.7408  0.1420  2.1623
   19DOPE  H13Y 2435   5.084   0.644  12.532 -1.8664  0.2657  0.1149
   19DOPE  C314 2436   5.139   0.591  12.323  0.7661  0.6563 -0.0385
   19DOPE  H14X 2437   5.113   0.502  12.261 -2.6696  1.9738 -0.7277
   19DOPE  H14Y 2438   5.247   0.604  12.341  1.1192 -2.8120  0.9970
   19DOPE  C315 2439   5.065   0.707  12.260  0.7913 -0.3869 -1.0794
   19DOPE  H15X 2440   5.042   0.785  12.336  1.1930  0.2050 -1.5556
   19DOPE  H15Y 2441   4.962   0.675  12.235  0.7412 -0.8523 -0.3169
   19DOPE  C316 2442   5.136   0.761  12.138 -0.9189  0.3882  0.6137
   19DOPE  H16X 2443   5.240   0.788  12.167 -0.4681  1.6382 -1.8930
   19DOPE  H16Y 2444   5.090   0.854  12.098  1.5731  1.3132 -0.3021
   19DOPE  C317 2445   5.149   0.654  12.029 -0.3552 -0.0461  0.7468
   19DOPE  H17X 2446   5.216   0.580  12.078 -1.4147  0.0330  2.3895
   19DOPE  H17Y 2447   5.046   0.615  12.018 -0.0825 -0.7291  0.5690
   19DOPE  C318 2448   5.207   0.702  11.889 -0.0350  0.2084  0.1976
   19DOPE  H18X 2449   5.115   0.724  11.831 -1.1753 -2.7328  0.7147
   19DOPE  H18Y 2450   5.283   0.783  11.893 -0.4633  0.6762 -0.8577
   19DOPE  H18Z 2451   5.263   0.610  11.862  0.1681 -0.2466  2.0362
   20DOPE     N 2452   2.586   3.266  14.770 -0.3598  0.0901  0.6920
   20DOPE   HN1 2453   2.492   3.281  14.811 -0.8686  0.4888 -0.5683
   20DOPE   HN2 2454   2.655   3.256  14.847 -0.9754 -0.5634  1.1616
   20DOPE   HN3 2455   2.602   3.364  14.737  0.3963 -0.4763 -0.6975
   20DOPE   C12 2456   2.584   3.161  14.654 -0.1275 -0.1216  0.2066
   20DOPE  H12A 2457   2.688   3.148  14.616  0.2673  1.1010  0.8245
   20DOPE  H12B 2458   2.519   3.194  14.570  2.3410  2.7935 -0.7345
   20DOPE   C11 2459   2.537   3.029  14.718 -0.1687 -0.4456 -0.6681
   20DOPE  H11A 2460   2.518   2.957  14.635 -0.5738 -2.1581  0.8622
   20DOPE  H11B 2461   2.446   3.050  14.779  0.7779 -0.5147  0.8032
   20DOPE     P 2462   2.636   2.844  14.880  0.1903  0.7050  0.0411
   20DOPE   O13 2463   2.603   2.873  15.020  0.1636  0.2867 -0.1975
   20DOPE   O14 2464   2.761   2.767  14.856 -0.3362 -0.0594 -0.5807
   20DOPE   O11 2465   2.520   2.764  14.814 -0.0702  0.4720 -0.2808
   20DOPE   O12 2466   2.639   2.976  14.800  0.0358  0.2633 -0.6230
   20DOPE    C1 2467   2.516   2.628  14.805 -0.1096  0.0152  0.5871
   20DOPE    HA 2468   2.411   2.600  14.828 -0.2379  0.7975  0.9638
   20DOPE    HB 2469   2.585   2.585  14.881  1.0581  2.7770  1.1755
   20DOPE    C2 2470   2.556   2.572  14.663 -0.3526 -0.0131  0.6060
   20DOPE    HS 2471   2.663   2.590  14.643 -1.0554  1.2555 -2.7092
   20DOPE   O21 2472   2.491   2.644  14.559  0.1993  0.3198 -0.6603
   20DOPE   C21 2473   2.360   2.638  14.551  0.0069 -0.3102  0.6306
   20DOPE   O22 2474   2.279   2.573  14.615 -0.1490 -0.0266  0.7181
   20DOPE   C22 2475   2.328   2.721  14.424  0.0210 -0.0581 -0.0800
   20DOPE   H2R 2476   2.395   2.807  14.402  0.4410 -0.5774 -0.8437
   20DOPE   H2S 2477   2.227   2.768  14.425 -0.0803 -0.2707 -0.3151
   20DOPE    C3 2478   2.548   2.410  14.651 -0.1418 -1.0192  0.4992
   20DOPE    HX 2479   2.446   2.378  14.681 -0.1422 -0.1603  1.4394
   20DOPE    HY 2480   2.616   2.363  14.725  1.2884  1.5039  0.9242
   20DOPE   O31 2481   2.565   2.372  14.510 -0.0531  0.6756  0.0672
   20DOPE   C31 2482   2.692   2.377  14.468 -0.2244 -0.4069  0.3959
   20DOPE   O32 2483   2.788   2.383  14.541  0.6099 -0.1781  0.3691
   20DOPE   C32 2484   2.696   2.390  14.313  0.0021  0.0683  0.2349
   20DOPE   H2X 2485   2.594   2.397  14.269  0.2238 -2.4930 -0.8669
   20DOPE   H2Y 2486   2.744   2.489  14.299  0.6313 -0.5884 -2.8836
   20DOPE   C23 2487   2.343   2.633  14.296  0.1322 -0.2162 -0.1958
   20DOPE   H3R 2488   2.265   2.553  14.294 -2.7711  2.4365 -0.6093
   20DOPE   H3S 2489   2.450   2.604  14.295  1.0791  2.8376  1.5808
   20DOPE   C24 2490   2.312   2.708  14.167 -0.2321  0.2746 -0.0205
   20DOPE   H4R 2491   2.383   2.792  14.147  1.0658 -0.3829  1.5710
   20DOPE   H4S 2492   2.208   2.745  14.180 -0.0578  1.8224 -2.4634
   20DOPE   C25 2493   2.328   2.621  14.043 -0.3680  0.2495 -0.1113
   20DOPE   H5R 2494   2.259   2.535  14.053  1.8268 -1.4932  0.9284
   20DOPE   H5S 2495   2.432   2.589  14.020 -0.4855  1.7182 -3.0988
   20DOPE   C26 2496   2.291   2.701  13.911 -0.1084  0.0449  1.1660
   20DOPE   H6R 2497   2.357   2.790  13.916 -0.5424  0.4249  0.1432
   20DOPE   H6S 2498   2.185   2.730  13.903  0.2186  0.7575 -1.0530
   20DOPE   C27 2499   2.329   2.614  13.785 -0.7045  0.2333  0.0994
   20DOPE   H7R 2500   2.299   2.510  13.810 -1.2547 -0.0517 -1.6490
   20DOPE   H7S 2501   2.438   2.600  13.770 -0.7665 -0.6792  0.4210
   20DOPE   C28 2502   2.274   2.652  13.646  0.0174  0.3555 -0.5294
   20DOPE   H8R 2503   2.163   2.651  13.654  0.0474 -2.4024  0.6978
   20DOPE   H8S 2504   2.304   2.572  13.575  0.6789  1.6373 -1.7489
   20DOPE   C29 2505   2.325   2.783  13.601 -0.5447 -0.2904  0.1500
   20DOPE   H9R 2506   2.376   2.838  13.681  0.4023  0.7230 -1.0911
   20DOPE  C210 2507   2.321   2.827  13.473  0.1255 -0.0209 -0.1495
   20DOPE  H10R 2508   2.356   2.926  13.441  1.1242 -0.9847 -2.2209
   20DOPE  C211 2509   2.244   2.767  13.360  0.4160 -0.2363 -0.0887
   20DOPE  H11R 2510   2.182   2.683  13.398  1.5407 -1.9185 -1.8296
   20DOPE  H11S 2511   2.323   2.721  13.297  0.9917 -1.1289  1.2356
   20DOPE  C212 2512   2.152   2.865  13.278  0.2962  0.3683  0.0054
   20DOPE  H12R 2513   2.080   2.921  13.341 -1.1929 -1.1039 -0.3172
   20DOPE  H12S 2514   2.091   2.807  13.205 -0.0814  0.9407 -0.1376
   20DOPE  C213 2515   2.230   2.955  13.180 -0.0550 -0.2987  0.0130
   20DOPE  H13R 2516   2.294   2.905  13.104  1.5550  1.2926  0.2409
   20DOPE  H13S 2517   2.305   3.015  13.236 -2.6235  1.5115  1.7361
   20DOPE  C214 2518   2.142   3.049  13.103  0.1593 -0.0958 -1.0517
   20DOPE  H14R 2519   2.194   3.137  13.059  0.3014  0.6848  0.5897
   20DOPE  H14S 2520   2.079   3.095  13.182  1.7309  0.4065 -0.0414
   20DOPE  C215 2521   2.062   2.991  12.989 -0.5038  0.0121 -0.2337
   20DOPE  H15R 2522   2.021   2.896  13.028  2.0535 -0.6614  0.9737
   20DOPE  H15S 2523   2.127   2.978  12.900  0.6247 -3.3361  0.9323
   20DOPE  C216 2524   1.930   3.066  12.945  0.2234  0.0180  0.1948
   20DOPE  H16R 2525   1.934   3.177  12.949 -2.7056  0.1826  3.5664
   20DOPE  H16S 2526   1.850   3.046  13.020 -0.7398  1.5264 -0.3900
   20DOPE  C217 2527   1.893   3.021  12.800  0.3968 -0.2725 -0.3189
   20DOPE  H17R 2528   1.784   3.022  12.780  0.5326 -3.1392 -1.7246
   20DOPE  H17S 2529   1.921   2.916  12.776 -0.9140 -0.2575 -2.0700
   20DOPE  C218 2530   1.944   3.121  12.693  0.3051  0.5505 -0.7011
   20DOPE  H18R 2531   2.050   3.098  12.667 -0.3773 -1.5915 -1.8397
   20DOPE  H18S 2532   1.939   3.230  12.714  0.8344  0.4781 -0.1543
   20DOPE  H18T 2533   1.884   3.103  12.601  0.3785 -0.9612 -0.4741
   20DOPE   C33 2534   2.774   2.269  14.250 -0.2228  0.1427 -0.3773
   20DOPE   H3X 2535   2.696   2.191  14.251 -0.3113  0.2319 -0.3056
   20DOPE   H3Y 2536   2.862   2.247  14.314  0.2756  0.9316 -0.7706
   20DOPE   C34 2537   2.824   2.299  14.111 -0.2218 -0.5922 -0.5841
   20DOPE   H4X 2538   2.922   2.348  14.130 -1.6256  2.6378 -1.0427
   20DOPE   H4Y 2539   2.839   2.205  14.053 -0.4160 -0.0640 -1.5198
   20DOPE   C35 2540   2.740   2.398  14.023  0.0365  0.3131  0.0988
   20DOPE   H5X 2541   2.743   2.497  14.073 -0.8963  1.0293 -1.2185
   20DOPE   H5Y 2542   2.638   2.353  14.029 -0.1634  0.5303 -1.3560
   20DOPE   C36 2543   2.789   2.404  13.882 -0.7148 -0.2525 -0.1402
   20DOPE   H6X 2544   2.820   2.302  13.851 -0.6565 -0.4448  0.5238
   20DOPE   H6Y 2545   2.877   2.470  13.899 -0.7594 -0.4024  0.7573
   20DOPE   C37 2546   2.693   2.467  13.780 -0.3220 -0.5444  0.1658
   20DOPE   H7X 2547   2.591   2.427  13.800 -0.8089  0.5892  0.0681
   20DOPE   H7Y 2548   2.699   2.578  13.793  3.3268 -0.8451  2.1950
   20DOPE   C38 2549   2.728   2.435  13.631 -0.4817  0.5253 -0.0017
   20DOPE   H8X 2550   2.752   2.326  13.623 -0.4582  0.1975  3.1741
   20DOPE   H8Y 2551   2.821   2.492  13.608 -0.9926  1.2030 -0.3971
   20DOPE   C39 2552   2.627   2.467  13.525  0.5664 -0.8282 -0.3658
   20DOPE   H9X 2553   2.560   2.384  13.497 -2.5915  1.1319  0.8923
   20DOPE  C310 2554   2.629   2.571  13.437  0.5288 -0.3443 -0.2732
   20DOPE  H10X 2555   2.559   2.572  13.352 -1.0352 -1.6287  0.9261
   20DOPE  C311 2556   2.724   2.686  13.421 -0.0411  0.4156  0.5007
   20DOPE  H11X 2557   2.679   2.773  13.471 -2.9905 -1.1368  0.7716
   20DOPE  H11Y 2558   2.823   2.673  13.470  0.4737 -0.6130 -0.7276
   20DOPE  C312 2559   2.754   2.720  13.273 -0.8541  0.2615 -0.1797
   20DOPE  H12X 2560   2.787   2.634  13.211 -1.6216 -0.8467  0.9229
   20DOPE  H12Y 2561   2.831   2.800  13.279  0.8537 -1.3869  1.2786
   20DOPE  C313 2562   2.634   2.787  13.198 -0.8012  0.1269 -0.0142
   20DOPE  H13X 2563   2.540   2.728  13.194  1.2907 -3.4891 -4.0791
   20DOPE  H13Y 2564   2.623   2.893  13.231  0.0924  1.8827 -4.5562
   20DOPE  C314 2565   2.667   2.814  13.054  0.0654 -0.1102  0.3324
   20DOPE  H14X 2566   2.677   2.725  12.988 -4.2361  0.1363 -0.9478
   20DOPE  H14Y 2567   2.765   2.865  13.042  1.0565 -1.7906  0.8654
   20DOPE  C315 2568   2.562   2.894  12.979  0.2120  0.2307  0.3310
   20DOPE  H15X 2569   2.541   2.983  13.043  0.7232 -0.6485  1.7531
   20DOPE  H15Y 2570   2.474   2.834  12.949  0.3094  1.1654 -2.0823
   20DOPE  C316 2571   2.607   2.938  12.839 -0.2649  0.0147 -0.1595
   20DOPE  H16X 2572   2.599   2.844  12.781 -0.4062 -1.6719  2.4355
   20DOPE  H16Y 2573   2.716   2.958  12.838 -0.2867  0.3311  1.3449
   20DOPE  C317 2574   2.527   3.055  12.785 -0.0629  0.6434  0.1048
   20DOPE  H17X 2575   2.417   3.038  12.783  0.1031 -0.5256  0.2753
   20DOPE  H17Y 2576   2.550   3.131  12.864 -2.6909 -0.8491  2.4956
   20DOPE  C318 2577   2.570   3.102  12.644 -0.3173 -0.7178 -0.1325
   20DOPE  H18X 2578   2.679   3.123  12.650 -0.4335 -0.4624  1.4924
   20DOPE  H18Y 2579   2.551   3.029  12.563  3.4633 -0.2822 -1.6281
   20DOPE  H18Z 2580   2.511   3.194  12.625  1.7212  0.8782  0.8228
   21DOPE     N 2581   0.622   3.843  14.683  0.3835  0.5431  0.1704
   21DOPE   HN1 2582   0.570   3.932  14.666 -1.6727 -0.8210 -0.9719
   21DOPE   HN2 2583   0.557   3.775  14.726 -0.3324 -0.8448 -2.9153
   21DOPE   HN3 2584   0.703   3.860  14.746  1.0774 -1.2313 -0.1918
   21DOPE   C12 2585   0.676   3.773  14.558  0.1554 -0.8402  0.7837
   21DOPE  H12A 2586   0.748   3.841  14.507 -1.6879  0.5494 -0.0920
   21DOPE  H12B 2587   0.590   3.760  14.489 -0.3314  3.0658  0.3907
   21DOPE   C11 2588   0.728   3.638  14.611  0.1075  0.3739 -0.7705
   21DOPE  H11A 2589   0.798   3.644  14.697 -0.6553  1.1539 -0.1771
   21DOPE  H11B 2590   0.785   3.588  14.530  0.5583  0.3377 -0.4342
   21DOPE     P 2591   0.631   3.404  14.650 -0.6078  0.3835 -0.0404
   21DOPE   O13 2592   0.507   3.345  14.693  0.0288 -0.0260 -0.3602
   21DOPE   O14 2593   0.748   3.370  14.736 -0.1128 -0.2044  0.4277
   21DOPE   O11 2594   0.665   3.351  14.506 -0.5210 -1.2616  0.1666
   21DOPE   O12 2595   0.615   3.566  14.645  0.7870 -0.0996 -0.2668
   21DOPE    C1 2596   0.591   3.403  14.392 -0.6349  0.5770 -0.1342
   21DOPE    HA 2597   0.634   3.501  14.361  0.8199 -0.0138 -0.0360
   21DOPE    HB 2598   0.483   3.416  14.415 -0.4410 -1.5215  2.4112
   21DOPE    C2 2599   0.620   3.324  14.263  0.0202  0.3196 -0.0681
   21DOPE    HS 2600   0.587   3.219  14.276 -0.2925  0.4384  0.1222
   21DOPE   O21 2601   0.755   3.342  14.222  0.3131 -0.2190  1.0096
   21DOPE   C21 2602   0.806   3.242  14.151 -0.8565  0.4128  0.6665
   21DOPE   O22 2603   0.744   3.143  14.115  0.1377  0.2941 -0.0292
   21DOPE   C22 2604   0.952   3.259  14.135  0.2677  0.2742 -0.0395
   21DOPE   H2R 2605   1.001   3.215  14.225  0.1870 -0.3000 -0.2741
   21DOPE   H2S 2606   0.965   3.369  14.140  2.9252  0.0281 -0.0372
   21DOPE    C3 2607   0.529   3.395  14.161 -0.3782  0.0461  0.1497
   21DOPE    HX 2608   0.568   3.499  14.160 -0.7863  0.3308  3.1609
   21DOPE    HY 2609   0.425   3.409  14.197 -0.9464  2.2694 -2.0716
   21DOPE   O31 2610   0.529   3.340  14.023 -0.5796 -0.1724 -0.1525
   21DOPE   C31 2611   0.464   3.219  14.011 -0.2671 -0.3574  0.1958
   21DOPE   O32 2612   0.409   3.159  14.107  0.5900 -0.0485  0.2591
   21DOPE   C32 2613   0.473   3.165  13.872  0.5533  0.3500  0.2538
   21DOPE   H2X 2614   0.516   3.063  13.871 -0.5053 -0.1295  0.8672
   21DOPE   H2Y 2615   0.370   3.150  13.832  0.9483 -0.5097 -0.4620
   21DOPE   C23 2616   1.002   3.211  14.006 -0.3107 -0.0360  0.6223
   21DOPE   H3R 2617   0.977   3.106  13.978 -0.7378  0.4947 -1.0898
   21DOPE   H3S 2618   1.113   3.213  14.008 -0.3289  1.5820  0.7353
   21DOPE   C24 2619   0.973   3.313  13.891  0.1316  0.4273  1.4401
   21DOPE   H4R 2620   0.990   3.418  13.923  1.4468  0.6617  0.0816
   21DOPE   H4S 2621   0.863   3.308  13.874  0.1575 -0.4021  1.4561
   21DOPE   C25 2622   1.055   3.281  13.763 -0.4784 -0.6547  0.4325
   21DOPE   H5R 2623   1.040   3.173  13.741 -3.7805 -0.5456  1.6636
   21DOPE   H5S 2624   1.163   3.298  13.786 -0.7952 -0.1616  1.6388
   21DOPE   C26 2625   1.010   3.373  13.650 -0.2700 -0.5030 -0.4886
   21DOPE   H6R 2626   1.010   3.479  13.683 -0.0590 -0.7421  0.3039
   21DOPE   H6S 2627   0.906   3.364  13.614 -0.5821 -0.7250  0.4554
   21DOPE   C27 2628   1.102   3.361  13.523 -0.1364 -0.1116  0.0850
   21DOPE   H7R 2629   1.088   3.264  13.471 -2.7743  0.5309 -0.5635
   21DOPE   H7S 2630   1.209   3.379  13.544  0.4241  2.6618 -3.9968
   21DOPE   C28 2631   1.071   3.468  13.408  0.0062 -0.0696 -0.5801
   21DOPE   H8R 2632   1.055   3.562  13.465  0.2119  0.1469 -0.8771
   21DOPE   H8S 2633   0.968   3.445  13.374 -1.1191  1.0017  1.8343
   21DOPE   C29 2634   1.172   3.473  13.296  1.1898 -0.1066 -0.5894
   21DOPE   H9R 2635   1.271   3.507  13.332  1.2364  1.4215 -2.0446
   21DOPE  C210 2636   1.152   3.470  13.163 -0.3508 -0.5587  0.1538
   21DOPE  H10R 2637   1.241   3.466  13.097 -1.4381 -0.7617 -1.3478
   21DOPE  C211 2638   1.024   3.447  13.086  0.7449 -0.0725 -0.4031
   21DOPE  H11R 2639   0.945   3.433  13.162  0.7469  1.8548  0.0239
   21DOPE  H11S 2640   1.030   3.360  13.018 -0.9550 -1.4160  1.0788
   21DOPE  C212 2641   0.981   3.555  12.984  0.8079  0.0426 -0.2165
   21DOPE  H12R 2642   1.071   3.595  12.933  1.6885 -0.9473  0.5341
   21DOPE  H12S 2643   0.928   3.635  13.041 -1.8436 -2.6882  1.4703
   21DOPE  C213 2644   0.881   3.501  12.879  0.6577 -0.5567 -0.0901
   21DOPE  H13R 2645   0.782   3.511  12.929 -0.8841 -1.4760 -2.7391
   21DOPE  H13S 2646   0.896   3.393  12.859 -0.5828 -0.9412  0.8528
   21DOPE  C214 2647   0.898   3.583  12.748 -0.2303 -0.3519 -0.2886
   21DOPE  H14R 2648   0.997   3.557  12.704 -0.7010  0.3325 -1.8356
   21DOPE  H14S 2649   0.899   3.693  12.764  1.1067 -0.4995  0.9455
   21DOPE  C215 2650   0.788   3.551  12.648  0.5424  0.2203 -0.0178
   21DOPE  H15R 2651   0.700   3.595  12.700  0.3286  0.3759 -0.5060
   21DOPE  H15S 2652   0.764   3.443  12.654 -0.3460  0.4737  2.8531
   21DOPE  C216 2653   0.810   3.605  12.507 -1.0456 -0.4047  0.1601
   21DOPE  H16R 2654   0.888   3.541  12.460 -1.9349 -1.2429 -0.1979
   21DOPE  H16S 2655   0.859   3.704  12.515 -0.3367 -0.8784  2.1692
   21DOPE  C217 2656   0.693   3.624  12.421  0.7035 -0.9203  0.6023
   21DOPE  H17R 2657   0.637   3.714  12.455  0.9145 -0.5530  0.0043
   21DOPE  H17S 2658   0.635   3.531  12.435  0.6024 -0.9384  0.0894
   21DOPE  C218 2659   0.732   3.644  12.271 -1.0473 -0.3430  0.4205
   21DOPE  H18R 2660   0.803   3.725  12.243 -1.0408 -0.5822 -0.2905
   21DOPE  H18S 2661   0.647   3.656  12.200 -2.7002  0.8019  2.4590
   21DOPE  H18T 2662   0.789   3.553  12.247  2.8197  1.5629  1.6109
   21DOPE   C33 2663   0.553   3.249  13.776  0.1843 -0.7862 -0.5862
   21DOPE   H3X 2664   0.658   3.257  13.810 -0.3256 -0.4319  1.0045
   21DOPE   H3Y 2665   0.518   3.354  13.768  2.8734  0.2789  0.7029
   21DOPE   C34 2666   0.539   3.182  13.639 -0.3380 -0.1852 -0.4510
   21DOPE   H4X 2667   0.590   3.084  13.649 -0.1440 -0.0141  0.3623
   21DOPE   H4Y 2668   0.430   3.169  13.620 -0.2645 -0.4953 -0.6474
   21DOPE   C35 2669   0.619   3.257  13.529  0.0658  0.4516  0.2148
   21DOPE   H5X 2670   0.724   3.268  13.563  0.0013  3.2262 -0.2339
   21DOPE   H5Y 2671   0.578   3.359  13.513 -1.2966 -0.4073 -2.5204
   21DOPE   C36 2672   0.628   3.186  13.400  0.3219 -0.1865  0.1703
   21DOPE   H6X 2673   0.529   3.163  13.354  1.0119 -0.5388 -1.1937
   21DOPE   H6Y 2674   0.685   3.090  13.408 -1.3763 -1.3663 -1.1000
   21DOPE   C37 2675   0.714   3.259  13.298 -0.1316  0.3640  0.3973
   21DOPE   H7X 2676   0.652   3.345  13.263  0.6971 -0.1582 -2.6472
   21DOPE   H7Y 2677   0.796   3.307  13.356 -0.1931  1.8697 -0.6952
   21DOPE   C38 2678   0.756   3.177  13.173 -0.3093 -0.6318  0.3828
   21DOPE   H8X 2679   0.834   3.106  13.208  0.9984 -0.4170 -1.8719
   21DOPE   H8Y 2680   0.812   3.237  13.097 -0.2939 -0.2223  0.7144
   21DOPE   C39 2681   0.650   3.098  13.101  0.4872  0.2238  0.7784
   21DOPE   H9X 2682   0.615   3.006  13.151 -0.6540 -0.1890 -0.7262
   21DOPE  C310 2683   0.599   3.123  12.983 -0.2040 -0.3235  0.3474
   21DOPE  H10X 2684   0.512   3.067  12.946 -0.5670  1.6158 -2.0383
   21DOPE  C311 2685   0.632   3.249  12.899  0.6045 -0.4746  0.1245
   21DOPE  H11X 2686   0.637   3.335  12.970 -0.2889  0.6714 -1.1548
   21DOPE  H11Y 2687   0.729   3.232  12.849  0.5577 -1.3726  0.3206
   21DOPE  C312 2688   0.514   3.293  12.806 -0.1369  0.2623  0.1799
   21DOPE  H12X 2689   0.533   3.398  12.774  1.0493 -0.3359 -1.1908
   21DOPE  H12Y 2690   0.420   3.297  12.866  0.3600  0.2881  0.9596
   21DOPE  C313 2691   0.496   3.199  12.681 -0.0314 -0.0198  0.0557
   21DOPE  H13X 2692   0.479   3.094  12.712 -1.6625  0.0967 -0.3386
   21DOPE  H13Y 2693   0.399   3.229  12.635  0.0294 -2.7325 -2.1327
   21DOPE  C314 2694   0.604   3.205  12.570 -0.5102 -0.5234  0.6330
   21DOPE  H14X 2695   0.705   3.187  12.614  0.4146 -0.2352 -1.2864
   21DOPE  H14Y 2696   0.601   3.308  12.528 -0.2654 -0.1830  1.4307
   21DOPE  C315 2697   0.588   3.097  12.461  0.3572 -0.2197 -0.0969
   21DOPE  H15X 2698   0.482   3.108  12.428  0.5844  0.5039 -0.6128
   21DOPE  H15Y 2699   0.608   2.998  12.506  3.2420  0.8286  1.1575
   21DOPE  C316 2700   0.684   3.110  12.339  0.3470 -0.7407 -0.1727
   21DOPE  H16X 2701   0.787   3.134  12.372  0.4977 -0.9589 -0.4788
   21DOPE  H16Y 2702   0.643   3.189  12.272 -2.6285 -0.5363  1.7038
   21DOPE  C317 2703   0.690   2.988  12.240  0.2052  0.2455 -0.3155
   21DOPE  H17X 2704   0.774   3.001  12.167  0.6752 -2.3354 -0.3251
   21DOPE  H17Y 2705   0.718   2.906  12.308  0.3672  1.2356  0.8449
   21DOPE  C318 2706   0.566   2.962  12.158  0.4736  0.4050  0.1191
   21DOPE  H18X 2707   0.524   3.046  12.099  1.5007 -0.0041 -1.2347
   21DOPE  H18Y 2708   0.589   2.885  12.081  0.7486 -2.4281  2.8371
   21DOPE  H18Z 2709   0.492   2.929  12.235 -0.0559 -0.1841 -0.6302
   22DOPE     N 2710   5.315   0.625  14.269  0.1259  0.1156 -0.0118
   22DOPE   HN1 2711   5.274   0.534  14.241  1.4011  0.0021 -1.6674
   22DOPE   HN2 2712   5.266   0.641  14.359  0.2175 -0.0017  0.0598
   22DOPE   HN3 2713   5.292   0.699  14.200  0.2760  0.1575 -0.0189
   22DOPE   C12 2714   5.465   0.626  14.301  0.1874  0.2036 -0.4877
   22DOPE  H12A 2715   5.486   0.725  14.346 -1.8010  0.3313  0.2799
   22DOPE  H12B 2716   5.518   0.607  14.206  3.2374  1.0080  0.9349
   22DOPE   C11 2717   5.510   0.512  14.399  0.2859 -0.4996 -0.0090
   22DOPE  H11A 2718   5.440   0.526  14.484  0.4199  1.1852 -0.1441
   22DOPE  H11B 2719   5.616   0.512  14.430  0.3422  0.2716 -0.1751
   22DOPE     P 2720   5.514   0.246  14.378 -0.0264  0.0417 -0.5896
   22DOPE   O13 2721   5.399   0.172  14.427 -0.1253  0.3167 -0.3890
   22DOPE   O14 2722   5.630   0.256  14.474 -0.2353  0.7256 -0.5362
   22DOPE   O11 2723   5.559   0.177  14.244  0.0999  0.0450 -0.2371
   22DOPE   O12 2724   5.469   0.388  14.335 -0.1451 -0.0925  0.3231
   22DOPE    C1 2725   5.676   0.223  14.176  0.7459  0.4589  0.2898
   22DOPE    HA 2726   5.750   0.142  14.158  1.2126  1.3199 -2.0422
   22DOPE    HB 2727   5.738   0.292  14.237  3.0156 -1.1364 -0.0672
   22DOPE    C2 2728   5.637   0.279  14.038 -0.8167 -0.8732 -0.1187
   22DOPE    HS 2729   5.557   0.354  14.054 -1.0394 -0.7879 -1.4805
   22DOPE   O21 2730   5.605   0.179  13.940 -0.2297  0.0503  0.3848
   22DOPE   C21 2731   5.507   0.212  13.857  0.0815 -0.1260  0.6956
   22DOPE   O22 2732   5.436   0.308  13.850  0.1019 -0.0968 -0.0842
   22DOPE   C22 2733   5.524   0.109  13.742  0.4518 -0.4018 -0.0879
   22DOPE   H2R 2734   5.422   0.063  13.739  0.4815 -0.4429 -0.4977
   22DOPE   H2S 2735   5.603   0.036  13.770  1.8338  1.2598  0.4993
   22DOPE    C3 2736   5.749   0.364  13.981  0.3754  0.3009  0.1366
   22DOPE    HX 2737   5.820   0.287  13.945  0.0961 -0.5747  1.3886
   22DOPE    HY 2738   5.791   0.433  14.058  0.3989 -0.1668  0.5504
   22DOPE   O31 2739   5.696   0.441  13.871  0.5577 -0.1135 -0.3514
   22DOPE   C31 2740   5.645   0.559  13.893 -0.6354 -0.4079  0.0981
   22DOPE   O32 2741   5.637   0.621  14.002 -0.0209 -0.1465  0.5321
   22DOPE   C32 2742   5.620   0.625  13.758  0.5293 -0.0088  0.6063
   22DOPE   H2X 2743   5.610   0.735  13.767  1.0781  0.0475  0.5731
   22DOPE   H2Y 2744   5.707   0.597  13.694 -0.0936  0.6085 -0.5509
   22DOPE   C23 2745   5.553   0.171  13.600  0.1893  0.3140  0.1203
   22DOPE   H3R 2746   5.645   0.232  13.598  1.4488 -1.4521  1.3122
   22DOPE   H3S 2747   5.472   0.247  13.589  0.1088  0.1976 -0.0969
   22DOPE   C24 2748   5.543   0.066  13.490  0.4788  0.2869  0.6712
   22DOPE   H4R 2749   5.454   0.000  13.486 -0.2056  1.2406 -0.1250
   22DOPE   H4S 2750   5.632   0.003  13.513 -0.0436 -0.3170  1.0604
   22DOPE   C25 2751   5.556   0.123  13.349  0.2124 -0.2196  0.1726
   22DOPE   H5R 2752   5.638   0.199  13.344  0.0885 -0.1608 -1.1633
   22DOPE   H5S 2753   5.454   0.156  13.319  0.6586  0.6160 -0.4865
   22DOPE   C26 2754   5.588   0.025  13.230 -0.1830 -0.3355 -0.5804
   22DOPE   H6R 2755   5.499  -0.041  13.225 -0.1099 -0.9029  2.9822
   22DOPE   H6S 2756   5.675  -0.040  13.253  1.3594  1.4130 -1.2488
   22DOPE   C27 2757   5.622   0.109  13.105 -0.2449 -0.2443  0.0284
   22DOPE   H7R 2758   5.711   0.171  13.128  1.5413 -2.5513 -0.2854
   22DOPE   H7S 2759   5.534   0.171  13.078 -1.8318 -0.6610  3.6613
   22DOPE   C28 2760   5.665   0.033  12.979  0.1439 -0.4111  0.1195
   22DOPE   H8R 2761   5.576  -0.024  12.948  0.1707  0.4389 -1.6496
   22DOPE   H8S 2762   5.744  -0.039  13.010  0.7962  1.2442  2.7332
   22DOPE   C29 2763   5.719   0.126  12.872 -0.3217  0.1834  0.3402
   22DOPE   H9R 2764   5.794   0.193  12.917 -0.8016  2.5649 -2.1643
   22DOPE  C210 2765   5.683   0.151  12.746  0.1685 -0.6668 -0.1490
   22DOPE  H10R 2766   5.747   0.209  12.678 -0.2518 -0.4640 -0.3766
   22DOPE  C211 2767   5.583   0.075  12.663  0.2199 -0.1665 -1.1697
   22DOPE  H11R 2768   5.581   0.115  12.559 -3.0645 -0.9795 -1.5175
   22DOPE  H11S 2769   5.479   0.081  12.702  0.3192  0.1766 -0.9546
   22DOPE  C212 2770   5.621  -0.074  12.654 -0.5716 -0.1927 -0.1435
   22DOPE  H12R 2771   5.629  -0.115  12.756  1.5872  1.3830  0.3970
   22DOPE  H12S 2772   5.722  -0.076  12.606 -1.5631 -0.1545 -2.3740
   22DOPE  C213 2773   5.513  -0.147  12.569  0.1441  0.0269 -0.7284
   22DOPE  H13R 2774   5.429  -0.077  12.550 -0.9617 -1.3466 -1.1033
   22DOPE  H13S 2775   5.477  -0.221  12.644 -0.1922  2.1060  1.2978
   22DOPE  C214 2776   5.569  -0.209  12.443  0.1979 -0.1586  0.2575
   22DOPE  H14R 2777   5.486  -0.267  12.399  0.7187 -0.4970 -0.2986
   22DOPE  H14S 2778   5.656  -0.271  12.474  1.5404 -0.2479 -3.2305
   22DOPE  C215 2779   5.621  -0.112  12.333  0.4525 -0.2810  0.1169
   22DOPE  H15R 2780   5.667  -0.177  12.256 -0.5367 -0.5161 -0.2938
   22DOPE  H15S 2781   5.698  -0.044  12.375  1.1576  0.0708 -1.6575
   22DOPE  C216 2782   5.514  -0.015  12.279 -0.4509  0.0388 -1.0983
   22DOPE  H16R 2783   5.458   0.031  12.363  1.1132  2.5849 -1.3522
   22DOPE  H16S 2784   5.433  -0.067  12.224 -1.7318 -1.8713  2.2832
   22DOPE  C217 2785   5.576   0.103  12.201 -0.1851  0.2960 -0.1923
   22DOPE  H17R 2786   5.647   0.163  12.261 -0.8221  0.6923  0.1821
   22DOPE  H17S 2787   5.484   0.164  12.184 -0.2590 -0.1948 -1.7388
   22DOPE  C218 2788   5.651   0.067  12.079  0.5154 -0.4460  0.2207
   22DOPE  H18R 2789   5.732  -0.007  12.094 -0.8507 -1.8166  1.1485
   22DOPE  H18S 2790   5.683   0.155  12.020  0.1000 -0.7687 -0.5025
   22DOPE  H18T 2791   5.585   0.005  12.014  2.4425 -1.3227 -0.9757
   22DOPE   C33 2792   5.494   0.576  13.682 -0.2499  0.0750 -0.0776
   22DOPE   H3X 2793   5.397   0.597  13.731 -1.3632  0.2810 -2.2296
   22DOPE   H3Y 2794   5.487   0.475  13.636 -1.7795  0.2242 -0.2391
   22DOPE   C34 2795   5.472   0.666  13.556 -0.2790 -0.3159  0.0631
   22DOPE   H4X 2796   5.379   0.622  13.514 -0.4900  1.3615 -1.3183
   22DOPE   H4Y 2797   5.450   0.769  13.592  2.9338  0.4725  0.0441
   22DOPE   C35 2798   5.592   0.669  13.452  0.5044  0.2683 -0.4585
   22DOPE   H5X 2799   5.611   0.569  13.408  0.1995 -0.2294  0.5137
   22DOPE   H5Y 2800   5.687   0.690  13.504  1.5028 -0.0507 -2.0907
   22DOPE   C36 2801   5.559   0.766  13.340  0.0831 -0.3133  0.1052
   22DOPE   H6X 2802   5.560   0.874  13.365 -0.8172 -0.3857  0.4929
   22DOPE   H6Y 2803   5.455   0.744  13.308  0.4515 -1.0203 -0.6704
   22DOPE   C37 2804   5.657   0.749  13.218 -0.0749 -0.0228 -0.7586
   22DOPE   H7X 2805   5.745   0.811  13.244  0.2321  0.1405 -2.1216
   22DOPE   H7Y 2806   5.686   0.643  13.200 -1.5297 -0.3594 -1.2460
   22DOPE   C38 2807   5.584   0.794  13.093 -0.3741 -0.6883  0.3498
   22DOPE   H8X 2808   5.551   0.896  13.122  0.6935  0.3240 -1.7820
   22DOPE   H8Y 2809   5.495   0.730  13.077 -1.5880  1.4137 -2.1500
   22DOPE   C39 2810   5.676   0.797  12.976 -0.4350  0.8082  0.0473
   22DOPE   H9X 2811   5.742   0.885  12.973 -0.9635  1.2122  0.0748
   22DOPE  C310 2812   5.674   0.715  12.867 -0.0762  0.2128 -0.3185
   22DOPE  H10X 2813   5.745   0.735  12.785  0.3421  0.0404 -0.0027
   22DOPE  C311 2814   5.588   0.592  12.848  0.2527 -0.0086 -0.3014
   22DOPE  H11X 2815   5.634   0.496  12.880 -1.8074 -0.8755  0.1997
   22DOPE  H11Y 2816   5.497   0.597  12.912 -0.3288 -2.2850 -0.8566
   22DOPE  C312 2817   5.531   0.571  12.705 -0.8282 -0.7126  0.0040
   22DOPE  H12X 2818   5.481   0.664  12.671 -0.1148 -0.6751 -0.9920
   22DOPE  H12Y 2819   5.457   0.488  12.708  1.6431 -2.9987  1.4107
   22DOPE  C313 2820   5.647   0.527  12.613  0.4466 -0.5540 -0.2019
   22DOPE  H13X 2821   5.712   0.616  12.601 -0.8263  0.5720  0.8566
   22DOPE  H13Y 2822   5.695   0.433  12.646 -0.0158 -0.2521  1.3907
   22DOPE  C314 2823   5.603   0.494  12.473  0.2064  0.3843 -0.6759
   22DOPE  H14X 2824   5.531   0.572  12.441 -0.4346  0.6865  1.3719
   22DOPE  H14Y 2825   5.552   0.395  12.477  2.8547 -1.0902 -0.9464
   22DOPE  C315 2826   5.713   0.469  12.361 -0.2841 -0.2335  0.1531
   22DOPE  H15X 2827   5.782   0.386  12.386  0.3997  0.0298 -0.8030
   22DOPE  H15Y 2828   5.795   0.544  12.366 -0.6747  0.1766  0.4832
   22DOPE  C316 2829   5.661   0.464  12.219  0.9426  0.2101 -0.2897
   22DOPE  H16X 2830   5.628   0.570  12.208  2.5013  0.8316  0.6892
   22DOPE  H16Y 2831   5.575   0.394  12.214  0.5724  0.6039  0.3580
   22DOPE  C317 2832   5.756   0.429  12.111 -0.8002 -0.7800  0.1698
   22DOPE  H17X 2833   5.853   0.483  12.120  0.0138 -1.3324 -3.5001
   22DOPE  H17Y 2834   5.777   0.320  12.122  0.9301 -0.4924  0.1092
   22DOPE  C318 2835   5.701   0.463  11.972  0.1055 -0.5309 -0.7047
   22DOPE  H18X 2836   5.755   0.422  11.884 -1.5518 -3.2189 -0.5911
   22DOPE  H18Y 2837   5.599   0.418  11.976  0.4706 -1.5219  3.8951
   22DOPE  H18Z 2838   5.684   0.572  11.964  1.0744 -0.3055  0.0129
   23DOPE     N 2839   0.985   2.805  14.322 -0.6622  0.2394  0.7498
   23DOPE   HN1 2840   1.050   2.726  14.340 -1.5475 -0.5251  0.6535
   23DOPE   HN2 2841   1.005   2.881  14.391 -1.2967  2.1520 -1.0664
   23DOPE   HN3 2842   0.888   2.770  14.337 -0.2871 -1.1605  0.0981
   23DOPE   C12 2843   1.001   2.874  14.187  0.7431  0.2578 -1.1247
   23DOPE  H12A 2844   0.934   2.962  14.186  0.3502  0.0304  0.7855
   23DOPE  H12B 2845   0.962   2.807  14.107  1.6729  0.1041 -1.4575
   23DOPE   C11 2846   1.149   2.907  14.161  0.2074 -0.3230  0.2934
   23DOPE  H11A 2847   1.157   2.944  14.056  0.3338 -0.3797  0.2841
   23DOPE  H11B 2848   1.210   2.815  14.150  1.2491  0.3758  0.1026
   23DOPE     P 2849   1.348   3.048  14.278  0.1469  0.0673  0.3804
   23DOPE   O13 2850   1.395   2.993  14.406  0.2239  0.3815 -0.6180
   23DOPE   O14 2851   1.346   3.198  14.256 -0.1011  0.6663  0.0362
   23DOPE   O11 2852   1.414   2.984  14.154  0.0052 -0.1814 -0.3571
   23DOPE   O12 2853   1.201   2.999  14.254 -0.4489  0.5757 -1.0022
   23DOPE    C1 2854   1.547   3.020  14.117  0.2359 -0.8170  0.4906
   23DOPE    HA 2855   1.609   2.930  14.132  0.0612 -0.7324  1.9428
   23DOPE    HB 2856   1.597   3.102  14.174 -2.3957  1.9891 -0.9222
   23DOPE    C2 2857   1.540   3.070  13.972  0.5739 -0.3926  0.6458
   23DOPE    HS 2858   1.561   2.980  13.910  0.3169 -0.3182  0.4462
   23DOPE   O21 2859   1.633   3.180  13.959 -0.3330  0.3437 -0.1794
   23DOPE   C21 2860   1.684   3.187  13.842  0.1646 -0.1134 -0.2314
   23DOPE   O22 2861   1.691   3.100  13.757 -0.1975 -0.1178 -0.5927
   23DOPE   C22 2862   1.764   3.320  13.825 -0.0239  0.6794  0.0596
   23DOPE   H2R 2863   1.810   3.305  13.726  0.4068  0.8553  0.2336
   23DOPE   H2S 2864   1.849   3.321  13.896  1.4046 -2.2932 -1.4400
   23DOPE    C3 2865   1.400   3.123  13.915  0.2491 -0.3570 -0.7604
   23DOPE    HX 2866   1.382   3.217  13.972  0.4908 -0.4367 -0.5506
   23DOPE    HY 2867   1.325   3.047  13.948  0.2014  0.0794  0.1653
   23DOPE   O31 2868   1.400   3.160  13.777 -0.1467 -0.1302  0.1412
   23DOPE   C31 2869   1.362   3.060  13.695 -0.7194  0.6251  0.1923
   23DOPE   O32 2870   1.317   2.949  13.735  0.6696 -0.1415  0.2929
   23DOPE   C32 2871   1.382   3.097  13.548 -0.0090  0.3699 -0.0982
   23DOPE   H2X 2872   1.368   3.207  13.537  1.3100  0.7366  1.5166
   23DOPE   H2Y 2873   1.489   3.084  13.522 -0.3250 -0.4062 -1.0463
   23DOPE   C23 2874   1.676   3.441  13.825  0.7538  0.5355  0.0093
   23DOPE   H3R 2875   1.739   3.532  13.813 -0.0637  0.9312 -1.4238
   23DOPE   H3S 2876   1.618   3.457  13.919  0.6797  3.4601 -0.4258
   23DOPE   C24 2877   1.571   3.443  13.705  0.3066  0.2177 -1.2687
   23DOPE   H4R 2878   1.500   3.360  13.724 -0.4512  0.4138 -3.0620
   23DOPE   H4S 2879   1.621   3.432  13.607 -2.3892 -0.6828 -2.6515
   23DOPE   C25 2880   1.482   3.564  13.699 -0.0951 -0.3543 -0.8052
   23DOPE   H5R 2881   1.476   3.615  13.797 -1.6286  1.2530 -1.6700
   23DOPE   H5S 2882   1.376   3.544  13.673  0.3252 -2.4971 -1.0243
   23DOPE   C26 2883   1.547   3.676  13.610  0.3426 -0.2936 -0.0744
   23DOPE   H6R 2884   1.650   3.691  13.651  0.9381  1.2105 -1.9601
   23DOPE   H6S 2885   1.488   3.768  13.629 -2.2943 -2.0306  0.6606
   23DOPE   C27 2886   1.545   3.641  13.468 -0.3190  1.0300 -0.4140
   23DOPE   H7R 2887   1.461   3.692  13.416  0.5300  1.1511 -1.7399
   23DOPE   H7S 2888   1.529   3.532  13.450  0.3096  0.6904  0.9949
   23DOPE   C28 2889   1.670   3.689  13.387  0.4647  0.2470 -0.6057
   23DOPE   H8R 2890   1.762   3.647  13.432  0.4871  2.2858  1.4213
   23DOPE   H8S 2891   1.672   3.799  13.398  0.7967  0.3374 -1.4858
   23DOPE   C29 2892   1.658   3.647  13.240 -0.7375  0.6168 -0.0319
   23DOPE   H9R 2893   1.702   3.548  13.222  1.2162  1.6668 -1.3586
   23DOPE  C210 2894   1.600   3.715  13.139 -0.0754 -0.5060 -0.5534
   23DOPE  H10R 2895   1.625   3.686  13.036 -0.8830  0.7060 -1.1204
   23DOPE  C211 2896   1.525   3.847  13.150 -0.2673  0.5475 -0.9521
   23DOPE  H11R 2897   1.595   3.925  13.188  0.2142 -0.6710  0.7630
   23DOPE  H11S 2898   1.447   3.841  13.228  2.6683  3.4911  2.6500
   23DOPE  C212 2899   1.468   3.895  13.016  0.5957 -0.1115 -0.1297
   23DOPE  H12R 2900   1.436   3.999  13.040  1.3894  0.0071  0.4673
   23DOPE  H12S 2901   1.380   3.835  12.984  0.2549  0.3235 -0.0194
   23DOPE  C213 2902   1.549   3.900  12.883  0.3964 -0.5525  0.1586
   23DOPE  H13R 2903   1.485   3.947  12.806 -0.6126 -1.5221  0.3825
   23DOPE  H13S 2904   1.573   3.802  12.836  0.6706 -1.1868  1.5718
   23DOPE  C214 2905   1.683   3.980  12.884  0.0238  0.1008 -0.3296
   23DOPE  H14R 2906   1.760   3.933  12.950 -0.6528  2.0553  2.0048
   23DOPE  H14S 2907   1.667   4.081  12.928  1.8077  0.5811 -0.6887
   23DOPE  C215 2908   1.741   4.004  12.745 -0.2711 -0.0895  0.1857
   23DOPE  H15R 2909   1.762   3.904  12.700 -0.5780  0.2696 -0.7929
   23DOPE  H15S 2910   1.827   4.073  12.750 -0.5995  0.2368  3.6730
   23DOPE  C216 2911   1.643   4.069  12.645  0.6049 -1.0192 -0.5443
   23DOPE  H16R 2912   1.595   4.156  12.696  2.4135 -0.4981  0.3372
   23DOPE  H16S 2913   1.564   3.995  12.620  0.1723 -0.9388  0.5119
   23DOPE  C217 2914   1.720   4.120  12.526 -0.6607  0.5851 -0.0113
   23DOPE  H17R 2915   1.780   4.041  12.477  0.1031 -1.0510  3.2858
   23DOPE  H17S 2916   1.789   4.202  12.556 -0.4517 -0.0929  1.4376
   23DOPE  C218 2917   1.628   4.179  12.418  0.3852  0.2302  0.4576
   23DOPE  H18R 2918   1.544   4.109  12.397 -0.2178  1.0955 -0.0398
   23DOPE  H18S 2919   1.688   4.184  12.325 -1.1071 -0.5828 -0.5846
   23DOPE  H18T 2920   1.594   4.282  12.443  3.0184  1.5971 -1.1413
   23DOPE   C33 2921   1.291   3.015  13.455  0.6161  0.9994  0.2318
   23DOPE   H3X 2922   1.193   3.026  13.506 -0.0665  1.0101 -1.0219
   23DOPE   H3Y 2923   1.318   2.907  13.455 -0.0479  0.8274 -0.0199
   23DOPE   C34 2924   1.292   3.071  13.315  0.1345 -0.7111 -0.2950
   23DOPE   H4X 2925   1.259   3.177  13.321  1.1849 -0.4337  0.9455
   23DOPE   H4Y 2926   1.392   3.072  13.267  0.0777 -0.7115 -0.4150
   23DOPE   C35 2927   1.187   3.013  13.217 -0.1196  0.4915 -0.2597
   23DOPE   H5X 2928   1.088   3.038  13.260 -0.2633 -2.4557  1.4120
   23DOPE   H5Y 2929   1.194   2.902  13.222 -4.1110  0.0304 -1.6543
   23DOPE   C36 2930   1.200   3.070  13.070 -0.4027  0.1187  0.1277
   23DOPE   H6X 2931   1.293   3.042  13.014 -1.8202  0.3612 -2.5153
   23DOPE   H6Y 2932   1.190   3.180  13.071 -1.1877  0.0519  1.0152
   23DOPE   C37 2933   1.104   3.000  12.971 -0.1853  0.4146 -0.0699
   23DOPE   H7X 2934   1.133   2.895  12.949  1.5049  0.5682  1.2118
   23DOPE   H7Y 2935   1.009   2.992  13.029  0.5697  0.2608  1.1845
   23DOPE   C38 2936   1.077   3.084  12.845  0.2209 -0.8810  0.3620
   23DOPE   H8X 2937   1.167   3.092  12.781 -0.4751 -2.5592 -0.8950
   23DOPE   H8Y 2938   1.045   3.185  12.880  0.7076 -0.3024 -0.8007
   23DOPE   C39 2939   0.961   3.036  12.763 -0.0557 -0.2021  0.2826
   23DOPE   H9X 2940   0.869   3.019  12.820  1.0397 -2.5179  1.5255
   23DOPE  C310 2941   0.958   3.030  12.624 -0.4269 -0.7040  0.1954
   23DOPE  H10X 2942   0.870   2.985  12.577  0.2843 -1.2234 -0.6661
   23DOPE  C311 2943   1.057   3.059  12.525 -0.9686  0.1076  0.3250
   23DOPE  H11X 2944   1.005   3.084  12.429 -0.1153  2.4203  0.4063
   23DOPE  H11Y 2945   1.117   3.151  12.539  0.2551 -0.7079  0.4993
   23DOPE  C312 2946   1.158   2.942  12.502 -0.4129  0.4163  0.5587
   23DOPE  H12X 2947   1.096   2.851  12.482  0.7044 -0.3266  0.3926
   23DOPE  H12Y 2948   1.211   2.917  12.596 -0.2480 -0.8356  0.1518
   23DOPE  C313 2949   1.245   2.953  12.373  0.5089 -0.4586  0.3092
   23DOPE  H13X 2950   1.178   2.959  12.284  0.7942  0.7042  0.1502
   23DOPE  H13Y 2951   1.301   3.049  12.380 -0.3879  0.2130 -1.1642
   23DOPE  C314 2952   1.339   2.830  12.350  0.2664  0.5668 -0.2293
   23DOPE  H14X 2953   1.289   2.742  12.395 -0.7491  2.0995  1.8609
   23DOPE  H14Y 2954   1.428   2.846  12.415  1.1799 -2.2726 -0.6598
   23DOPE  C315 2955   1.371   2.814  12.198 -0.0053 -0.0167 -0.1837
   23DOPE  H15X 2956   1.429   2.901  12.159  0.7846  0.2705  1.5494
   23DOPE  H15Y 2957   1.273   2.799  12.148 -0.8441 -0.4732  1.5262
   23DOPE  C316 2958   1.455   2.686  12.171  0.4062  0.3833 -0.9541
   23DOPE  H16X 2959   1.396   2.594  12.186  0.0809  0.6251 -0.7484
   23DOPE  H16Y 2960   1.548   2.681  12.231 -1.5212 -1.6383  2.1472
   23DOPE  C317 2961   1.491   2.686  12.022  0.0072 -0.3789  0.8208
   23DOPE  H17X 2962   1.405   2.648  11.963  1.1810 -1.2193 -0.4090
   23DOPE  H17Y 2963   1.505   2.791  11.987 -0.3675 -1.3659 -2.7320
   23DOPE  C318 2964   1.611   2.596  11.975  0.1548 -0.2326 -0.3293
   23DOPE  H18X 2965   1.708   2.644  12.003 -1.2987  2.2535  0.7971
   23DOPE  H18Y 2966   1.595   2.493  12.012 -2.0348 -0.3377 -1.4489
   23DOPE  H18Z 2967   1.610   2.591  11.864  2.9456  0.9074 -0.4923
   24DOPE     N 2968   4.589   0.098  14.494  0.1925 -0.1420 -0.9165
   24DOPE   HN1 2969   4.590   0.179  14.558 -1.2693  0.4146 -1.5602
   24DOPE   HN2 2970   4.506   0.042  14.520 -1.0045  1.3602 -1.3652
   24DOPE   HN3 2971   4.678   0.047  14.513  0.8022  1.3128  0.2948
   24DOPE   C12 2972   4.567   0.154  14.354  0.2163  0.0024 -0.4370
   24DOPE  H12A 2973   4.460   0.185  14.361 -0.3892 -1.9900 -0.2706
   24DOPE  H12B 2974   4.570   0.065  14.289 -0.1941 -2.3408  2.5254
   24DOPE   C11 2975   4.658   0.273  14.318  0.5560  0.9421  0.3380
   24DOPE  H11A 2976   4.622   0.299  14.216 -0.3509  1.0301  0.6644
   24DOPE  H11B 2977   4.762   0.234  14.313 -0.2749 -1.6785  1.6873
   24DOPE     P 2978   4.532   0.478  14.412 -0.1799  0.5048  0.3063
   24DOPE   O13 2979   4.566   0.618  14.430 -0.4711 -0.1167  0.1361
   24DOPE   O14 2980   4.448   0.415  14.514  0.8899  0.2048  0.0863
   24DOPE   O11 2981   4.450   0.465  14.273 -0.0715 -0.0329 -0.6477
   24DOPE   O12 2982   4.659   0.381  14.408 -0.4613  0.1457  0.2733
   24DOPE    C1 2983   4.507   0.540  14.162  0.1907 -0.7042  0.4377
   24DOPE    HA 2984   4.593   0.483  14.120 -0.4900 -2.0451  0.8053
   24DOPE    HB 2985   4.551   0.636  14.198  2.2267 -1.5918  0.4954
   24DOPE    C2 2986   4.408   0.581  14.045  0.2958  0.0797 -0.9179
   24DOPE    HS 2987   4.305   0.588  14.087  0.1010 -0.0654 -1.3745
   24DOPE   O21 2988   4.418   0.478  13.949  0.3844  0.0840 -0.1893
   24DOPE   C21 2989   4.359   0.367  13.983 -0.3268  0.0324 -0.5808
   24DOPE   O22 2990   4.284   0.347  14.080 -0.5106 -0.2568  0.6005
   24DOPE   C22 2991   4.374   0.250  13.886 -0.5573 -1.0657  0.3305
   24DOPE   H2R 2992   4.370   0.164  13.956  2.4621 -2.6803 -1.2693
   24DOPE   H2S 2993   4.472   0.262  13.836 -1.8171 -2.2547 -2.6709
   24DOPE    C3 2994   4.428   0.724  13.986  0.2815 -0.2817  0.3857
   24DOPE    HX 2995   4.536   0.736  13.962  0.1285  0.0125 -0.1675
   24DOPE    HY 2996   4.398   0.804  14.056 -0.4677  1.8457 -2.2058
   24DOPE   O31 2997   4.355   0.744  13.861 -0.1731  0.2058  0.3339
   24DOPE   C31 2998   4.231   0.779  13.872  0.1816  0.0320 -0.4150
   24DOPE   O32 2999   4.166   0.790  13.977  0.4629 -0.3333 -0.2038
   24DOPE   C32 3000   4.176   0.782  13.731  0.1501 -0.6276 -0.2087
   24DOPE   H2X 3001   4.099   0.862  13.723 -0.2318 -0.9006  0.6774
   24DOPE   H2Y 3002   4.261   0.813  13.666  0.9597  1.5731  1.7502
   24DOPE   C23 3003   4.272   0.235  13.772 -0.2823  0.5113  0.5347
   24DOPE   H3R 3004   4.169   0.261  13.804  0.2365  0.1533  2.5852
   24DOPE   H3S 3005   4.259   0.126  13.752  0.5750  0.1577  1.7658
   24DOPE   C24 3006   4.326   0.297  13.638 -0.0630  0.5376 -0.0629
   24DOPE   H4R 3007   4.431   0.264  13.626 -0.1844 -0.0992  0.5649
   24DOPE   H4S 3008   4.326   0.406  13.658 -0.7083  0.1495  2.4075
   24DOPE   C25 3009   4.235   0.273  13.520  0.1815  0.1833 -0.6551
   24DOPE   H5R 3010   4.146   0.339  13.519 -1.0042 -1.2897 -3.2345
   24DOPE   H5S 3011   4.195   0.170  13.532 -1.5773  0.8659 -0.3733
   24DOPE   C26 3012   4.295   0.283  13.371 -0.6377 -0.4005  0.5794
   24DOPE   H6R 3013   4.372   0.363  13.380  0.0731 -1.2131  1.8235
   24DOPE   H6S 3014   4.216   0.327  13.306  0.2552 -1.3659 -1.2472
   24DOPE   C27 3015   4.340   0.148  13.313 -0.8464 -0.1232  0.5457
   24DOPE   H7R 3016   4.259   0.073  13.321 -1.2860  0.2549 -0.2872
   24DOPE   H7S 3017   4.425   0.103  13.369 -0.9758 -0.2444  0.6447
   24DOPE   C28 3018   4.407   0.164  13.168  0.0965 -0.4997  0.1595
   24DOPE   H8R 3019   4.436   0.068  13.122 -0.9119 -0.1030 -1.3534
   24DOPE   H8S 3020   4.504   0.216  13.185  0.6957 -1.8097  0.8614
   24DOPE   C29 3021   4.331   0.224  13.058  0.5591  0.1810 -0.2547
   24DOPE   H9R 3022   4.385   0.311  13.016  1.9401 -0.1568  0.7824
   24DOPE  C210 3023   4.239   0.163  12.975 -0.1379 -0.0371 -0.7842
   24DOPE  H10R 3024   4.204   0.216  12.885 -0.7864 -1.7108 -1.5460
   24DOPE  C211 3025   4.175   0.026  13.003  0.4256 -0.2384 -0.3139
   24DOPE  H11R 3026   4.065   0.030  12.988  0.4910  1.6046 -0.5847
   24DOPE  H11S 3027   4.196  -0.018  13.103 -2.2198 -2.3072 -0.5701
   24DOPE  C212 3028   4.218  -0.080  12.902  0.0572 -0.3950 -0.5985
   24DOPE  H12R 3029   4.228  -0.178  12.954 -0.3862 -0.0987  0.0615
   24DOPE  H12S 3030   4.325  -0.064  12.876  0.0961 -0.8103 -0.6975
   24DOPE  C213 3031   4.118  -0.104  12.790  1.0973  0.3327  0.3120
   24DOPE  H13R 3032   4.106  -0.004  12.744  1.2090  0.6608  0.9879
   24DOPE  H13S 3033   4.020  -0.139  12.829  1.7082 -0.2843  1.3639
   24DOPE  C214 3034   4.163  -0.208  12.685 -0.1014 -0.5162  0.2061
   24DOPE  H14R 3035   4.171  -0.307  12.735  1.2418 -1.5719 -1.9370
   24DOPE  H14S 3036   4.266  -0.187  12.648 -0.0675 -3.0176 -1.3792
   24DOPE  C215 3037   4.073  -0.230  12.567  0.2770  0.5968 -0.0164
   24DOPE  H15R 3038   4.086  -0.137  12.507 -1.2875  1.4956  0.9495
   24DOPE  H15S 3039   3.965  -0.237  12.593 -0.0124 -0.8352 -1.4870
   24DOPE  C216 3040   4.093  -0.352  12.478 -0.3708 -0.4704 -0.5051
   24DOPE  H16R 3041   4.066  -0.442  12.537 -3.1510  0.2181 -0.5924
   24DOPE  H16S 3042   4.197  -0.370  12.442  0.2483 -2.2880  1.9319
   24DOPE  C217 3043   3.995  -0.344  12.360 -0.1969 -0.2296  0.8656
   24DOPE  H17R 3044   4.044  -0.402  12.279  0.3845  0.6732  0.5665
   24DOPE  H17S 3045   3.988  -0.235  12.343 -0.4415 -0.3379  0.2699
   24DOPE  C218 3046   3.856  -0.402  12.384  0.6120 -0.0792  0.0380
   24DOPE  H18R 3047   3.801  -0.334  12.453  0.3399  0.5248 -0.7458
   24DOPE  H18S 3048   3.867  -0.506  12.422 -1.0317 -0.5490 -0.6582
   24DOPE  H18T 3049   3.809  -0.410  12.283  1.2918  0.3877 -0.3193
   24DOPE   C33 3050   4.120   0.646  13.691  0.1662 -0.1488  0.6111
   24DOPE   H3X 3051   4.040   0.611  13.760  1.1941 -1.1081  1.3537
   24DOPE   H3Y 3052   4.199   0.569  13.704 -0.0564 -0.0965  2.5809
   24DOPE   C34 3053   4.068   0.643  13.546 -0.3021  0.3099  0.0380
   24DOPE   H4X 3054   4.017   0.544  13.542 -0.3997  0.3564  0.1161
   24DOPE   H4Y 3055   3.983   0.707  13.515 -1.0124 -0.6758 -0.1104
   24DOPE   C35 3056   4.174   0.663  13.433  0.5277  0.2163 -0.3201
   24DOPE   H5X 3057   4.258   0.590  13.432 -0.0823 -0.5098 -0.1067
   24DOPE   H5Y 3058   4.213   0.766  13.444 -0.5562  0.7596 -1.3077
   24DOPE   C36 3059   4.096   0.645  13.298  0.2246 -0.5947  0.8436
   24DOPE   H6X 3060   4.000   0.699  13.307  0.9610  0.9752 -0.1743
   24DOPE   H6Y 3061   4.080   0.535  13.291  1.0827 -0.7165  0.6997
   24DOPE   C37 3062   4.171   0.707  13.170  0.7131 -0.2281  0.3882
   24DOPE   H7X 3063   4.177   0.817  13.184 -2.1067  0.4532 -2.4472
   24DOPE   H7Y 3064   4.272   0.664  13.158  0.1269 -1.4402 -0.4829
   24DOPE   C38 3065   4.098   0.671  13.045 -0.0991  0.3612  0.6715
   24DOPE   H8X 3066   3.994   0.709  13.057 -0.5783 -0.2820 -1.2040
   24DOPE   H8Y 3067   4.082   0.562  13.031 -0.9997  0.2348  2.4223
   24DOPE   C39 3068   4.169   0.735  12.927 -0.3585  0.1114 -0.1095
   24DOPE   H9X 3069   4.223   0.829  12.946  0.7183 -0.2942 -1.0223
   24DOPE  C310 3070   4.178   0.677  12.807  0.5577  0.4984  0.0592
   24DOPE  H10X 3071   4.221   0.731  12.721 -1.7032  0.0442 -1.4252
   24DOPE  C311 3072   4.113   0.544  12.777  0.4894 -0.2222  0.6608
   24DOPE  H11X 3073   4.094   0.469  12.857  0.0780 -0.5817  0.2369
   24DOPE  H11Y 3074   4.016   0.566  12.726  1.9065 -1.7011 -3.0162
   24DOPE  C312 3075   4.201   0.464  12.678 -0.3403  0.1887  0.7576
   24DOPE  H12X 3076   4.297   0.426  12.719  0.6672  1.6834 -0.1638
   24DOPE  H12Y 3077   4.240   0.524  12.594  0.0909 -1.4773 -0.2782
   24DOPE  C313 3078   4.113   0.353  12.628 -0.3719 -0.2779 -0.2801
   24DOPE  H13X 3079   4.084   0.292  12.716 -2.2217  0.8522 -0.0486
   24DOPE  H13Y 3080   4.011   0.376  12.592 -0.1461 -0.7205 -1.2315
   24DOPE  C314 3081   4.175   0.253  12.523 -0.1528 -0.0194  0.2759
   24DOPE  H14X 3082   4.102   0.170  12.513  0.6844 -0.6033 -1.2181
   24DOPE  H14Y 3083   4.267   0.216  12.574  0.0556 -0.0237 -0.1050
   24DOPE  C315 3084   4.205   0.302  12.390 -0.0875 -0.3817  0.1444
   24DOPE  H15X 3085   4.290   0.373  12.385  0.5021 -1.1395 -1.0782
   24DOPE  H15Y 3086   4.114   0.348  12.345 -0.0960  0.1205  0.6689
   24DOPE  C316 3087   4.246   0.186  12.296  0.0950 -0.3364  0.2633
   24DOPE  H16X 3088   4.149   0.150  12.255  0.1647 -0.4313  0.1816
   24DOPE  H16Y 3089   4.302   0.108  12.353  0.9603  0.3652  0.3891
   24DOPE  C317 3090   4.342   0.232  12.180 -0.4850  0.7702 -0.4966
   24DOPE  H17X 3091   4.427   0.290  12.223 -0.2639 -1.0413  1.6624
   24DOPE  H17Y 3092   4.381   0.142  12.128  0.5333  0.8716  0.0561
   24DOPE  C318 3093   4.276   0.322  12.077 -0.4105 -0.0172 -0.1878
   24DOPE  H18X 3094   4.228   0.409  12.127 -0.9415 -0.3328 -0.1422
   24DOPE  H18Y 3095   4.360   0.358  12.014 -0.0908 -1.6706 -0.7489
   24DOPE  H18Z 3096   4.210   0.276  12.001 -0.0138  1.2926 -1.3560
   25DOPE     N 3097   5.704   1.084  14.514  0.4963 -0.1745 -0.1603
   25DOPE   HN1 3098   5.808   1.088  14.523  0.6558 -0.0383 -1.6881
   25DOPE   HN2 3099   5.681   1.077  14.413 -2.6521 -0.5996  0.5002
   25DOPE   HN3 3100   5.683   1.179  14.552  1.7110  0.3043 -0.6065
   25DOPE   C12 3101   5.632   0.988  14.607  0.1999  0.2792  0.3516
   25DOPE  H12A 3102   5.629   1.040  14.705 -0.6893 -0.0127  0.4915
   25DOPE  H12B 3103   5.695   0.898  14.620  0.4544  0.5257  0.8412
   25DOPE   C11 3104   5.484   0.965  14.561 -0.2219  0.4328  0.0444
   25DOPE  H11A 3105   5.442   0.899  14.640  3.3960 -2.1335  0.0854
   25DOPE  H11B 3106   5.480   0.916  14.461  0.3005  0.1361  0.1693
   25DOPE     P 3107   5.270   1.109  14.533  0.1574 -0.0478  0.6432
   25DOPE   O13 3108   5.230   1.244  14.574 -0.1680  0.2322  0.4146
   25DOPE   O14 3109   5.206   0.990  14.590 -0.6279 -0.5385 -0.2962
   25DOPE   O11 3110   5.241   1.095  14.370  0.1101 -0.7941 -0.0319
   25DOPE   O12 3111   5.424   1.093  14.552 -0.1276 -0.5621  0.4512
   25DOPE    C1 3112   5.330   1.136  14.271 -0.0716  0.2688  0.1927
   25DOPE    HA 3113   5.345   1.044  14.210 -1.0472 -0.2845  0.7493
   25DOPE    HB 3114   5.430   1.164  14.309  0.2813 -0.4724 -0.1723
   25DOPE    C2 3115   5.277   1.244  14.178  0.1097 -0.4206 -0.1587
   25DOPE    HS 3116   5.275   1.343  14.229 -0.3088  1.0557 -2.8536
   25DOPE   O21 3117   5.148   1.213  14.126  0.4342 -0.2291 -0.1421
   25DOPE   C21 3118   5.081   1.322  14.072 -0.7770  0.0918  0.0988
   25DOPE   O22 3119   5.121   1.435  14.078 -0.2330 -0.3493  0.1979
   25DOPE   C22 3120   4.960   1.274  13.990 -0.5115  0.5062  0.3853
   25DOPE   H2R 3121   4.863   1.273  14.045 -1.1940 -0.7159 -0.7839
   25DOPE   H2S 3122   4.982   1.173  13.950 -0.4296  0.1090  1.3871
   25DOPE    C3 3123   5.383   1.281  14.068  0.6300 -0.2809  0.0484
   25DOPE    HX 3124   5.474   1.314  14.123  0.4110 -0.4710  0.5318
   25DOPE    HY 3125   5.345   1.361  14.002  1.2169 -0.4191 -0.4716
   25DOPE   O31 3126   5.418   1.174  13.980 -0.4495  0.5173  0.0940
   25DOPE   C31 3127   5.524   1.206  13.905 -0.2241 -0.1044 -0.2013
   25DOPE   O32 3128   5.581   1.314  13.910 -0.0576  0.2109  0.4741
   25DOPE   C32 3129   5.567   1.095  13.811  0.0453  0.0144 -0.5935
   25DOPE   H2X 3130   5.619   1.015  13.867  0.6689  0.9590  0.2279
   25DOPE   H2Y 3131   5.479   1.051  13.759  0.8922 -0.8581 -1.3151
   25DOPE   C23 3132   4.915   1.371  13.869 -0.1519 -0.9688 -1.1134
   25DOPE   H3R 3133   5.000   1.401  13.804 -1.8476  0.4578 -2.7890
   25DOPE   H3S 3134   4.861   1.457  13.916 -1.3902 -2.8165  1.0421
   25DOPE   C24 3135   4.816   1.301  13.782 -0.0945  0.4779 -0.2522
   25DOPE   H4R 3136   4.746   1.247  13.850  1.2377 -2.6255 -1.1496
   25DOPE   H4S 3137   4.867   1.223  13.721  0.6258 -0.9450  2.0540
   25DOPE   C25 3138   4.746   1.406  13.709 -0.3312  0.1885  0.6379
   25DOPE   H5R 3139   4.819   1.468  13.653 -1.0894  1.0052  0.5180
   25DOPE   H5S 3140   4.695   1.487  13.767 -0.4025  0.1537  0.6240
   25DOPE   C26 3141   4.648   1.349  13.607 -0.9049  0.2570 -0.0780
   25DOPE   H6R 3142   4.572   1.287  13.658 -1.8367  1.1848 -0.3121
   25DOPE   H6S 3143   4.695   1.285  13.529 -2.5189 -0.2456 -0.6808
   25DOPE   C27 3144   4.574   1.465  13.548  0.3338 -0.0776 -0.3044
   25DOPE   H7R 3145   4.637   1.517  13.472 -0.3394  0.4610 -0.4998
   25DOPE   H7S 3146   4.562   1.548  13.620  2.0752  0.2420 -0.3356
   25DOPE   C28 3147   4.456   1.417  13.461  0.4297  0.2550 -0.3256
   25DOPE   H8R 3148   4.389   1.350  13.519  0.0725  1.2799  0.4842
   25DOPE   H8S 3149   4.494   1.359  13.375  0.2753 -2.3930  1.2893
   25DOPE   C29 3150   4.361   1.519  13.416 -0.0136  0.0277  0.3776
   25DOPE   H9R 3151   4.279   1.547  13.484 -2.5525  0.3655 -2.6081
   25DOPE  C210 3152   4.363   1.569  13.292  0.4966  0.7528  0.1837
   25DOPE  H10R 3153   4.280   1.633  13.258  1.2334  1.8843  0.4495
   25DOPE  C211 3154   4.464   1.546  13.190 -0.0340  0.3236  0.4429
   25DOPE  H11R 3155   4.556   1.505  13.238 -0.7988 -2.6602 -0.4261
   25DOPE  H11S 3156   4.486   1.643  13.140 -2.9570  0.9495  0.2033
   25DOPE  C212 3157   4.427   1.441  13.085 -0.1939  0.3100 -0.4564
   25DOPE  H12R 3158   4.372   1.355  13.129 -0.1136  0.0627 -0.8366
   25DOPE  H12S 3159   4.509   1.398  13.023 -2.4756 -1.5253 -2.3973
   25DOPE  C213 3160   4.335   1.494  12.985  0.1821  0.2275  0.3052
   25DOPE  H13R 3161   4.357   1.600  12.958  0.0091  0.1200 -0.2659
   25DOPE  H13S 3162   4.229   1.508  13.014 -0.5970 -1.6276 -1.4458
   25DOPE  C214 3163   4.327   1.403  12.855  0.2778 -0.2151 -0.3250
   25DOPE  H14R 3164   4.268   1.314  12.886  0.5063  0.2097  1.3968
   25DOPE  H14S 3165   4.425   1.361  12.825  0.4434 -0.5074  0.5968
   25DOPE  C215 3166   4.257   1.478  12.739  0.1515 -0.1003  0.4139
   25DOPE  H15R 3167   4.296   1.582  12.731 -0.0885 -0.0775 -0.5486
   25DOPE  H15S 3168   4.149   1.479  12.763  0.3885 -1.3448  1.6580
   25DOPE  C216 3169   4.277   1.410  12.604  0.5377 -0.0842  0.5679
   25DOPE  H16R 3170   4.257   1.301  12.613  0.3090 -0.0708  0.2350
   25DOPE  H16S 3171   4.386   1.413  12.586  0.5745  0.7853  0.9025
   25DOPE  C217 3172   4.197   1.463  12.481 -0.1873  0.2002  0.3737
   25DOPE  H17R 3173   4.221   1.571  12.473  2.0141 -0.3212 -0.9569
   25DOPE  H17S 3174   4.087   1.450  12.492 -0.3821  1.0107 -0.4596
   25DOPE  C218 3175   4.250   1.397  12.343 -0.4062  1.3888  0.4363
   25DOPE  H18R 3176   4.237   1.288  12.358 -1.0824  1.4760  0.5466
   25DOPE  H18S 3177   4.358   1.413  12.324  0.0764  1.4855  2.8471
   25DOPE  H18T 3178   4.192   1.439  12.258  0.3396 -0.1296 -0.8807
   25DOPE   C33 3179   5.656   1.149  13.701 -0.6527  0.8279  0.1040
   25DOPE   H3X 3180   5.756   1.169  13.744  0.0034 -0.8012 -0.5593
   25DOPE   H3Y 3181   5.636   1.249  13.657 -1.0929  1.0304  0.7495
   25DOPE   C34 3182   5.675   1.039  13.594  0.1899 -0.4577 -0.0849
   25DOPE   H4X 3183   5.704   0.947  13.649  0.6863 -0.3548 -0.1692
   25DOPE   H4Y 3184   5.581   1.028  13.536  1.0237  0.2879 -1.6559
   25DOPE   C35 3185   5.786   1.053  13.488 -0.6752 -0.1628 -0.2718
   25DOPE   H5X 3186   5.809   0.954  13.445 -0.5958  0.5937 -2.0687
   25DOPE   H5Y 3187   5.880   1.081  13.542 -1.5017  1.4417  0.4104
   25DOPE   C36 3188   5.747   1.153  13.385  0.7381 -0.3286  0.3000
   25DOPE   H6X 3189   5.724   1.254  13.425 -0.7499 -0.0433 -1.1716
   25DOPE   H6Y 3190   5.648   1.124  13.343  1.4899  0.0764 -1.8467
   25DOPE   C37 3191   5.856   1.176  13.278 -0.6683  0.3039 -0.5469
   25DOPE   H7X 3192   5.823   1.262  13.216 -0.5483 -0.0486 -1.1123
   25DOPE   H7Y 3193   5.951   1.210  13.324 -0.7128  2.0223 -1.6580
   25DOPE   C38 3194   5.875   1.066  13.177  0.1122  0.1842 -1.1079
   25DOPE   H8X 3195   5.778   1.062  13.124 -1.4910  0.4150  1.6387
   25DOPE   H8Y 3196   5.894   0.967  13.223 -0.4266  0.4686 -0.2572
   25DOPE   C39 3197   5.987   1.093  13.083  0.1755  0.4932 -0.7002
   25DOPE   H9X 3198   6.085   1.056  13.119 -1.6636 -1.9915  2.2118
   25DOPE  C310 3199   5.984   1.166  12.971  0.3325 -0.2435 -0.4040
   25DOPE  H10X 3200   6.071   1.182  12.907  1.5189  1.9021  1.5776
   25DOPE  C311 3201   5.864   1.240  12.912  1.0084 -1.0588 -0.4733
   25DOPE  H11X 3202   5.783   1.251  12.987  0.0945 -0.1585 -1.5602
   25DOPE  H11Y 3203   5.906   1.340  12.888  0.0150 -0.1894  1.1820
   25DOPE  C312 3204   5.801   1.170  12.791  0.0976  0.1953 -0.0980
   25DOPE  H12X 3205   5.768   1.073  12.833 -1.8022  1.3738  1.2807
   25DOPE  H12Y 3206   5.872   1.173  12.705 -1.8906  3.8243 -1.8573
   25DOPE  C313 3207   5.680   1.245  12.743 -0.5528 -0.1463 -0.1613
   25DOPE  H13X 3208   5.609   1.277  12.823 -1.6222 -1.4882 -0.5254
   25DOPE  H13Y 3209   5.715   1.341  12.700  1.8850 -0.9857 -0.1774
   25DOPE  C314 3210   5.605   1.171  12.629  0.8670  0.0461 -0.3138
   25DOPE  H14X 3211   5.502   1.209  12.616  1.0722  1.0675  0.8225
   25DOPE  H14Y 3212   5.598   1.066  12.663 -1.9213  0.3884  0.4304
   25DOPE  C315 3213   5.679   1.181  12.492 -0.9972 -0.5859  0.0886
   25DOPE  H15X 3214   5.628   1.103  12.432 -2.8207 -0.3891  1.2908
   25DOPE  H15Y 3215   5.789   1.164  12.503 -0.9586 -0.6437 -0.3887
   25DOPE  C316 3216   5.662   1.316  12.424 -0.2485  0.0132  0.7110
   25DOPE  H16X 3217   5.720   1.382  12.492 -1.1452  1.4802  0.0935
   25DOPE  H16Y 3218   5.558   1.355  12.434 -0.0270  0.5840  0.8190
   25DOPE  C317 3219   5.697   1.312  12.279  0.3474 -0.1076 -0.0520
   25DOPE  H17X 3220   5.785   1.245  12.282 -0.1196 -0.8491  4.5551
   25DOPE  H17Y 3221   5.629   1.255  12.213  0.3563 -1.1613  0.8186
   25DOPE  C318 3222   5.733   1.443  12.224 -0.6862  0.0089  0.1679
   25DOPE  H18X 3223   5.643   1.506  12.231  0.0514  1.1560 -0.3914
   25DOPE  H18Y 3224   5.811   1.496  12.283  0.8032  1.0894 -2.5575
   25DOPE  H18Z 3225   5.775   1.437  12.121  1.4372  3.1026  0.7029
   26DOPE     N 3226   5.952   2.530  14.725  0.2362 -0.4855 -0.0504
   26DOPE   HN1 3227   5.988   2.572  14.636 -0.6372  0.4524  0.0306
   26DOPE   HN2 3228   5.886   2.601  14.762 -0.0242 -0.4102 -0.6454
   26DOPE   HN3 3229   6.025   2.517  14.798 -1.1509 -1.7467  1.1511
   26DOPE   C12 3230   5.865   2.405  14.708  0.8437  0.1148 -0.3493
   26DOPE  H12A 3231   5.767   2.440  14.669  0.8931  2.9852  1.8527
   26DOPE  H12B 3232   5.835   2.364  14.806 -2.1334 -2.0978 -2.0168
   26DOPE   C11 3233   5.929   2.293  14.616 -0.2273  0.2062 -0.0516
   26DOPE  H11A 3234   5.897   2.326  14.515 -1.4149  0.5157  0.4065
   26DOPE  H11B 3235   5.877   2.196  14.634  0.5009 -0.5377 -1.7184
   26DOPE     P 3236   6.149   2.160  14.620 -0.0517  0.2080  0.2244
   26DOPE   O13 3237   6.085   2.054  14.706 -0.3080  0.4461  0.0861
   26DOPE   O14 3238   6.287   2.189  14.664 -0.2553 -0.2258  0.5332
   26DOPE   O11 3239   6.134   2.109  14.474  0.7146 -0.0095  0.0169
   26DOPE   O12 3240   6.069   2.286  14.624 -0.2217 -0.6025 -0.2692
   26DOPE    C1 3241   6.014   2.029  14.437  0.6170  0.8112 -0.1436
   26DOPE    HA 3242   5.978   2.088  14.350  1.7363  2.1135  0.2374
   26DOPE    HB 3243   5.939   2.018  14.518  2.0227  0.7534  1.1952
   26DOPE    C2 3244   6.042   1.887  14.397  0.2228  0.3078 -0.6104
   26DOPE    HS 3245   6.060   1.830  14.491 -0.2833  0.1338 -0.6164
   26DOPE   O21 3246   6.163   1.886  14.309 -0.4642  0.3142 -0.7593
   26DOPE   C21 3247   6.218   1.771  14.280 -0.5667 -0.4958  0.1357
   26DOPE   O22 3248   6.183   1.666  14.336 -0.1957  0.4478  0.9457
   26DOPE   C22 3249   6.324   1.785  14.181  0.2528  0.4518  0.5270
   26DOPE   H2R 3250   6.359   1.682  14.159  0.8497  0.2137  2.4161
   26DOPE   H2S 3251   6.404   1.848  14.225 -1.3445  1.7948  1.6364
   26DOPE    C3 3252   5.927   1.826  14.321  0.6953  1.0621  0.3696
   26DOPE    HX 3253   5.836   1.826  14.383 -0.3587  0.1787 -1.1207
   26DOPE    HY 3254   5.945   1.722  14.287  0.0646  1.1065 -0.1189
   26DOPE   O31 3255   5.897   1.912  14.209 -0.2555  0.0841  0.0481
   26DOPE   C31 3256   5.943   1.872  14.086  0.6503  0.0365  0.0815
   26DOPE   O32 3257   5.986   1.759  14.063 -0.0510 -0.1365  0.1618
   26DOPE   C32 3258   5.942   1.993  13.989  0.5561  0.3117  0.5540
   26DOPE   H2X 3259   5.856   2.061  14.005  0.1573  0.7581 -2.8032
   26DOPE   H2Y 3260   6.028   2.056  14.021 -1.5809  2.2295  2.9513
   26DOPE   C23 3261   6.288   1.828  14.039  0.5396 -0.5920  0.4095
   26DOPE   H3R 3262   6.224   1.918  14.043  1.0388 -0.1704 -0.6858
   26DOPE   H3S 3263   6.226   1.760  13.976 -2.4012  1.1128  1.2841
   26DOPE   C24 3264   6.413   1.864  13.962 -0.0905 -0.0140 -0.0488
   26DOPE   H4R 3265   6.493   1.787  13.958  1.2235  1.3667 -2.4498
   26DOPE   H4S 3266   6.456   1.947  14.023  2.3826 -0.8333 -0.5833
   26DOPE   C25 3267   6.376   1.936  13.833  0.4111  0.3562 -0.6841
   26DOPE   H5R 3268   6.431   2.033  13.830  1.9369 -0.3535  1.4359
   26DOPE   H5S 3269   6.272   1.974  13.837  0.8498  1.5576  2.3426
   26DOPE   C26 3270   6.381   1.846  13.718 -0.1632 -1.2979  0.6975
   26DOPE   H6R 3271   6.339   1.749  13.750 -0.1517 -1.2479  0.8651
   26DOPE   H6S 3272   6.486   1.821  13.691  0.6636  0.4085  2.0870
   26DOPE   C27 3273   6.319   1.911  13.597 -0.2844  0.2610 -0.0071
   26DOPE   H7R 3274   6.341   2.020  13.595 -1.0683  0.4405  0.5443
   26DOPE   H7S 3275   6.209   1.906  13.615 -0.3256  0.5963 -0.1537
   26DOPE   C28 3276   6.335   1.831  13.468 -0.8129  0.1347  0.1831
   26DOPE   H8R 3277   6.255   1.865  13.398 -0.4763 -1.1236 -0.8528
   26DOPE   H8S 3278   6.316   1.727  13.501 -0.9719  0.4964  1.2512
   26DOPE   C29 3279   6.470   1.850  13.409  0.5829  0.4452  0.0504
   26DOPE   H9R 3280   6.554   1.856  13.480  0.9036  3.4135 -0.4224
   26DOPE  C210 3281   6.494   1.871  13.282 -0.1167  0.0561 -0.1797
   26DOPE  H10R 3282   6.595   1.872  13.238 -0.5516 -1.7225 -1.3246
   26DOPE  C211 3283   6.395   1.873  13.174 -0.1853  0.6116  0.2053
   26DOPE  H11R 3284   6.326   1.957  13.195 -2.0598 -0.6222 -0.7506
   26DOPE  H11S 3285   6.340   1.777  13.170  0.7681  0.0914 -1.2589
   26DOPE  C212 3286   6.465   1.901  13.035  0.3772 -0.3757 -0.7578
   26DOPE  H12R 3287   6.541   1.821  13.024 -0.9833 -1.6132 -1.6478
   26DOPE  H12S 3288   6.516   1.998  13.052  0.0981 -0.5630  1.5169
   26DOPE  C213 3289   6.364   1.889  12.919 -0.0086 -0.2628  0.0882
   26DOPE  H13R 3290   6.299   1.810  12.962  0.2922 -0.1792  0.6942
   26DOPE  H13S 3291   6.429   1.864  12.832 -0.5883 -2.0325  0.1207
   26DOPE  C214 3292   6.276   2.012  12.895  0.2082  0.3438  0.5613
   26DOPE  H14R 3293   6.353   2.092  12.888 -1.7529  2.2488 -0.3868
   26DOPE  H14S 3294   6.222   2.030  12.990 -1.1695 -1.5063  0.1864
   26DOPE  C215 3295   6.184   2.017  12.771 -0.1927  0.1657  0.4537
   26DOPE  H15R 3296   6.099   1.948  12.790  0.5297 -1.0521 -0.6217
   26DOPE  H15S 3297   6.240   1.985  12.681  1.1510  0.8170  1.0299
   26DOPE  C216 3298   6.138   2.155  12.737 -0.0701 -0.3304  0.4014
   26DOPE  H16R 3299   6.219   2.230  12.727 -0.2328 -0.2242 -0.2064
   26DOPE  H16S 3300   6.071   2.203  12.811 -1.5505  2.1388 -2.3054
   26DOPE  C217 3301   6.040   2.157  12.611  0.4197 -0.0394 -0.0352
   26DOPE  H17R 3302   6.091   2.103  12.529 -0.4157 -0.5593 -0.2335
   26DOPE  H17S 3303   6.030   2.262  12.575 -0.4199  0.1668  0.7718
   26DOPE  C218 3304   5.901   2.101  12.643 -0.0882  0.2431  0.2224
   26DOPE  H18R 3305   5.851   2.166  12.718  1.4368 -2.3334  3.7791
   26DOPE  H18S 3306   5.908   2.001  12.692  0.0676  0.3250  0.3652
   26DOPE  H18T 3307   5.841   2.085  12.551 -0.8367 -3.8952  1.2326
   26DOPE   C33 3308   5.953   1.956  13.838 -0.2767 -0.4728  0.4410
   26DOPE   H3X 3309   6.043   1.892  13.823  0.9649  0.4057  3.3513
   26DOPE   H3Y 3310   5.981   2.049  13.785  0.3727  0.2806  2.0325
   26DOPE   C34 3311   5.831   1.885  13.783 -0.5202  0.3005  0.0461
   26DOPE   H4X 3312   5.823   1.790  13.841  0.0323 -1.3439 -2.4129
   26DOPE   H4Y 3313   5.733   1.934  13.802 -1.3827 -1.0339 -0.7827
   26DOPE   C35 3314   5.849   1.843  13.638 -0.7404 -0.4281 -0.3404
   26DOPE   H5X 3315   5.946   1.789  13.626 -0.1986  0.6298 -0.8581
   26DOPE   H5Y 3316   5.858   1.937  13.579 -0.8499 -0.0071  0.3134
   26DOPE   C36 3317   5.734   1.761  13.599  0.5196  0.0645  0.1617
   26DOPE   H6X 3318   5.640   1.816  13.621  0.3229 -0.2294  0.0515
   26DOPE   H6Y 3319   5.737   1.669  13.661 -1.6201 -0.0981  0.0766
   26DOPE   C37 3320   5.750   1.728  13.450 -0.1442 -0.2333 -0.1472
   26DOPE   H7X 3321   5.775   1.823  13.397 -0.9544 -0.5503 -1.1352
   26DOPE   H7Y 3322   5.845   1.675  13.429  0.0987  0.4163 -0.7667
   26DOPE   C38 3323   5.620   1.682  13.375  0.1785  1.0361 -0.2356
   26DOPE   H8X 3324   5.642   1.697  13.268  0.9466  0.5587 -0.1567
   26DOPE   H8Y 3325   5.539   1.757  13.386 -1.0101 -0.0701 -1.2045
   26DOPE   C39 3326   5.578   1.545  13.414 -0.4527  0.1971  0.1067
   26DOPE   H9X 3327   5.587   1.521  13.521 -0.8338 -1.9588 -0.3014
   26DOPE  C310 3328   5.541   1.453  13.323  0.4877  0.7768 -0.0810
   26DOPE  H10X 3329   5.526   1.352  13.366  2.5635  0.8378  0.9343
   26DOPE  C311 3330   5.537   1.457  13.172 -0.0131  0.2459  0.1109
   26DOPE  H11X 3331   5.592   1.543  13.128  0.5464 -0.2257 -0.1272
   26DOPE  H11Y 3332   5.577   1.365  13.125 -2.7024 -0.7056 -0.4888
   26DOPE  C312 3333   5.389   1.459  13.124 -0.2703 -0.0004 -0.1918
   26DOPE  H12X 3334   5.368   1.566  13.144  0.8236  0.2501 -0.3030
   26DOPE  H12Y 3335   5.330   1.382  13.179  0.8966 -0.2800  0.7372
   26DOPE  C313 3336   5.372   1.436  12.971 -0.5326 -0.2018 -0.0381
   26DOPE  H13X 3337   5.441   1.500  12.911 -2.2616  1.9831  0.1545
   26DOPE  H13Y 3338   5.398   1.331  12.945  1.4508  0.4099 -0.7275
   26DOPE  C314 3339   5.233   1.463  12.924 -0.3061  0.5617  0.2187
   26DOPE  H14X 3340   5.202   1.566  12.953  0.5226  0.5755  1.0946
   26DOPE  H14Y 3341   5.165   1.403  12.988  0.3772  1.2580  1.6599
   26DOPE  C315 3342   5.208   1.443  12.770 -0.9957 -0.7719  0.3495
   26DOPE  H15X 3343   5.239   1.340  12.742  0.0401 -0.2150 -0.6596
   26DOPE  H15Y 3344   5.269   1.518  12.714 -0.6231 -1.9960 -0.9497
   26DOPE  C316 3345   5.058   1.470  12.720  0.1445  0.3878  0.0655
   26DOPE  H16X 3346   5.060   1.484  12.610  1.1896  0.6997  0.1084
   26DOPE  H16Y 3347   5.035   1.570  12.763  1.3188  1.3513 -1.4348
   26DOPE  C317 3348   4.963   1.367  12.772  1.0859 -0.1038  0.5070
   26DOPE  H17X 3349   5.010   1.268  12.755 -0.1232 -0.5212 -0.6594
   26DOPE  H17Y 3350   4.949   1.385  12.881 -1.7080 -0.7971  0.3620
   26DOPE  C318 3351   4.822   1.370  12.711  0.6325  0.1170  0.1973
   26DOPE  H18X 3352   4.752   1.303  12.764 -1.1401  0.4216 -1.6225
   26DOPE  H18Y 3353   4.778   1.471  12.720  1.6740  0.4503  2.0665
   26DOPE  H18Z 3354   4.835   1.346  12.603  1.5222  1.1681  0.0477
   27DOPE     N 3355   3.316   0.947  14.990 -0.1533  0.1795  0.7115
   27DOPE   HN1 3356   3.295   1.049  14.995  1.9669  0.6834  0.3188
   27DOPE   HN2 3357   3.241   0.897  14.937  0.4605  0.8937 -0.8970
   27DOPE   HN3 3358   3.317   0.914  15.089  0.0712  2.4555  1.5376
   27DOPE   C12 3359   3.442   0.930  14.913 -0.0426  0.3116 -0.5527
   27DOPE  H12A 3360   3.451   0.823  14.885 -0.5372  0.4929 -1.4284
   27DOPE  H12B 3361   3.521   0.960  14.986 -1.2871  1.2206  0.4734
   27DOPE   C11 3362   3.424   1.022  14.789  0.3551  0.1597 -0.3040
   27DOPE  H11A 3363   3.342   0.974  14.732 -1.0654  0.9563  0.9750
   27DOPE  H11B 3364   3.519   1.009  14.733  0.6238 -0.2355  0.2334
   27DOPE     P 3365   3.443   1.280  14.729 -0.0465 -0.5248 -0.2205
   27DOPE   O13 3366   3.587   1.305  14.762  1.0359 -0.5014  0.0307
   27DOPE   O14 3367   3.351   1.395  14.734 -0.4063 -0.3987 -0.2397
   27DOPE   O11 3368   3.453   1.235  14.578 -0.0511 -0.2362  0.3190
   27DOPE   O12 3369   3.386   1.154  14.819 -0.4889 -0.6244  0.5367
   27DOPE    C1 3370   3.331   1.184  14.523  1.2338  0.3255 -0.7651
   27DOPE    HA 3371   3.234   1.203  14.574  0.8400  3.3461 -2.3437
   27DOPE    HB 3372   3.336   1.074  14.515 -0.5183  0.2517 -1.1324
   27DOPE    C2 3373   3.294   1.222  14.371 -0.3379 -0.0671 -0.6546
   27DOPE    HS 3374   3.234   1.141  14.323 -0.0833 -0.2804 -0.6157
   27DOPE   O21 3375   3.402   1.251  14.288  0.0231 -0.2498 -0.3752
   27DOPE   C21 3376   3.476   1.145  14.260  0.7514  0.1968  0.5965
   27DOPE   O22 3377   3.452   1.033  14.298  0.1305 -0.0518 -0.1529
   27DOPE   C22 3378   3.588   1.184  14.165 -0.0451  0.5255 -0.0806
   27DOPE   H2R 3379   3.632   1.094  14.116  0.4626  0.7924 -0.1164
   27DOPE   H2S 3380   3.668   1.224  14.230  1.1222 -1.0578 -0.4732
   27DOPE    C3 3381   3.200   1.339  14.363  0.8469  0.1280  0.0426
   27DOPE    HX 3382   3.248   1.430  14.405 -1.0727  0.2909  2.1078
   27DOPE    HY 3383   3.117   1.320  14.434  0.6160  1.2101  0.0783
   27DOPE   O31 3384   3.151   1.356  14.226 -0.2190 -0.0688  0.3663
   27DOPE   C31 3385   3.037   1.288  14.186  0.2678  0.4125 -1.1175
   27DOPE   O32 3386   2.982   1.203  14.254  0.0998  0.7485  0.2211
   27DOPE   C32 3387   3.005   1.335  14.046 -0.2630  0.0328  0.8554
   27DOPE   H2X 3388   2.986   1.250  13.978  1.5690  1.0896 -1.0982
   27DOPE   H2Y 3389   2.912   1.396  14.052  0.3470  0.8962  1.9521
   27DOPE   C23 3390   3.539   1.287  14.054 -0.1166 -0.3701  0.1596
   27DOPE   H3R 3391   3.525   1.383  14.107  1.5629 -0.2302  0.4294
   27DOPE   H3S 3392   3.442   1.256  14.011 -0.9046  0.6424  1.1582
   27DOPE   C24 3393   3.632   1.287  13.936  0.2907  0.2964  0.4324
   27DOPE   H4R 3394   3.647   1.186  13.892 -0.8889  0.6876 -0.9315
   27DOPE   H4S 3395   3.730   1.332  13.964  0.0573  1.6413 -0.8068
   27DOPE   C25 3396   3.583   1.375  13.823  0.1103 -0.0946  0.4411
   27DOPE   H5R 3397   3.589   1.482  13.854  1.7806  0.5197 -1.7767
   27DOPE   H5S 3398   3.475   1.362  13.799 -0.1300  1.2960  0.6423
   27DOPE   C26 3399   3.660   1.359  13.692 -0.5089  0.2935 -0.3148
   27DOPE   H6R 3400   3.647   1.257  13.650 -0.7405  0.0296  0.3905
   27DOPE   H6S 3401   3.767   1.380  13.712 -0.6204 -0.3256  1.0266
   27DOPE   C27 3402   3.614   1.463  13.591  0.2705 -0.0420 -0.0103
   27DOPE   H7R 3403   3.648   1.561  13.629  2.2206 -1.0380  0.9623
   27DOPE   H7S 3404   3.503   1.458  13.600  0.2051  0.3199 -0.5679
   27DOPE   C28 3405   3.654   1.437  13.444  0.1402 -0.0918 -0.5152
   27DOPE   H8R 3406   3.602   1.345  13.410 -0.9863  0.1456  0.5172
   27DOPE   H8S 3407   3.761   1.405  13.446 -0.1400 -1.0579 -0.7316
   27DOPE   C29 3408   3.630   1.564  13.368 -0.2064 -0.4391  0.0969
   27DOPE   H9R 3409   3.644   1.659  13.422 -2.6262 -0.5892  1.1564
   27DOPE  C210 3410   3.575   1.586  13.246  0.2395  0.4773  0.1500
   27DOPE  H10R 3411   3.564   1.691  13.215  1.7302  0.5644 -0.1632
   27DOPE  C211 3412   3.543   1.478  13.155 -0.0335  0.7792  0.4276
   27DOPE  H11R 3413   3.432   1.476  13.157 -0.0232 -0.7097  0.0740
   27DOPE  H11S 3414   3.580   1.376  13.178  1.5502  1.0604 -0.6852
   27DOPE  C212 3415   3.588   1.503  13.012 -0.2684 -0.8610  1.0665
   27DOPE  H12R 3416   3.580   1.603  12.965 -0.5313 -1.8631 -1.1277
   27DOPE  H12S 3417   3.524   1.437  12.949  0.6544  0.4062 -1.2899
   27DOPE  C213 3418   3.733   1.456  12.992 -0.5780 -0.1280 -0.1641
   27DOPE  H13R 3419   3.748   1.348  13.009  1.2856  0.0465 -0.4950
   27DOPE  H13S 3420   3.808   1.492  13.065  1.1100 -1.0602 -1.3582
   27DOPE  C214 3421   3.785   1.495  12.853  0.2364 -0.3150 -0.6688
   27DOPE  H14R 3422   3.885   1.446  12.845  0.9750  1.2350 -1.4524
   27DOPE  H14S 3423   3.813   1.602  12.846 -1.5255  0.3976  1.7844
   27DOPE  C215 3424   3.693   1.456  12.738 -0.1604  0.1451 -0.2952
   27DOPE  H15R 3425   3.605   1.523  12.728 -1.7486 -1.9591 -1.2332
   27DOPE  H15S 3426   3.648   1.354  12.747 -0.7828  0.0981 -3.1476
   27DOPE  C216 3427   3.779   1.447  12.609  0.2637 -0.2757  0.1321
   27DOPE  H16R 3428   3.849   1.362  12.599  1.1286  0.4418 -0.0718
   27DOPE  H16S 3429   3.847   1.534  12.619 -0.7537  0.3223  2.4891
   27DOPE  C217 3430   3.697   1.467  12.478 -0.1194  0.1565 -0.1844
   27DOPE  H17R 3431   3.647   1.565  12.464 -0.0718 -0.0707 -2.4113
   27DOPE  H17S 3432   3.614   1.395  12.457 -1.5593  2.2189 -2.0510
   27DOPE  C218 3433   3.797   1.457  12.361 -0.2662 -0.2557  0.6109
   27DOPE  H18R 3434   3.747   1.453  12.262  0.2381  0.3269  0.3269
   27DOPE  H18S 3435   3.855   1.363  12.353  0.6639  0.4570 -2.8203
   27DOPE  H18T 3436   3.864   1.546  12.360 -0.2995 -0.2345  0.0821
   27DOPE   C33 3437   3.110   1.420  13.970 -0.0957 -0.3320  0.3283
   27DOPE   H3X 3438   3.202   1.359  13.962 -1.6671 -2.7989 -0.2354
   27DOPE   H3Y 3439   3.145   1.505  14.032  1.0129  0.2470 -1.0223
   27DOPE   C34 3440   3.067   1.471  13.833  0.3561  0.0296 -0.2261
   27DOPE   H4X 3441   3.027   1.379  13.783  1.8349 -0.9879  0.3802
   27DOPE   H4Y 3442   2.986   1.546  13.841 -0.0505 -0.4371  0.0762
   27DOPE   C35 3443   3.178   1.519  13.743  0.5884  0.3238  0.4457
   27DOPE   H5X 3444   3.256   1.440  13.745 -0.9400 -1.2630 -0.5500
   27DOPE   H5Y 3445   3.222   1.613  13.782  0.0215  0.3258  1.0821
   27DOPE   C36 3446   3.124   1.547  13.604  0.3658  0.3271  0.0957
   27DOPE   H6X 3447   3.037   1.615  13.610 -1.8286 -2.3940  1.4757
   27DOPE   H6Y 3448   3.089   1.451  13.561  1.8270  0.6886 -2.0407
   27DOPE   C37 3449   3.230   1.596  13.504  0.4292  0.9709  0.1207
   27DOPE   H7X 3450   3.243   1.702  13.535 -0.6875  1.3220 -0.5810
   27DOPE   H7Y 3451   3.323   1.535  13.510 -0.0468  0.2713  0.4661
   27DOPE   C38 3452   3.173   1.605  13.358 -0.3801  0.5362 -0.1863
   27DOPE   H8X 3453   3.152   1.500  13.329 -2.0066  0.9122 -0.4544
   27DOPE   H8Y 3454   3.262   1.631  13.298  1.5221 -3.2376  0.6976
   27DOPE   C39 3455   3.061   1.710  13.336 -0.4468  0.4020  0.5578
   27DOPE   H9X 3456   2.965   1.693  13.386 -1.6884  1.8251 -1.2225
   27DOPE  C310 3457   3.067   1.812  13.251  0.3195 -0.4309 -0.0184
   27DOPE  H10X 3458   2.990   1.889  13.234  0.1166 -0.6400 -0.0408
   27DOPE  C311 3459   3.175   1.835  13.152  0.4747  0.0604  0.0823
   27DOPE  H11X 3460   3.192   1.943  13.129 -0.8963 -0.2285 -2.8275
   27DOPE  H11Y 3461   3.279   1.806  13.179  0.2945  0.8586  1.7581
   27DOPE  C312 3462   3.144   1.762  13.019  0.1256 -0.2178  0.3078
   27DOPE  H12X 3463   3.064   1.811  12.960 -2.5751 -1.5141  2.6211
   27DOPE  H12Y 3464   3.100   1.661  13.035  0.3865 -0.3908 -0.0644
   27DOPE  C313 3465   3.274   1.748  12.940  0.0088 -0.1309  0.7413
   27DOPE  H13X 3466   3.333   1.842  12.932 -1.3543  0.5897 -2.1919
   27DOPE  H13Y 3467   3.342   1.678  12.993 -0.2023 -0.7177  0.2445
   27DOPE  C314 3468   3.249   1.711  12.795  0.1659 -0.5755 -0.0791
   27DOPE  H14X 3469   3.186   1.619  12.800  0.5532 -0.8194  0.3600
   27DOPE  H14Y 3470   3.339   1.673  12.742  0.6948  1.5015 -0.7257
   27DOPE  C315 3471   3.191   1.819  12.711 -0.2190  0.4109 -0.4817
   27DOPE  H15X 3472   3.093   1.863  12.743  0.0559  1.3679 -0.9023
   27DOPE  H15Y 3473   3.159   1.772  12.616  0.9201 -0.5589 -0.4026
   27DOPE  C316 3474   3.290   1.932  12.673 -0.3568 -0.3245 -0.1564
   27DOPE  H16X 3475   3.377   1.889  12.619 -0.6111 -0.2964 -0.5916
   27DOPE  H16Y 3476   3.333   1.981  12.763 -0.3366 -0.9508  0.1849
   27DOPE  C317 3477   3.233   2.039  12.583  0.5828 -0.7405  0.1016
   27DOPE  H17X 3478   3.162   2.107  12.634  0.5706  0.7021 -1.7667
   27DOPE  H17Y 3479   3.312   2.112  12.557 -0.4384 -0.1496 -1.4556
   27DOPE  C318 3480   3.178   1.989  12.447 -0.0235  0.0913  0.3648
   27DOPE  H18X 3481   3.079   1.938  12.444  0.0710 -0.0604 -1.1149
   27DOPE  H18Y 3482   3.180   2.080  12.383 -0.1802 -0.5965 -0.6429
   27DOPE  H18Z 3483   3.246   1.915  12.399  0.1627  0.5096 -0.0289
   28DOPE     N 3484   4.439   0.989  14.580  0.3624 -0.5187  0.2400
   28DOPE   HN1 3485   4.506   1.067  14.571 -0.7140  0.6837  2.1355
   28DOPE   HN2 3486   4.348   1.027  14.612  0.3140 -1.8233  1.7842
   28DOPE   HN3 3487   4.478   0.931  14.657 -2.1795 -0.1135  1.9427
   28DOPE   C12 3488   4.398   0.915  14.454  0.3706 -0.1234 -0.5263
   28DOPE  H12A 3489   4.364   0.812  14.476 -0.7447 -0.0501 -1.7605
   28DOPE  H12B 3490   4.495   0.907  14.400  1.4738 -0.9313  1.4680
   28DOPE   C11 3491   4.291   0.991  14.367 -0.6030 -0.0697  0.0429
   28DOPE  H11A 3492   4.277   0.933  14.274  1.1113  0.0523 -0.3351
   28DOPE  H11B 3493   4.324   1.091  14.333 -1.2365 -0.3886 -1.5919
   28DOPE     P 3494   4.121   1.104  14.545 -0.4014 -0.5412  0.0334
   28DOPE   O13 3495   4.224   1.137  14.646  0.0489  0.4327 -0.1184
   28DOPE   O14 3496   3.989   1.065  14.604  0.5699 -0.4082 -0.4604
   28DOPE   O11 3497   4.111   1.232  14.441  0.7733  0.2809 -0.5494
   28DOPE   O12 3498   4.169   0.994  14.437  0.1545  0.0934  0.2444
   28DOPE    C1 3499   3.988   1.293  14.403 -0.0461  0.5895 -0.5757
   28DOPE    HA 3500   3.982   1.386  14.464 -1.9501 -0.2013  0.5285
   28DOPE    HB 3501   3.894   1.244  14.435  0.1192  0.6515  0.0213
   28DOPE    C2 3502   3.978   1.305  14.250 -0.6134  0.3702 -0.6866
   28DOPE    HS 3503   4.077   1.350  14.229  0.3672 -0.7795  1.1678
   28DOPE   O21 3504   3.879   1.391  14.201  0.4727 -0.2649 -0.9246
   28DOPE   C21 3505   3.910   1.517  14.164 -0.2373  0.5072  0.5033
   28DOPE   O22 3506   4.021   1.567  14.165 -0.0144  0.3899 -0.0540
   28DOPE   C22 3507   3.791   1.598  14.131  0.3246 -0.1882  0.3054
   28DOPE   H2R 3508   3.755   1.653  14.220 -0.3478  1.7597 -1.0817
   28DOPE   H2S 3509   3.709   1.530  14.100 -0.5908 -0.1630  2.4958
   28DOPE    C3 3510   3.981   1.160  14.187  0.0927 -0.1549 -0.9317
   28DOPE    HX 3511   3.891   1.111  14.228 -2.2016  2.5588 -2.3690
   28DOPE    HY 3512   4.074   1.117  14.229 -0.5288  0.4954  1.2090
   28DOPE   O31 3513   3.966   1.157  14.045  0.1026  0.5210  0.1310
   28DOPE   C31 3514   4.080   1.163  13.981  0.4646 -0.0506  0.1422
   28DOPE   O32 3515   4.190   1.173  14.030 -0.0275  0.0230  0.0840
   28DOPE   C32 3516   4.040   1.167  13.832  0.2281  0.3731 -0.7367
   28DOPE   H2X 3517   3.980   1.080  13.799  0.0639 -1.0438  2.8124
   28DOPE   H2Y 3518   3.958   1.241  13.819  0.3484  0.8935  1.1774
   28DOPE   C23 3519   3.822   1.717  14.039 -0.2818 -0.0563 -0.2287
   28DOPE   H3R 3520   3.905   1.779  14.078  0.7697 -0.6620 -1.4208
   28DOPE   H3S 3521   3.732   1.782  14.046 -0.1880 -0.0709  1.2965
   28DOPE   C24 3522   3.852   1.672  13.899 -0.3386  0.2089 -0.6151
   28DOPE   H4R 3523   3.763   1.614  13.867 -0.7420 -0.2507  1.2335
   28DOPE   H4S 3524   3.930   1.593  13.906 -1.2292 -0.5699  1.7452
   28DOPE   C25 3525   3.889   1.779  13.798 -0.4032  0.4632 -0.1999
   28DOPE   H5R 3526   3.952   1.857  13.845  0.2503  0.7176 -1.4613
   28DOPE   H5S 3527   3.802   1.838  13.762 -1.7822 -1.0767  0.4353
   28DOPE   C26 3528   3.973   1.733  13.682 -0.0893  0.0980  0.1474
   28DOPE   H6R 3529   3.904   1.667  13.626 -0.1791  0.6938 -0.4554
   28DOPE   H6S 3530   4.071   1.687  13.708  0.3537  0.5027 -0.7554
   28DOPE   C27 3531   4.009   1.849  13.584 -0.0782  0.1688 -0.6208
   28DOPE   H7R 3532   4.049   1.928  13.651 -2.3482 -1.1436  2.5426
   28DOPE   H7S 3533   3.911   1.895  13.557  0.1084  2.2969  1.8806
   28DOPE   C28 3534   4.098   1.812  13.467  0.1290  0.1243 -0.5775
   28DOPE   H8R 3535   4.199   1.780  13.499  0.2412 -0.1500 -1.2037
   28DOPE   H8S 3536   4.107   1.903  13.404  0.2787  1.1552  0.8832
   28DOPE   C29 3537   4.030   1.705  13.385 -0.2702  0.8448  0.3360
   28DOPE   H9R 3538   4.016   1.606  13.429  0.7604 -0.4220 -2.0235
   28DOPE  C210 3539   3.983   1.718  13.264  0.5160 -0.2246  0.2668
   28DOPE  H10R 3540   3.934   1.632  13.216  0.3805 -0.0003  0.0004
   28DOPE  C211 3541   3.989   1.840  13.184  0.0625 -0.7720  0.8062
   28DOPE  H11R 3542   4.085   1.865  13.135 -0.6931 -3.2227 -2.2899
   28DOPE  H11S 3543   3.959   1.930  13.242  3.0774  0.4995  0.5292
   28DOPE  C212 3544   3.890   1.830  13.064  0.1442 -0.1577  0.0734
   28DOPE  H12R 3545   3.790   1.821  13.113  0.0197  0.6787 -0.0203
   28DOPE  H12S 3546   3.917   1.734  13.015  2.4562  0.4364  0.0719
   28DOPE  C213 3547   3.883   1.951  12.971 -0.4091 -0.5284 -0.2458
   28DOPE  H13R 3548   3.985   1.993  12.975 -1.0402  0.9892  0.6911
   28DOPE  H13S 3549   3.820   2.035  13.007  2.0845 -0.0761  3.5588
   28DOPE  C214 3550   3.841   1.893  12.838  0.4725  0.0185 -0.0976
   28DOPE  H14R 3551   3.736   1.857  12.854  0.7280  0.1954  2.2864
   28DOPE  H14S 3552   3.895   1.799  12.813  1.1810  0.8977 -2.0876
   28DOPE  C215 3553   3.858   1.984  12.715  0.3212 -0.4628  0.2546
   28DOPE  H15R 3554   3.965   2.003  12.689 -0.1097  0.7211 -0.8069
   28DOPE  H15S 3555   3.818   2.085  12.738 -0.4881 -0.1434 -2.2592
   28DOPE  C216 3556   3.785   1.914  12.596  0.0316 -0.1618 -0.3962
   28DOPE  H16R 3557   3.702   1.855  12.640  1.3453 -1.2713  0.6995
   28DOPE  H16S 3558   3.847   1.837  12.545  1.1950 -0.5339  1.4530
   28DOPE  C217 3559   3.729   2.019  12.496 -0.0565 -0.6047  0.1976
   28DOPE  H17R 3560   3.655   2.082  12.549  1.3149  0.3668  1.0126
   28DOPE  H17S 3561   3.691   1.951  12.416 -0.1040 -0.9068  0.4719
   28DOPE  C218 3562   3.832   2.108  12.432  0.2173  0.4538  0.0234
   28DOPE  H18R 3563   3.783   2.163  12.349 -0.8010 -0.2063  0.1774
   28DOPE  H18S 3564   3.909   2.043  12.386 -0.8098 -1.2626  0.6580
   28DOPE  H18T 3565   3.878   2.180  12.504 -0.4910 -1.4373  2.4958
   28DOPE   C33 3566   4.160   1.176  13.744  0.8100  0.1942  0.0708
   28DOPE   H3X 3567   4.208   1.080  13.773  1.7279  0.8996  0.9592
   28DOPE   H3Y 3568   4.228   1.262  13.762 -1.5542  2.1152  0.3534
   28DOPE   C34 3569   4.142   1.165  13.597  0.1586  0.0929  0.0543
   28DOPE   H4X 3570   4.241   1.162  13.546 -0.0111 -2.9299 -0.2885
   28DOPE   H4Y 3571   4.085   1.073  13.569 -0.0654  0.5943 -1.2064
   28DOPE   C35 3572   4.064   1.280  13.531 -0.0038 -0.5741 -0.7687
   28DOPE   H5X 3573   4.105   1.376  13.571 -0.2089 -0.4371 -0.8871
   28DOPE   H5Y 3574   3.955   1.274  13.550  0.1601 -0.5743  0.2010
   28DOPE   C36 3575   4.087   1.283  13.379 -0.2677 -0.0986 -0.3761
   28DOPE   H6X 3576   4.186   1.243  13.349  1.1351  2.1799  0.8916
   28DOPE   H6Y 3577   4.085   1.388  13.343  2.3746 -0.3042 -1.4082
   28DOPE   C37 3578   3.977   1.212  13.305  0.0825  0.4566 -0.6103
   28DOPE   H7X 3579   3.975   1.105  13.335  0.3964  0.1843 -1.5315
   28DOPE   H7Y 3580   3.883   1.252  13.350 -1.3511 -2.4668 -0.7659
   28DOPE   C38 3581   3.966   1.216  13.151  0.3480  0.3615 -0.5463
   28DOPE   H8X 3582   3.950   1.321  13.117 -1.5433  0.5948  0.8500
   28DOPE   H8Y 3583   3.889   1.145  13.113 -1.1744 -0.6214  3.7279
   28DOPE   C39 3584   4.099   1.156  13.104  0.0125  0.3416 -0.1031
   28DOPE   H9X 3585   4.179   1.170  13.178 -2.2756  1.0381  2.4364
   28DOPE  C310 3586   4.120   1.092  12.985  0.0396 -0.2105 -0.1216
   28DOPE  H10X 3587   4.221   1.055  12.962  1.1710  2.0411  0.9632
   28DOPE  C311 3588   4.010   1.060  12.884  0.8850 -0.1410 -0.3191
   28DOPE  H11X 3589   3.998   0.950  12.871 -1.0311  0.1757 -1.6132
   28DOPE  H11Y 3590   3.911   1.099  12.917  1.2383  1.3355 -0.9225
   28DOPE  C312 3591   4.047   1.096  12.736  0.8618  0.0622  0.2616
   28DOPE  H12X 3592   4.141   1.045  12.705  0.5219 -0.0152 -0.6902
   28DOPE  H12Y 3593   4.063   1.206  12.734 -0.7107  0.3497  1.5799
   28DOPE  C313 3594   3.934   1.052  12.640  0.0103 -1.0069 -0.1552
   28DOPE  H13X 3595   3.914   0.943  12.636 -2.4621 -0.5854 -0.7126
   28DOPE  H13Y 3596   3.834   1.092  12.668 -0.1348 -0.3590 -1.4761
   28DOPE  C314 3597   3.962   1.099  12.495  0.3286 -0.5636 -0.0646
   28DOPE  H14X 3598   4.065   1.079  12.457  0.4972 -1.0047  0.6144
   28DOPE  H14Y 3599   3.960   1.210  12.498 -1.5144 -0.5268 -1.1393
   28DOPE  C315 3600   3.853   1.050  12.402 -0.7654 -0.1484 -0.7802
   28DOPE  H15X 3601   3.765   1.118  12.406  0.6069  1.6255  0.5812
   28DOPE  H15Y 3602   3.823   0.945  12.426 -0.8881 -0.4265 -2.0752
   28DOPE  C316 3603   3.905   1.055  12.253  0.2144 -0.1349 -0.3340
   28DOPE  H16X 3604   4.006   1.013  12.233 -0.3578 -2.0057  0.4540
   28DOPE  H16Y 3605   3.912   1.161  12.223 -1.0161 -0.1255 -0.6489
   28DOPE  C317 3606   3.804   0.980  12.166  0.3063  0.6575  0.2188
   28DOPE  H17X 3607   3.820   0.875  12.200  0.5579  1.4238  2.6840
   28DOPE  H17Y 3608   3.700   1.014  12.186 -0.2132 -0.3880 -0.5508
   28DOPE  C318 3609   3.835   0.978  12.012  0.6460 -0.3511  0.2266
   28DOPE  H18X 3610   3.779   0.897  11.961  0.5350 -1.3792  1.8760
   28DOPE  H18Y 3611   3.802   1.070  11.960 -0.1174 -0.5782  0.3043
   28DOPE  H18Z 3612   3.946   0.979  12.003  0.8513 -2.4255  1.8236
   29DOPE     N 3613   5.601   3.067  15.066  0.1600 -0.0657  0.2372
   29DOPE   HN1 3614   5.587   2.995  14.992 -1.1305  0.5346 -0.1436
   29DOPE   HN2 3615   5.607   3.026  15.162 -1.0745  1.1496  0.8643
   29DOPE   HN3 3616   5.514   3.125  15.065  1.1098  1.9009  5.0446
   29DOPE   C12 3617   5.725   3.153  15.040  0.0768  0.7246 -0.4155
   29DOPE  H12A 3618   5.803   3.092  14.989  0.1570 -1.6933  2.3279
   29DOPE  H12B 3619   5.767   3.179  15.139  1.0891 -1.0749 -0.3294
   29DOPE   C11 3620   5.684   3.279  14.955 -0.1481  0.6000 -0.2096
   29DOPE  H11A 3621   5.777   3.301  14.898  0.4544 -0.4015  0.3632
   29DOPE  H11B 3622   5.659   3.360  15.027  0.1199  0.5666 -0.0779
   29DOPE     P 3623   5.519   3.357  14.778  0.0504 -0.1532 -0.0143
   29DOPE   O13 3624   5.623   3.460  14.778 -0.4718  0.1764 -0.0531
   29DOPE   O14 3625   5.387   3.403  14.818 -0.3254  0.0460  0.2850
   29DOPE   O11 3626   5.508   3.282  14.644  0.4032  0.1400  0.0432
   29DOPE   O12 3627   5.573   3.250  14.875 -0.2431  0.1602  0.6758
   29DOPE    C1 3628   5.617   3.191  14.599  0.3777 -0.7680 -0.6150
   29DOPE    HA 3629   5.600   3.085  14.628 -0.6171 -1.0894 -2.2663
   29DOPE    HB 3630   5.713   3.237  14.630 -0.6637  0.8615  0.3269
   29DOPE    C2 3631   5.631   3.198  14.441  0.2454 -0.0637 -0.3142
   29DOPE    HS 3632   5.678   3.106  14.400  0.0966  0.2182 -1.1414
   29DOPE   O21 3633   5.712   3.318  14.414  0.5746  0.3073  0.3719
   29DOPE   C21 3634   5.788   3.316  14.303 -0.4143 -0.2665 -0.6481
   29DOPE   O22 3635   5.789   3.224  14.225 -0.7166 -0.1145 -0.0646
   29DOPE   C22 3636   5.881   3.450  14.301  0.8521  0.4094 -0.2505
   29DOPE   H2R 3637   5.943   3.449  14.394  1.9589 -3.0601 -0.8729
   29DOPE   H2S 3638   5.815   3.539  14.300  2.3055  1.6817  2.8321
   29DOPE    C3 3639   5.490   3.209  14.378 -0.4158  0.1637 -0.4425
   29DOPE    HX 3640   5.446   3.306  14.407  1.7121  1.2929 -0.8162
   29DOPE    HY 3641   5.434   3.129  14.431  1.4340 -1.1995 -0.4363
   29DOPE   O31 3642   5.491   3.192  14.239 -0.8410 -0.0048  0.1123
   29DOPE   C31 3643   5.519   3.074  14.187 -0.1682  0.6828  0.5443
   29DOPE   O32 3644   5.496   2.963  14.235  0.0165  0.4521 -0.4041
   29DOPE   C32 3645   5.551   3.098  14.041 -0.1309 -0.1634 -0.1515
   29DOPE   H2X 3646   5.456   3.137  14.001  0.8287  0.4760 -1.8891
   29DOPE   H2Y 3647   5.627   3.178  14.030 -0.4698  0.3119  0.8374
   29DOPE   C23 3648   5.983   3.454  14.188 -0.3114 -0.0737  0.6957
   29DOPE   H3R 3649   6.032   3.354  14.183  0.1492  0.2044 -0.4887
   29DOPE   H3S 3650   6.063   3.527  14.208  1.2468 -1.8485  1.2400
   29DOPE   C24 3651   5.916   3.465  14.052 -0.3237  0.4684  0.3932
   29DOPE   H4R 3652   5.875   3.567  14.036 -0.5559  0.4859  1.0752
   29DOPE   H4S 3653   5.842   3.392  14.014 -2.2618  2.7920 -0.5764
   29DOPE   C25 3654   6.029   3.461  13.943 -0.1527  0.0465  0.1505
   29DOPE   H5R 3655   6.094   3.370  13.945  1.0762  0.7793 -2.1629
   29DOPE   H5S 3656   6.092   3.550  13.963  1.0183 -0.6948 -0.0970
   29DOPE   C26 3657   5.959   3.482  13.809  0.5369  0.3472 -0.8298
   29DOPE   H6R 3658   5.897   3.574  13.803  0.4152  0.2786 -0.6381
   29DOPE   H6S 3659   5.892   3.394  13.800  0.4007  0.4698 -1.0080
   29DOPE   C27 3660   6.062   3.481  13.697  0.0325  0.0582  0.3268
   29DOPE   H7R 3661   6.106   3.380  13.711  1.6126  0.8472  1.4344
   29DOPE   H7S 3662   6.137   3.562  13.711 -0.4345  0.2646  1.7904
   29DOPE   C28 3663   5.987   3.490  13.563 -0.2770  0.3855  0.4623
   29DOPE   H8R 3664   5.947   3.594  13.565  0.7996  0.9886 -3.0262
   29DOPE   H8S 3665   5.902   3.419  13.560  0.4168 -0.4543  0.2676
   29DOPE   C29 3666   6.071   3.467  13.435  0.3249  0.0819  0.2231
   29DOPE   H9R 3667   6.172   3.510  13.439  0.0530  1.1299 -2.3819
   29DOPE  C210 3668   6.026   3.422  13.320  0.4975 -0.2075  0.0265
   29DOPE  H10R 3669   6.113   3.402  13.256  1.7186  1.6615  1.0068
   29DOPE  C211 3670   5.891   3.366  13.292  0.1393  0.7313  0.1699
   29DOPE  H11R 3671   5.813   3.416  13.353 -0.0696  0.4955  0.0943
   29DOPE  H11S 3672   5.894   3.262  13.328  0.5309  0.9150  0.6724
   29DOPE  C212 3673   5.860   3.371  13.140  0.2090  0.9193  0.5161
   29DOPE  H12R 3674   5.924   3.309  13.075  0.2395  0.6936  0.7630
   29DOPE  H12S 3675   5.891   3.472  13.106  2.2656 -0.1484 -0.9591
   29DOPE  C213 3676   5.706   3.337  13.112  0.1077  0.8119 -0.3543
   29DOPE  H13R 3677   5.641   3.426  13.127 -0.7595  0.0935  0.2956
   29DOPE  H13S 3678   5.678   3.268  13.195 -0.8046  3.5736  1.7916
   29DOPE  C214 3679   5.694   3.266  12.979 -0.3334 -0.2297 -0.1489
   29DOPE  H14R 3680   5.602   3.203  12.983 -0.3288 -0.1595  2.3377
   29DOPE  H14S 3681   5.777   3.194  12.963 -1.2490 -1.6340  1.1506
   29DOPE  C215 3682   5.680   3.366  12.859 -0.0601  0.0513 -0.2567
   29DOPE  H15R 3683   5.765   3.437  12.867 -0.6496  0.5529  2.8266
   29DOPE  H15S 3684   5.592   3.433  12.868  0.3063  0.5843 -0.6014
   29DOPE  C216 3685   5.685   3.300  12.721  0.6737 -0.3840 -0.7443
   29DOPE  H16R 3686   5.765   3.224  12.709  2.2640  1.2548 -1.0056
   29DOPE  H16S 3687   5.709   3.380  12.649  1.7681 -1.0318 -1.1237
   29DOPE  C217 3688   5.547   3.232  12.683  0.1623 -0.0518 -0.6274
   29DOPE  H17R 3689   5.472   3.311  12.705  0.1267 -0.6152  1.3919
   29DOPE  H17S 3690   5.524   3.150  12.753  0.2891 -1.3855 -2.0932
   29DOPE  C218 3691   5.538   3.183  12.538 -0.7794 -0.2679  0.4998
   29DOPE  H18R 3692   5.437   3.136  12.530  0.1118 -2.7290  2.4693
   29DOPE  H18S 3693   5.613   3.106  12.508 -2.0588 -0.9308 -1.1991
   29DOPE  H18T 3694   5.542   3.270  12.469  1.5504 -0.6282  0.0888
   29DOPE   C33 3695   5.594   2.957  13.989 -0.0685 -0.4409  0.5513
   29DOPE   H3X 3696   5.507   2.889  13.982 -0.9278  0.6128  0.6293
   29DOPE   H3Y 3697   5.679   2.914  14.046  0.7157  0.1603 -0.1518
   29DOPE   C34 3698   5.652   2.968  13.850  0.4493 -0.0674 -0.5168
   29DOPE   H4X 3699   5.710   3.062  13.838  0.8827 -0.5313 -2.3928
   29DOPE   H4Y 3700   5.721   2.883  13.829 -1.1505 -1.6249  0.3108
   29DOPE   C35 3701   5.544   2.970  13.741  0.1445 -0.2315  0.1386
   29DOPE   H5X 3702   5.483   3.062  13.751 -0.6688 -0.8201  0.7275
   29DOPE   H5Y 3703   5.481   2.879  13.746 -1.8835  1.0334 -1.0264
   29DOPE   C36 3704   5.614   2.974  13.602  0.6146  0.4579  0.3822
   29DOPE   H6X 3705   5.672   2.880  13.593 -1.8754 -1.1875  0.8493
   29DOPE   H6Y 3706   5.688   3.057  13.606  0.2174  0.7658  2.0651
   29DOPE   C37 3707   5.521   2.984  13.483  0.2040 -0.2136  0.3121
   29DOPE   H7X 3708   5.458   2.895  13.465 -1.0090  0.8033 -0.6141
   29DOPE   H7Y 3709   5.458   3.071  13.513  1.6202  0.5633  1.1490
   29DOPE   C38 3710   5.599   3.040  13.365  0.9716 -0.0171  0.1899
   29DOPE   H8X 3711   5.682   2.972  13.336  0.0384 -1.3322  0.5316
   29DOPE   H8Y 3712   5.642   3.137  13.397 -1.2168  0.0194  3.5465
   29DOPE   C39 3713   5.507   3.051  13.244 -0.1827  0.0713  0.3808
   29DOPE   H9X 3714   5.454   3.145  13.222 -2.5782 -1.3578 -0.4137
   29DOPE  C310 3715   5.510   2.968  13.138 -0.0503  0.1648 -0.1223
   29DOPE  H10X 3716   5.448   2.987  13.050 -0.8549 -1.0548  0.1577
   29DOPE  C311 3717   5.612   2.861  13.116  0.3864 -0.2658 -0.7425
   29DOPE  H11X 3718   5.643   2.827  13.217  0.3735  0.0151 -0.6404
   29DOPE  H11Y 3719   5.564   2.780  13.057 -0.1262 -1.2793  0.9979
   29DOPE  C312 3720   5.731   2.906  13.033  0.0239 -0.5803 -0.6825
   29DOPE  H12X 3721   5.809   2.826  13.028  1.8275  1.0531 -0.0009
   29DOPE  H12Y 3722   5.779   2.994  13.082 -1.4111 -1.1025  1.8004
   29DOPE  C313 3723   5.700   2.928  12.882  0.1340 -0.9173 -0.2296
   29DOPE  H13X 3724   5.650   3.027  12.885  0.8307 -0.5256 -0.9589
   29DOPE  H13Y 3725   5.799   2.939  12.832  0.3640  1.2246  0.5995
   29DOPE  C314 3726   5.626   2.816  12.803 -0.5538  0.0607  0.2541
   29DOPE  H14X 3727   5.526   2.808  12.850 -1.3197  2.7304 -0.7984
   29DOPE  H14Y 3728   5.689   2.724  12.815 -1.7675 -1.1145 -1.8487
   29DOPE  C315 3729   5.605   2.849  12.653  0.0255  0.7233  0.2636
   29DOPE  H15X 3730   5.705   2.879  12.615  0.7379  0.0054  1.4755
   29DOPE  H15Y 3731   5.530   2.930  12.640 -1.3609 -0.5992 -0.2807
   29DOPE  C316 3732   5.548   2.730  12.576 -0.2908 -0.4699 -0.1132
   29DOPE  H16X 3733   5.438   2.736  12.565  0.0241  2.2107 -3.6094
   29DOPE  H16Y 3734   5.585   2.638  12.624  0.0817 -1.0677 -1.4883
   29DOPE  C317 3735   5.599   2.720  12.434 -0.2375  0.0769  0.0416
   29DOPE  H17X 3736   5.597   2.823  12.394 -0.5744  0.6429  1.4594
   29DOPE  H17Y 3737   5.704   2.684  12.431  0.4488  1.7243  2.0161
   29DOPE  C318 3738   5.505   2.633  12.358  0.4941 -0.3601  0.4737
   29DOPE  H18X 3739   5.509   2.532  12.404 -0.8597 -1.4051 -1.5439
   29DOPE  H18Y 3740   5.401   2.670  12.350 -0.7022 -2.7788  3.0096
   29DOPE  H18Z 3741   5.551   2.603  12.261 -1.0377  1.9523 -1.0558
   30DOPE     N 3742   4.129   1.698  14.511  0.0442  0.6573  0.8246
   30DOPE   HN1 3743   4.155   1.620  14.575  1.0450 -1.2151 -1.6753
   30DOPE   HN2 3744   4.130   1.787  14.565 -2.2547  2.6177 -2.0681
   30DOPE   HN3 3745   4.031   1.683  14.480  0.0792 -1.3488  1.5745
   30DOPE   C12 3746   4.231   1.696  14.393 -0.0557 -0.5592  0.6619
   30DOPE  H12A 3747   4.195   1.762  14.312 -1.3006 -1.2084  0.6675
   30DOPE  H12B 3748   4.223   1.592  14.355  1.4351 -0.8704  1.1027
   30DOPE   C11 3749   4.377   1.732  14.439 -0.2555 -0.1216  0.0378
   30DOPE  H11A 3750   4.436   1.741  14.345  1.0071  0.1444  0.8285
   30DOPE  H11B 3751   4.416   1.652  14.506 -0.3025 -0.0114  0.1979
   30DOPE     P 3752   4.477   1.904  14.607  0.0484  0.2891  0.5374
   30DOPE   O13 3753   4.559   1.782  14.638  0.1342 -0.2877  0.4844
   30DOPE   O14 3754   4.388   1.945  14.711 -0.1828 -0.0353 -0.4029
   30DOPE   O11 3755   4.563   2.027  14.551 -1.0529 -0.2905  0.2176
   30DOPE   O12 3756   4.376   1.866  14.492 -0.1185  0.1728 -0.4281
   30DOPE    C1 3757   4.513   2.144  14.501  0.8307 -0.4688 -0.1070
   30DOPE    HA 3758   4.594   2.219  14.516  0.2379  1.0339 -3.5207
   30DOPE    HB 3759   4.424   2.188  14.550  0.0891 -0.3737 -1.4956
   30DOPE    C2 3760   4.496   2.159  14.341 -0.2061  0.0570 -0.1503
   30DOPE    HS 3761   4.508   2.265  14.312  2.7043  0.0576  0.7066
   30DOPE   O21 3762   4.364   2.110  14.297 -0.4948  0.1836  0.0247
   30DOPE   C21 3763   4.258   2.184  14.347  0.3340  0.1886  0.3276
   30DOPE   O22 3764   4.266   2.286  14.409  0.2302  0.5794  0.4225
   30DOPE   C22 3765   4.128   2.118  14.303 -0.2123  0.6561  0.1940
   30DOPE   H2R 3766   4.056   2.198  14.277  0.1263  0.7154 -0.6111
   30DOPE   H2S 3767   4.088   2.063  14.391 -4.7092 -0.1229 -2.0743
   30DOPE    C3 3768   4.609   2.075  14.274  0.1434  0.5792 -0.0713
   30DOPE    HX 3769   4.571   1.971  14.279  0.0224  0.5958 -0.5651
   30DOPE    HY 3770   4.703   2.085  14.332  0.8035 -2.3475 -0.4847
   30DOPE   O31 3771   4.635   2.133  14.143 -0.1296 -0.1984 -0.1217
   30DOPE   C31 3772   4.683   2.044  14.062 -0.1158  0.0741 -0.6769
   30DOPE   O32 3773   4.701   1.928  14.090  0.4855  0.4410 -0.1442
   30DOPE   C32 3774   4.710   2.104  13.929 -0.4558 -0.0376  0.2157
   30DOPE   H2X 3775   4.610   2.134  13.891  0.2547 -0.0338 -1.7820
   30DOPE   H2Y 3776   4.767   2.197  13.948 -0.9493 -0.0657  1.9500
   30DOPE   C23 3777   4.126   2.023  14.175  0.2617 -0.3164  0.0950
   30DOPE   H3R 3778   4.031   1.968  14.165 -1.3276  2.5009 -1.7028
   30DOPE   H3S 3779   4.201   1.943  14.158  0.9748 -0.6509  3.9713
   30DOPE   C24 3780   4.135   2.101  14.045  0.3403 -0.1197  0.2321
   30DOPE   H4R 3781   4.064   2.185  14.026  0.5573  0.6869  2.5909
   30DOPE   H4S 3782   4.109   2.020  13.974  0.2749 -1.3820  1.6381
   30DOPE   C25 3783   4.277   2.133  14.006 -0.0246  0.1717 -0.8908
   30DOPE   H5R 3784   4.355   2.059  14.036  1.0235  1.5341 -0.1436
   30DOPE   H5S 3785   4.299   2.219  14.073 -1.8969  1.0253 -1.3064
   30DOPE   C26 3786   4.293   2.192  13.865 -0.3216 -0.6181 -0.0605
   30DOPE   H6R 3787   4.231   2.129  13.797  1.4110 -1.7603 -0.6539
   30DOPE   H6S 3788   4.397   2.196  13.828 -0.0947  1.1736  0.6761
   30DOPE   C27 3789   4.251   2.337  13.867  0.7828 -0.0339  0.1256
   30DOPE   H7R 3790   4.333   2.388  13.923  0.3630  0.8588 -0.0448
   30DOPE   H7S 3791   4.160   2.341  13.930 -0.9927 -1.8244 -2.1357
   30DOPE   C28 3792   4.216   2.399  13.727 -0.5710  0.3118  0.6886
   30DOPE   H8R 3793   4.156   2.487  13.758 -0.2638  0.2231  1.5779
   30DOPE   H8S 3794   4.160   2.319  13.674  2.6845 -1.3530 -0.5013
   30DOPE   C29 3795   4.348   2.438  13.650 -0.4211 -0.3046  0.3002
   30DOPE   H9R 3796   4.441   2.407  13.698  1.1718  1.8769 -1.1562
   30DOPE  C210 3797   4.350   2.500  13.527 -0.0566 -0.1071  0.4273
   30DOPE  H10R 3798   4.441   2.546  13.486  0.4126  0.9518  2.4895
   30DOPE  C211 3799   4.228   2.530  13.446  0.6406  0.3326  0.3589
   30DOPE  H11R 3800   4.234   2.641  13.442 -2.5553  0.7257  2.6551
   30DOPE  H11S 3801   4.129   2.510  13.492  0.2051 -1.2776 -1.1773
   30DOPE  C212 3802   4.227   2.483  13.299  0.1755 -0.0874 -0.3726
   30DOPE  H12R 3803   4.324   2.479  13.245  0.9061 -0.1365  0.9048
   30DOPE  H12S 3804   4.162   2.551  13.241 -0.7791  1.3443  2.2223
   30DOPE  C213 3805   4.163   2.340  13.278  0.5853 -0.3470 -0.2996
   30DOPE  H13R 3806   4.064   2.332  13.327 -0.6724  1.5313 -2.3044
   30DOPE  H13S 3807   4.231   2.270  13.332 -1.8986 -2.6992 -0.0429
   30DOPE  C214 3808   4.158   2.295  13.133  0.3401 -0.3712 -0.1318
   30DOPE  H14R 3809   4.131   2.187  13.122 -2.7930  0.1112  1.4755
   30DOPE  H14S 3810   4.252   2.321  13.082  1.2441  0.1320  1.7093
   30DOPE  C215 3811   4.046   2.372  13.066  0.1213 -0.1839 -0.0132
   30DOPE  H15R 3812   4.055   2.481  13.088  0.2933  0.0964 -1.3474
   30DOPE  H15S 3813   3.946   2.345  13.107 -1.2971  1.1176 -2.3424
   30DOPE  C216 3814   4.048   2.342  12.911  0.5789  0.5919 -0.3341
   30DOPE  H16R 3815   4.060   2.232  12.902 -0.8820  0.3493  0.4564
   30DOPE  H16S 3816   4.145   2.379  12.870  0.9206 -1.3238 -1.3937
   30DOPE  C217 3817   3.925   2.400  12.851 -0.5703  0.1065  0.2531
   30DOPE  H17R 3818   3.925   2.504  12.888 -0.4121 -0.0168  0.6011
   30DOPE  H17S 3819   3.834   2.346  12.887  0.5750 -1.2674  1.1993
   30DOPE  C218 3820   3.930   2.408  12.698  0.3406  0.1694  0.5139
   30DOPE  H18R 3821   3.939   2.301  12.668  0.1720 -0.0361  1.1918
   30DOPE  H18S 3822   4.017   2.458  12.650 -0.9985  1.3773 -0.7920
   30DOPE  H18T 3823   3.835   2.427  12.643  0.6792  0.7357  0.1093
   30DOPE   C33 3824   4.777   1.997  13.836 -0.5050 -0.4317 -0.7389
   30DOPE   H3X 3825   4.695   1.923  13.831 -1.2227  0.0166  2.4316
   30DOPE   H3Y 3826   4.860   1.944  13.887 -0.3539 -1.1971 -1.7546
   30DOPE   C34 3827   4.816   2.064  13.705  0.4958  0.3427 -0.1417
   30DOPE   H4X 3828   4.732   2.119  13.658  1.1315 -0.4786 -2.3533
   30DOPE   H4Y 3829   4.894   2.136  13.739 -2.0760  1.6044  3.8783
   30DOPE   C35 3830   4.874   1.967  13.612 -0.9043 -0.0470  0.0431
   30DOPE   H5X 3831   4.789   1.921  13.558 -0.8016 -0.7617  0.4885
   30DOPE   H5Y 3832   4.931   1.888  13.664 -0.8725 -0.0277  0.0381
   30DOPE   C36 3833   4.958   2.047  13.508 -0.6590  0.6848  0.3108
   30DOPE   H6X 3834   5.039   1.981  13.472 -0.3760  0.4565  1.3094
   30DOPE   H6Y 3835   5.030   2.111  13.563 -0.1388 -0.8866  1.5367
   30DOPE   C37 3836   4.878   2.109  13.393 -0.4959  0.2371 -0.2950
   30DOPE   H7X 3837   4.797   2.038  13.365  1.1613 -1.7249 -0.3070
   30DOPE   H7Y 3838   4.847   2.210  13.426  1.1848  0.9949 -0.9352
   30DOPE   C38 3839   4.962   2.130  13.263 -1.1822  0.3726 -0.4907
   30DOPE   H8X 3840   4.880   2.171  13.201 -0.2070  1.4959 -1.0824
   30DOPE   H8Y 3841   5.009   2.032  13.239 -0.1199  0.1093  2.2523
   30DOPE   C39 3842   5.073   2.236  13.264  0.0911  0.4945  0.9871
   30DOPE   H9X 3843   5.127   2.239  13.360 -1.9109 -1.2123  2.2384
   30DOPE  C310 3844   5.092   2.333  13.171  0.3928  0.2376  0.2447
   30DOPE  H10X 3845   5.162   2.415  13.194  1.3780 -0.7455  0.8467
   30DOPE  C311 3846   5.000   2.343  13.052  0.3781 -0.2226  0.1035
   30DOPE  H11X 3847   4.919   2.267  13.052  2.6216 -2.7712  0.0252
   30DOPE  H11Y 3848   4.943   2.437  13.067 -1.9702 -1.7414  1.3066
   30DOPE  C312 3849   5.068   2.353  12.913 -0.5163 -0.0368  0.1427
   30DOPE  H12X 3850   5.091   2.249  12.880  1.5451  0.7820 -1.1835
   30DOPE  H12Y 3851   5.171   2.395  12.917  0.9961 -3.2493 -1.0561
   30DOPE  C313 3852   4.975   2.399  12.803  0.4762 -0.5013 -0.0465
   30DOPE  H13X 3853   4.868   2.379  12.823 -0.2801  0.5346 -2.7093
   30DOPE  H13Y 3854   4.979   2.510  12.801 -1.6952 -0.3049  2.2057
   30DOPE  C314 3855   5.010   2.352  12.664 -0.1644 -0.3446 -0.1462
   30DOPE  H14X 3856   4.999   2.241  12.661 -0.5291 -0.3240  0.4297
   30DOPE  H14Y 3857   5.119   2.368  12.644 -0.1685  1.6377  1.1997
   30DOPE  C315 3858   4.929   2.418  12.557  0.6987 -0.3221  0.5187
   30DOPE  H15X 3859   4.918   2.527  12.577 -1.2112 -0.5645  1.0305
   30DOPE  H15Y 3860   4.824   2.382  12.560 -0.3027  2.1467 -1.3927
   30DOPE  C316 3861   4.992   2.401  12.416  0.3801 -0.5679  0.1999
   30DOPE  H16X 3862   4.985   2.293  12.391  0.3776 -0.4867 -0.1563
   30DOPE  H16Y 3863   5.099   2.430  12.408  0.3602  0.1786  2.1628
   30DOPE  C317 3864   4.911   2.475  12.304  0.0734 -0.5173 -0.0653
   30DOPE  H17X 3865   4.937   2.442  12.202 -0.7083  1.0398 -0.8081
   30DOPE  H17Y 3866   4.803   2.455  12.320  0.5144 -1.6003  1.9346
   30DOPE  C318 3867   4.926   2.632  12.306  0.6925  0.2376  0.2058
   30DOPE  H18X 3868   4.844   2.690  12.260  0.1879  1.5624  2.6107
   30DOPE  H18Y 3869   4.926   2.660  12.413  1.7753  0.5369  0.1373
   30DOPE  H18Z 3870   5.017   2.672  12.256  1.0512  1.0332  1.4422
   31DOPE     N 3871   3.103   6.381   9.816  0.2433 -0.0016 -0.5817
   31DOPE   HN1 3872   3.082   6.481   9.837  1.3442  0.4312 -1.3860
   31DOPE   HN2 3873   3.180   6.386   9.746 -0.4779 -0.3220 -1.4227
   31DOPE   HN3 3874   3.020   6.326   9.786 -0.9263  0.8620  0.9226
   31DOPE   C12 3875   3.156   6.315   9.941 -0.1131 -0.0320  0.2498
   31DOPE  H12A 3876   3.071   6.303  10.012  1.0391 -0.1289  1.6442
   31DOPE  H12B 3877   3.231   6.388   9.979 -0.4847 -0.2115  1.3675
   31DOPE   C11 3878   3.213   6.179   9.910 -0.0441  0.5067 -0.2019
   31DOPE  H11A 3879   3.237   6.123  10.003  2.8045 -0.0973 -1.2021
   31DOPE  H11B 3880   3.305   6.186   9.849  0.3786 -1.9342  0.0239
   31DOPE     P 3881   3.140   5.988   9.737  0.5262  0.0000 -0.1254
   31DOPE   O13 3882   3.197   6.048   9.610 -0.9641  0.0388 -0.1396
   31DOPE   O14 3883   3.012   5.912   9.707 -0.2246 -0.6315  0.4494
   31DOPE   O11 3884   3.248   5.891   9.804 -0.4397 -0.0158 -0.1230
   31DOPE   O12 3885   3.114   6.105   9.837  0.8544  0.0830 -0.6124
   31DOPE    C1 3886   3.227   5.773   9.880  0.6080  0.3992 -0.3571
   31DOPE    HA 3887   3.309   5.700   9.863  0.5980 -0.1977  1.8175
   31DOPE    HB 3888   3.131   5.725   9.853  0.5060 -0.3434  1.2127
   31DOPE    C2 3889   3.219   5.813  10.036  0.2533  0.1291  0.0968
   31DOPE    HS 3890   3.142   5.893  10.049 -0.0445 -0.1176 -0.1228
   31DOPE   O21 3891   3.348   5.866  10.079 -0.1543 -0.6208  0.4992
   31DOPE   C21 3892   3.351   5.959  10.168  0.6079 -0.4037  0.2563
   31DOPE   O22 3893   3.257   6.005  10.230  0.4014 -0.1481  0.5904
   31DOPE   C22 3894   3.496   5.993  10.183 -0.2808  0.0760  0.2272
   31DOPE   H2R 3895   3.538   6.029  10.087 -2.2493  0.4930 -0.5297
   31DOPE   H2S 3896   3.552   5.903  10.217 -0.8240 -0.8791 -1.3085
   31DOPE    C3 3897   3.178   5.699  10.132  0.3463 -0.1735  0.0686
   31DOPE    HX 3898   3.243   5.610  10.120 -0.3054 -0.6347 -0.1318
   31DOPE    HY 3899   3.079   5.664  10.094  0.1432 -1.3176  1.5683
   31DOPE   O31 3900   3.164   5.746  10.267 -0.3293 -0.3268  0.6876
   31DOPE   C31 3901   3.213   5.682  10.372 -0.3042 -0.1402 -0.3277
   31DOPE   O32 3902   3.292   5.589  10.368  0.1974 -0.2630  0.5090
   31DOPE   C32 3903   3.168   5.747  10.501  0.2443  0.5147  0.3480
   31DOPE   H2X 3904   3.212   5.849  10.502  1.6501 -0.0672 -0.0496
   31DOPE   H2Y 3905   3.057   5.750  10.493  0.2186 -1.2931 -0.4496
   31DOPE   C23 3906   3.507   6.102  10.287 -0.7995 -0.1589 -0.0275
   31DOPE   H3R 3907   3.425   6.176  10.279 -0.9283 -0.2261  0.5977
   31DOPE   H3S 3908   3.611   6.132  10.264 -0.8298 -0.0217  0.0175
   31DOPE   C24 3909   3.516   6.044  10.430  0.5422  0.1407  0.3938
   31DOPE   H4R 3910   3.590   5.961  10.422  0.3038 -0.2128  1.6967
   31DOPE   H4S 3911   3.418   5.998  10.455  0.6536  0.5284  1.5827
   31DOPE   C25 3912   3.563   6.135  10.544 -0.0990 -0.2903  0.6615
   31DOPE   H5R 3913   3.482   6.209  10.532  1.1562  1.0837  0.4360
   31DOPE   H5S 3914   3.661   6.177  10.513 -0.7556 -0.1478 -1.3336
   31DOPE   C26 3915   3.562   6.072  10.690  0.4015 -0.3818  1.3234
   31DOPE   H6R 3916   3.586   6.161  10.751  0.7841  0.2569  0.2706
   31DOPE   H6S 3917   3.643   5.995  10.700 -0.0943 -0.9862  0.8002
   31DOPE   C27 3918   3.420   6.019  10.735  0.2772 -0.0272  0.0991
   31DOPE   H7R 3919   3.388   5.929  10.678  0.3004  1.7393 -2.8584
   31DOPE   H7S 3920   3.352   6.102  10.708  0.9488  0.6960  0.5786
   31DOPE   C28 3921   3.419   5.961  10.880 -0.5398  0.5912 -0.3942
   31DOPE   H8R 3922   3.452   5.856  10.864 -1.8795 -0.2019  1.6375
   31DOPE   H8S 3923   3.316   5.963  10.920 -0.0961  0.6103  0.7787
   31DOPE   C29 3924   3.505   6.035  10.983  0.5101  0.3502 -0.9180
   31DOPE   H9R 3925   3.573   6.115  10.950 -0.0350  1.3904  0.3884
   31DOPE  C210 3926   3.516   5.984  11.107  0.5477  0.0767  0.4914
   31DOPE  H10R 3927   3.578   6.037  11.181 -1.2119 -0.0950  2.2012
   31DOPE  C211 3928   3.423   5.882  11.161  0.1966  1.4402 -0.8157
   31DOPE  H11R 3929   3.484   5.794  11.190 -0.4073  1.2662 -0.0174
   31DOPE  H11S 3930   3.349   5.831  11.096 -2.3616 -0.4287  3.1304
   31DOPE  C212 3931   3.345   5.918  11.295 -0.5955  0.3217  0.2761
   31DOPE  H12R 3932   3.260   5.850  11.315 -0.9613 -0.5896 -3.5156
   31DOPE  H12S 3933   3.302   6.020  11.291 -0.6572  0.3129  0.6755
   31DOPE  C213 3934   3.432   5.925  11.418 -0.1147 -0.7215 -0.3035
   31DOPE  H13R 3935   3.514   5.998  11.402 -1.7133  0.9502 -1.2219
   31DOPE  H13S 3936   3.495   5.836  11.443  0.0331 -0.0883  1.8345
   31DOPE  C214 3937   3.346   5.953  11.547 -0.1123  0.0166 -0.1146
   31DOPE  H14R 3938   3.266   5.876  11.540  0.9305 -0.9412 -3.0408
   31DOPE  H14S 3939   3.303   6.055  11.536  3.0802  1.3557 -1.0684
   31DOPE  C215 3940   3.424   5.947  11.685 -0.1226  0.1294  0.4686
   31DOPE  H15R 3941   3.499   6.027  11.702 -1.5812  1.2856  1.7901
   31DOPE  H15S 3942   3.477   5.849  11.685  1.2828  0.8008 -2.0478
   31DOPE  C216 3943   3.333   5.962  11.805  0.1542 -0.7573  0.2232
   31DOPE  H16R 3944   3.303   6.069  11.800 -0.4672 -0.9872 -1.6560
   31DOPE  H16S 3945   3.404   5.946  11.889  1.6866  0.1369 -0.8413
   31DOPE  C217 3946   3.225   5.876  11.823  0.4499  0.5387 -0.3534
   31DOPE  H17R 3947   3.260   5.775  11.792 -1.8549  0.0162 -1.4669
   31DOPE  H17S 3948   3.140   5.897  11.754  1.1465 -0.0698 -1.4343
   31DOPE  C218 3949   3.171   5.872  11.966 -0.4131  0.2497 -0.5120
   31DOPE  H18R 3950   3.137   5.968  12.009 -0.6106 -0.9948  2.2884
   31DOPE  H18S 3951   3.250   5.852  12.041 -3.1350  0.0951  2.5209
   31DOPE  H18T 3952   3.090   5.799  11.986  2.1345 -1.7244  4.1807
   31DOPE   C33 3953   3.205   5.673  10.634  0.1835 -0.1601  0.8037
   31DOPE   H3X 3954   3.316   5.663  10.634  0.1846 -0.2781 -0.2436
   31DOPE   H3Y 3955   3.157   5.573  10.625  2.3386 -1.1337 -1.0482
   31DOPE   C34 3956   3.151   5.736  10.763 -0.2339 -0.5547  0.0058
   31DOPE   H4X 3957   3.195   5.837  10.771  0.8886 -0.9570 -0.8643
   31DOPE   H4Y 3958   3.040   5.746  10.758 -0.5428 -1.1896  3.2390
   31DOPE   C35 3959   3.196   5.654  10.884  0.5336 -0.2820 -0.1555
   31DOPE   H5X 3960   3.303   5.668  10.910  0.5275  0.9197 -0.7265
   31DOPE   H5Y 3961   3.177   5.547  10.860  1.7954 -0.7574  0.8247
   31DOPE   C36 3962   3.108   5.676  11.011 -0.0351 -0.5653  0.3513
   31DOPE   H6X 3963   3.003   5.663  10.978  0.6453 -0.3774 -2.0457
   31DOPE   H6Y 3964   3.120   5.781  11.046  2.2138 -0.1402 -1.4650
   31DOPE   C37 3965   3.127   5.572  11.119  0.0911  0.0836 -0.2268
   31DOPE   H7X 3966   3.114   5.475  11.066  0.1471  0.6351 -1.2757
   31DOPE   H7Y 3967   3.230   5.581  11.160  0.9703  4.7660 -2.8007
   31DOPE   C38 3968   3.040   5.605  11.243 -0.5481 -0.1289  0.6992
   31DOPE   H8X 3969   2.932   5.616  11.217 -0.3644  0.5282  0.2126
   31DOPE   H8Y 3970   3.064   5.699  11.296 -0.3522  0.0491  0.2997
   31DOPE   C39 3971   3.060   5.492  11.340 -0.1501  0.6192  0.6133
   31DOPE   H9X 3972   3.055   5.393  11.291  2.7872  0.5421  0.3053
   31DOPE  C310 3973   3.062   5.494  11.473  0.0846  0.2683 -0.5533
   31DOPE  H10X 3974   3.060   5.397  11.525 -0.5369  0.5267 -0.0894
   31DOPE  C311 3975   3.062   5.610  11.574 -0.4923 -0.2531  0.4854
   31DOPE  H11X 3976   3.165   5.627  11.612  0.2868 -3.0502 -0.1346
   31DOPE  H11Y 3977   3.042   5.702  11.516 -0.5809 -0.8183 -0.3972
   31DOPE  C312 3978   2.971   5.575  11.686 -0.0538  0.7069 -0.4265
   31DOPE  H12X 3979   2.995   5.643  11.770  3.1521 -0.4113 -0.3026
   31DOPE  H12Y 3980   2.999   5.477  11.729  0.1410  1.3628  0.9840
   31DOPE  C313 3981   2.821   5.598  11.657 -0.0920  0.3500 -0.0291
   31DOPE  H13X 3982   2.806   5.704  11.627 -0.5479  0.3456  0.1770
   31DOPE  H13Y 3983   2.787   5.533  11.574  0.1005 -0.0365  0.1931
   31DOPE  C314 3984   2.724   5.569  11.780 -0.4813 -0.2090  0.1935
   31DOPE  H14X 3985   2.774   5.487  11.835  0.8531  0.7441  0.4641
   31DOPE  H14Y 3986   2.624   5.530  11.753 -0.7368  0.4074  0.2299
   31DOPE  C315 3987   2.721   5.703  11.865 -0.0947 -0.9064  0.8836
   31DOPE  H15X 3988   2.824   5.742  11.882 -1.1573  2.2930  0.5626
   31DOPE  H15Y 3989   2.674   5.684  11.964 -0.8841 -0.2138  0.6468
   31DOPE  C316 3990   2.640   5.814  11.796  0.0455 -0.1696 -0.5786
   31DOPE  H16X 3991   2.543   5.764  11.773 -0.0886 -0.4991  0.6276
   31DOPE  H16Y 3992   2.680   5.850  11.699  1.0591 -0.4066 -0.2518
   31DOPE  C317 3993   2.610   5.946  11.879  0.1458  0.6163 -0.2917
   31DOPE  H17X 3994   2.553   6.018  11.816  1.1836 -0.4035 -2.4849
   31DOPE  H17Y 3995   2.560   5.911  11.973 -1.4857 -0.8873 -1.6477
   31DOPE  C318 3996   2.738   6.029  11.905 -0.4400  0.2898 -0.1368
   31DOPE  H18X 3997   2.806   6.054  11.821 -0.2162 -0.4643 -0.1857
   31DOPE  H18Y 3998   2.717   6.126  11.955  0.2239  0.0208  0.6951
   31DOPE  H18Z 3999   2.800   5.972  11.977  0.3731  0.4512 -0.6983
   32DOPE     N 4000   4.243   6.584   9.277 -0.0578  0.4283 -0.6482
   32DOPE   HN1 4001   4.168   6.561   9.209 -1.1556  1.0278  0.3175
   32DOPE   HN2 4002   4.320   6.621   9.218 -2.3815  1.1646 -3.4244
   32DOPE   HN3 4003   4.281   6.502   9.329  0.7805  1.8050  1.0253
   32DOPE   C12 4004   4.207   6.687   9.390  0.2691  0.2354 -0.3699
   32DOPE  H12A 4005   4.147   6.764   9.338  0.2663 -0.4565 -1.4317
   32DOPE  H12B 4006   4.301   6.735   9.422 -0.2186 -0.0552  1.6319
   32DOPE   C11 4007   4.138   6.608   9.507  0.4780  0.3979  0.5900
   32DOPE  H11A 4008   4.123   6.672   9.597 -1.1225 -0.4795  0.9908
   32DOPE  H11B 4009   4.207   6.528   9.539 -0.0226 -1.0819 -1.8572
   32DOPE     P 4010   3.888   6.642   9.447  0.4275 -0.1519  0.2119
   32DOPE   O13 4011   3.787   6.567   9.371  0.2203  0.0711  0.1865
   32DOPE   O14 4012   3.922   6.771   9.393 -0.3995 -0.4774  0.2471
   32DOPE   O11 4013   3.834   6.666   9.593  0.2881  0.1364 -0.3130
   32DOPE   O12 4014   4.009   6.553   9.476 -0.3012  0.0528  0.4064
   32DOPE    C1 4015   3.798   6.559   9.678 -0.1979 -0.3167  0.2199
   32DOPE    HA 4016   3.848   6.464   9.650 -1.7951 -0.5058 -2.3408
   32DOPE    HB 4017   3.688   6.551   9.688 -0.2592  0.9200  0.7588
   32DOPE    C2 4018   3.839   6.601   9.824 -0.2309  0.1764 -1.2890
   32DOPE    HS 4019   3.786   6.697   9.842  1.5407  1.3865 -2.2045
   32DOPE   O21 4020   3.983   6.624   9.822  0.1694 -0.1117 -0.1469
   32DOPE   C21 4021   4.021   6.730   9.893  0.1127 -0.0143 -0.4982
   32DOPE   O22 4022   3.951   6.820   9.933 -0.7366  0.3382  0.0346
   32DOPE   C22 4023   4.171   6.718   9.922  0.3148 -0.2870  0.0685
   32DOPE   H2R 4024   4.214   6.753   9.825 -0.4349 -1.2122 -0.6154
   32DOPE   H2S 4025   4.193   6.609   9.928 -2.0128 -0.8280 -0.2863
   32DOPE    C3 4026   3.793   6.491   9.927 -0.2542  0.3103 -0.2571
   32DOPE    HX 4027   3.816   6.392   9.884 -2.6310 -0.2675 -0.3142
   32DOPE    HY 4028   3.682   6.497   9.923 -0.1807  1.6029 -1.1641
   32DOPE   O31 4029   3.851   6.511  10.059  0.5859  0.2822 -0.0407
   32DOPE   C31 4030   3.800   6.434  10.153 -0.0177  0.0149  1.1476
   32DOPE   O32 4031   3.717   6.351  10.139  0.3572  0.2073  0.0983
   32DOPE   C32 4032   3.868   6.472  10.280  0.4969  0.3449 -0.0561
   32DOPE   H2X 4033   3.974   6.442  10.268 -0.3518 -2.4915 -1.2693
   32DOPE   H2Y 4034   3.852   6.581  10.295 -0.8537 -0.0790  1.9902
   32DOPE   C23 4035   4.215   6.794  10.048 -0.4996  0.0629 -0.5201
   32DOPE   H3R 4036   4.192   6.903  10.043  3.4411  1.2034  1.9074
   32DOPE   H3S 4037   4.325   6.796  10.062 -0.5877  2.0771  0.2600
   32DOPE   C24 4038   4.164   6.737  10.184 -0.1940 -0.4074 -0.3172
   32DOPE   H4R 4039   4.187   6.630  10.172 -2.3878 -1.1425  1.2702
   32DOPE   H4S 4040   4.055   6.757  10.195  0.2517  1.8296  0.6464
   32DOPE   C25 4041   4.240   6.796  10.300  0.0694  0.2540 -0.2416
   32DOPE   H5R 4042   4.238   6.907  10.301 -2.9411  0.2872 -1.0235
   32DOPE   H5S 4043   4.348   6.768  10.297  0.3511  1.1681  0.6051
   32DOPE   C26 4044   4.191   6.716  10.424  0.6382  0.0325  0.1857
   32DOPE   H6R 4045   4.169   6.608  10.414 -0.3880  0.0080  2.2215
   32DOPE   H6S 4046   4.095   6.764  10.452  1.2762  3.3518 -2.5784
   32DOPE   C27 4047   4.278   6.732  10.548  0.4280 -0.0039  0.1365
   32DOPE   H7R 4048   4.385   6.713  10.529  0.3975  0.3875 -0.4229
   32DOPE   H7S 4049   4.254   6.646  10.615  1.5278  0.6265  1.3739
   32DOPE   C28 4050   4.256   6.872  10.626  0.9046  0.5376  0.4112
   32DOPE   H8R 4051   4.151   6.874  10.661  0.4578 -0.7090 -0.8096
   32DOPE   H8S 4052   4.260   6.944  10.542 -1.9599 -1.4964 -1.6782
   32DOPE   C29 4053   4.353   6.917  10.733 -0.3107  0.1907  0.1545
   32DOPE   H9R 4054   4.450   6.951  10.692 -0.1935 -0.5371 -0.1791
   32DOPE  C210 4055   4.328   6.922  10.864 -0.0089 -0.7820  0.2637
   32DOPE  H10R 4056   4.413   6.938  10.932  0.4721 -0.5669 -0.3844
   32DOPE  C211 4057   4.204   6.864  10.932  0.0527 -0.0185 -0.0197
   32DOPE  H11R 4058   4.147   6.797  10.865 -1.3615  0.9432  0.1743
   32DOPE  H11S 4059   4.132   6.948  10.947 -2.8180 -2.4687  0.9093
   32DOPE  C212 4060   4.223   6.814  11.071  0.6593  0.4652 -1.0906
   32DOPE  H12R 4061   4.285   6.721  11.069  0.0044 -0.0071 -4.0017
   32DOPE  H12S 4062   4.122   6.777  11.099  0.9035  0.4273 -0.2142
   32DOPE  C213 4063   4.282   6.920  11.174 -0.0736  0.0389 -0.4348
   32DOPE  H13R 4064   4.233   7.016  11.145 -0.5093 -0.0335  0.0435
   32DOPE  H13S 4065   4.390   6.935  11.153  0.4787 -1.1788  1.2726
   32DOPE  C214 4066   4.254   6.892  11.320  0.6246 -0.2286  0.0140
   32DOPE  H14R 4067   4.266   6.784  11.346 -0.5319 -0.5026 -0.5079
   32DOPE  H14S 4068   4.145   6.909  11.328  0.5774 -0.6620  0.3778
   32DOPE  C215 4069   4.330   6.968  11.423 -0.5688 -0.6244 -0.0945
   32DOPE  H15R 4070   4.306   7.075  11.411  0.4944 -0.4985 -1.3398
   32DOPE  H15S 4071   4.440   6.954  11.413 -0.7090 -1.8948 -0.1070
   32DOPE  C216 4072   4.293   6.924  11.563  0.0815 -0.4502  0.1309
   32DOPE  H16R 4073   4.373   6.960  11.631 -0.8568 -0.1787  1.1148
   32DOPE  H16S 4074   4.287   6.814  11.579  2.0077 -0.3350  1.9932
   32DOPE  C217 4075   4.172   6.989  11.624 -0.0612  0.1565 -0.3793
   32DOPE  H17R 4076   4.154   6.947  11.725  0.5999 -1.2474 -0.8283
   32DOPE  H17S 4077   4.084   6.969  11.559 -0.1718  0.0051 -0.1849
   32DOPE  C218 4078   4.182   7.143  11.643 -0.0964 -0.0207  0.3845
   32DOPE  H18R 4079   4.257   7.160  11.723  0.3573 -0.2203  0.0048
   32DOPE  H18S 4080   4.090   7.204  11.661 -0.1068  0.3597 -0.8616
   32DOPE  H18T 4081   4.222   7.192  11.551 -0.5254 -1.7203 -0.7494
   32DOPE   C33 4082   3.795   6.396  10.391  0.1738  0.3736 -0.0270
   32DOPE   H3X 4083   3.826   6.290  10.382  1.1805  0.6151  0.4357
   32DOPE   H3Y 4084   3.688   6.398  10.363  0.4433  0.0909 -1.1137
   32DOPE   C34 4085   3.815   6.435  10.534 -0.3446  0.1263 -0.7602
   32DOPE   H4X 4086   3.800   6.544  10.547 -3.6181  0.1643 -3.6071
   32DOPE   H4Y 4087   3.738   6.389  10.600 -0.5391  0.7130 -0.5748
   32DOPE   C35 4088   3.942   6.393  10.601 -0.0304 -0.2534  0.8968
   32DOPE   H5X 4089   4.032   6.447  10.564 -0.4774  0.0177  0.2024
   32DOPE   H5Y 4090   3.966   6.287  10.576  0.6112  0.2657 -0.7787
   32DOPE   C36 4091   3.937   6.413  10.751 -1.1147  0.3257 -0.2419
   32DOPE   H6X 4092   3.894   6.510  10.783 -0.6932 -0.0325  1.5330
   32DOPE   H6Y 4093   4.043   6.418  10.785 -0.7659 -2.7495 -0.5488
   32DOPE   C37 4094   3.854   6.303  10.824 -0.0430  0.3584  1.0267
   32DOPE   H7X 4095   3.745   6.324  10.808  0.1597  2.2641  1.8486
   32DOPE   H7Y 4096   3.882   6.208  10.774  1.5988  1.7359 -0.8499
   32DOPE   C38 4097   3.880   6.286  10.973 -0.1908 -0.3172 -0.4510
   32DOPE   H8X 4098   3.822   6.206  11.023  1.8785 -0.6045  1.6727
   32DOPE   H8Y 4099   3.846   6.378  11.026 -0.6447 -2.4416  3.3043
   32DOPE   C39 4100   4.021   6.259  11.012 -0.5930 -0.3200 -0.0749
   32DOPE   H9X 4101   4.061   6.166  10.969  2.0695 -0.1666  1.7883
   32DOPE  C310 4102   4.100   6.319  11.107 -0.9406 -0.1770 -0.1618
   32DOPE  H10X 4103   4.201   6.276  11.117 -1.1771 -1.5487 -2.8560
   32DOPE  C311 4104   4.071   6.442  11.189  0.2386 -0.2132 -0.4884
   32DOPE  H11X 4105   4.153   6.514  11.170  0.0514  0.5094  1.2067
   32DOPE  H11Y 4106   3.971   6.484  11.162  0.3026  1.7066  1.8873
   32DOPE  C312 4107   4.071   6.415  11.342  0.4751 -0.4465  0.0060
   32DOPE  H12X 4108   4.168   6.391  11.391  1.3273  1.5049 -0.6315
   32DOPE  H12Y 4109   3.995   6.337  11.364  0.8514 -1.1558 -1.0962
   32DOPE  C313 4110   4.036   6.549  11.421  0.2027 -0.2837  0.5294
   32DOPE  H13X 4111   4.114   6.627  11.417  1.5006 -1.5078  0.9201
   32DOPE  H13Y 4112   3.951   6.583  11.358 -0.6224 -3.0881 -0.0522
   32DOPE  C314 4113   3.995   6.539  11.575  0.2477 -0.0725  0.0548
   32DOPE  H14X 4114   3.913   6.470  11.603 -0.3429  0.4196 -0.4377
   32DOPE  H14Y 4115   3.959   6.638  11.611  0.2894  0.7898 -2.1467
   32DOPE  C315 4116   4.116   6.502  11.670 -0.7935  0.0319  0.4674
   32DOPE  H15X 4117   4.191   6.583  11.656  0.8263 -1.3036  1.0852
   32DOPE  H15Y 4118   4.166   6.410  11.634 -2.3152 -0.3867 -0.6934
   32DOPE  C316 4119   4.072   6.485  11.816 -0.0783 -0.6625 -0.2543
   32DOPE  H16X 4120   4.153   6.438  11.876 -0.6391 -1.3577 -0.0312
   32DOPE  H16Y 4121   3.987   6.414  11.807 -2.0260  1.3258  1.3777
   32DOPE  C317 4122   4.010   6.605  11.897 -0.3942 -0.7348 -0.0853
   32DOPE  H17X 4123   4.068   6.698  11.874 -0.4832 -0.8810 -0.9558
   32DOPE  H17Y 4124   3.912   6.617  11.845  1.7455 -2.2565 -5.1347
   32DOPE  C318 4125   3.997   6.583  12.051  0.9206  0.1930  0.5322
   32DOPE  H18X 4126   3.975   6.680  12.101  1.0303  0.1080  0.7466
   32DOPE  H18Y 4127   3.917   6.508  12.069  1.4247 -0.6866 -0.7364
   32DOPE  H18Z 4128   4.094   6.546  12.091  1.6433 -0.5875 -1.7391
   33DOPE     N 4129   2.857   5.061   9.659 -0.4112 -0.0859 -0.0624
   33DOPE   HN1 4130   2.904   4.980   9.614  2.8507  2.0158 -0.7739
   33DOPE   HN2 4131   2.760   5.029   9.680 -0.5154  0.6053  0.5499
   33DOPE   HN3 4132   2.852   5.144   9.597 -1.2876 -0.5996 -0.7191
   33DOPE   C12 4133   2.926   5.092   9.787  0.0902 -0.1579  0.0511
   33DOPE  H12A 4134   3.032   5.121   9.771 -0.4497  2.3698  0.5272
   33DOPE  H12B 4135   2.913   5.008   9.858 -0.3693 -0.0521  0.1000
   33DOPE   C11 4136   2.856   5.207   9.854 -0.2512 -0.0607 -0.3864
   33DOPE  H11A 4137   2.881   5.205   9.962 -0.3869 -2.3182 -0.3494
   33DOPE  H11B 4138   2.746   5.193   9.852 -0.6170  1.2456  3.2482
   33DOPE     P 4139   3.010   5.415   9.843 -0.2335  0.1365 -0.1230
   33DOPE   O13 4140   3.004   5.554   9.792  0.0973 -0.9205  0.5397
   33DOPE   O14 4141   3.137   5.344   9.802  0.3417 -0.4549  0.7268
   33DOPE   O11 4142   3.002   5.418  10.000 -0.5550 -0.7003  0.2733
   33DOPE   O12 4143   2.882   5.335   9.792 -0.5946  0.6765  0.1967
   33DOPE    C1 4144   2.880   5.458  10.060 -0.0091 -0.2334  0.1016
   33DOPE    HA 4145   2.785   5.419  10.018 -2.7482  0.5605  4.8331
   33DOPE    HB 4146   2.871   5.569  10.056 -0.4420 -0.2832 -0.4043
   33DOPE    C2 4147   2.879   5.411  10.209 -1.0327 -0.0370 -0.1406
   33DOPE    HS 4148   2.969   5.460  10.251 -3.4739  2.3455  2.6867
   33DOPE   O21 4149   2.885   5.270  10.202  0.1389 -0.2420 -0.0386
   33DOPE   C21 4150   2.958   5.211  10.291  0.6025 -0.3151 -0.1264
   33DOPE   O22 4151   3.006   5.263  10.391 -0.4314 -0.3407  0.2877
   33DOPE   C22 4152   2.932   5.061  10.277  0.6343 -0.5521  0.3041
   33DOPE   H2R 4153   2.957   5.039  10.171  2.7445  0.7188  0.4974
   33DOPE   H2S 4154   2.824   5.033  10.284 -0.1198  1.6206 -1.4441
   33DOPE    C3 4155   2.754   5.456  10.288 -0.4580 -0.3285 -0.1006
   33DOPE    HX 4156   2.661   5.432  10.232 -0.4298  2.3039 -1.4579
   33DOPE    HY 4157   2.754   5.567  10.299 -0.9320 -0.2822 -0.5313
   33DOPE   O31 4158   2.743   5.396  10.422 -0.6714 -0.1769  0.6146
   33DOPE   C31 4159   2.823   5.450  10.513 -1.1017 -0.1516 -0.2820
   33DOPE   O32 4160   2.900   5.543  10.491 -0.5779  0.2339  0.0744
   33DOPE   C32 4161   2.781   5.392  10.646 -0.0034  0.0082  0.6377
   33DOPE   H2X 4162   2.721   5.467  10.703 -0.1270 -0.0739  0.6166
   33DOPE   H2Y 4163   2.715   5.304  10.629 -0.5529  0.3248  1.1018
   33DOPE   C23 4164   3.012   4.976  10.384  0.3110 -0.4245  0.5830
   33DOPE   H3R 4165   3.117   5.014  10.387 -0.5050  2.2981 -1.3407
   33DOPE   H3S 4166   3.010   4.870  10.353  0.6766  0.2028 -1.7350
   33DOPE   C24 4167   2.948   4.977  10.518 -0.1248 -0.5704 -0.5674
   33DOPE   H4R 4168   2.858   4.912  10.514 -0.3802 -0.3223  0.6904
   33DOPE   H4S 4169   2.913   5.077  10.550 -1.7205 -0.9618 -1.0048
   33DOPE   C25 4170   3.031   4.907  10.624  0.5162  0.6615 -0.9597
   33DOPE   H5R 4171   3.120   4.974  10.628  0.0182  1.3439 -1.1485
   33DOPE   H5S 4172   3.057   4.803  10.595  2.3185  0.3119  1.5584
   33DOPE   C26 4173   2.961   4.896  10.763  0.2426 -0.0948 -0.2905
   33DOPE   H6R 4174   2.880   4.820  10.757 -0.5645  0.3442  3.0440
   33DOPE   H6S 4175   2.909   4.987  10.801  2.0995  0.2817  1.5006
   33DOPE   C27 4176   3.059   4.844  10.871 -0.4016 -0.0759 -0.5202
   33DOPE   H7R 4177   3.136   4.922  10.892 -0.4753  0.2411 -1.3861
   33DOPE   H7S 4178   3.106   4.751  10.833  0.2428 -0.4509  1.1290
   33DOPE   C28 4179   2.988   4.796  10.998  0.6159  0.4653 -0.0625
   33DOPE   H8R 4180   3.052   4.724  11.054  3.4775 -0.6793 -4.3526
   33DOPE   H8S 4181   2.898   4.737  10.975 -0.6657  1.7763  1.3341
   33DOPE   C29 4182   2.932   4.910  11.078 -0.1087  0.1955  0.0711
   33DOPE   H9R 4183   2.872   4.982  11.021  0.5920  3.8931  3.5359
   33DOPE  C210 4184   2.931   4.923  11.214 -0.1652 -0.2954 -0.6809
   33DOPE  H10R 4185   2.872   5.007  11.252  0.8151  0.6867 -1.2720
   33DOPE  C211 4186   3.000   4.829  11.312 -0.2742 -0.3337  0.1132
   33DOPE  H11R 4187   3.064   4.880  11.387  1.4627 -0.9278 -0.9019
   33DOPE  H11S 4188   3.066   4.759  11.257 -2.4660 -2.4335 -0.0056
   33DOPE  C212 4189   2.903   4.754  11.402 -0.2051  0.8804  0.0584
   33DOPE  H12R 4190   2.955   4.663  11.439  0.3647  1.0288 -0.3660
   33DOPE  H12S 4191   2.807   4.720  11.357 -1.7220  0.2602  3.4629
   33DOPE  C213 4192   2.846   4.833  11.520 -1.1611 -0.0692 -0.5454
   33DOPE  H13R 4193   2.770   4.908  11.488 -1.0987 -0.4673 -1.6834
   33DOPE  H13S 4194   2.935   4.875  11.572  0.1314 -0.1011 -2.6286
   33DOPE  C214 4195   2.764   4.739  11.611  0.1493  0.0451  0.0507
   33DOPE  H14R 4196   2.791   4.632  11.599 -1.0172 -0.1984 -0.5569
   33DOPE  H14S 4197   2.658   4.738  11.579 -1.2986 -2.8103  4.0968
   33DOPE  C215 4198   2.760   4.775  11.759  0.0546 -0.2535 -0.0519
   33DOPE  H15R 4199   2.767   4.881  11.790  0.3925 -0.7655  1.7788
   33DOPE  H15S 4200   2.852   4.732  11.804  0.4856  1.2296  0.5323
   33DOPE  C216 4201   2.641   4.712  11.828  0.0139  0.1120  1.0132
   33DOPE  H16R 4202   2.639   4.609  11.787  2.7365 -0.1860  1.4260
   33DOPE  H16S 4203   2.547   4.754  11.786  1.2277  2.0346  0.0984
   33DOPE  C217 4204   2.641   4.720  11.981 -0.0478  0.8254  0.0794
   33DOPE  H17R 4205   2.651   4.824  12.019  0.2993  0.4488  1.0536
   33DOPE  H17S 4206   2.729   4.659  12.010 -2.4899 -2.8241  0.4307
   33DOPE  C218 4207   2.532   4.645  12.057 -0.3492 -1.0018 -0.3369
   33DOPE  H18R 4208   2.553   4.637  12.166  0.0630 -0.2407 -0.3541
   33DOPE  H18S 4209   2.518   4.549  12.002 -1.6524 -0.8392 -0.3182
   33DOPE  H18T 4210   2.436   4.700  12.060 -0.9400 -2.0702  1.1903
   33DOPE   C33 4211   2.902   5.359  10.739 -0.5158  0.2379 -0.0591
   33DOPE   H3X 4212   2.949   5.451  10.779  2.3528 -2.8898  4.6514
   33DOPE   H3Y 4213   2.973   5.298  10.678 -1.2969 -0.6377 -0.1135
   33DOPE   C34 4214   2.874   5.276  10.863  0.0065 -0.2703  0.8133
   33DOPE   H4X 4215   2.828   5.183  10.823 -0.6805  0.2649  0.3329
   33DOPE   H4Y 4216   2.969   5.254  10.917  1.3856 -1.2796 -1.8046
   33DOPE   C35 4217   2.776   5.348  10.953  0.3414  0.3179 -0.2883
   33DOPE   H5X 4218   2.696   5.385  10.885  0.9520  0.5231 -0.9004
   33DOPE   H5Y 4219   2.828   5.430  11.006  0.6070 -0.9699  1.5438
   33DOPE   C36 4220   2.690   5.269  11.064 -0.5299 -0.3258  0.4038
   33DOPE   H6X 4221   2.673   5.161  11.044 -1.0165 -0.4871  1.6608
   33DOPE   H6Y 4222   2.593   5.323  11.064  0.6417  1.8979  0.6237
   33DOPE   C37 4223   2.771   5.284  11.193  0.0242 -0.2899  0.0386
   33DOPE   H7X 4224   2.860   5.219  11.177 -0.1280 -0.1501 -1.5726
   33DOPE   H7Y 4225   2.802   5.390  11.198 -2.2241  0.4286 -0.2689
   33DOPE   C38 4226   2.693   5.241  11.315  0.4530 -0.4786 -0.4241
   33DOPE   H8X 4227   2.631   5.332  11.333  1.7517  1.1362 -3.3125
   33DOPE   H8Y 4228   2.758   5.239  11.405 -3.1694  2.0553  2.5537
   33DOPE   C39 4229   2.631   5.113  11.307  0.0645 -0.1006 -0.1990
   33DOPE   H9X 4230   2.663   5.050  11.222  0.8431  1.1208 -0.8395
   33DOPE  C310 4231   2.520   5.061  11.368 -0.8193  0.3152 -0.2246
   33DOPE  H10X 4232   2.485   4.960  11.343 -0.7861  0.4380 -0.7968
   33DOPE  C311 4233   2.442   5.147  11.463  0.3640  0.5583 -0.2354
   33DOPE  H11X 4234   2.458   5.256  11.447  0.2518  0.5395 -0.4860
   33DOPE  H11Y 4235   2.335   5.130  11.439 -0.1826  1.8032  1.1649
   33DOPE  C312 4236   2.475   5.112  11.613 -0.0261  0.5748  0.3119
   33DOPE  H12X 4237   2.482   5.001  11.618  2.0937  0.7425  2.2769
   33DOPE  H12Y 4238   2.385   5.139  11.672  0.1075 -2.1514  1.9253
   33DOPE  C313 4239   2.604   5.169  11.672  0.8949 -0.1527  0.1934
   33DOPE  H13X 4240   2.681   5.133  11.601 -1.7503 -1.3642 -2.2530
   33DOPE  H13Y 4241   2.591   5.279  11.666 -0.8364 -0.3975 -1.4642
   33DOPE  C314 4242   2.631   5.127  11.816 -0.1759 -0.3010 -0.3475
   33DOPE  H14X 4243   2.735   5.150  11.849  0.0265  0.5273 -1.4734
   33DOPE  H14Y 4244   2.610   5.022  11.846  2.3009 -0.2672  1.8710
   33DOPE  C315 4245   2.549   5.215  11.915 -0.3081 -0.1474 -0.1991
   33DOPE  H15X 4246   2.445   5.211  11.878 -0.1306  2.0693 -1.1261
   33DOPE  H15Y 4247   2.586   5.318  11.894 -2.0082  0.2671 -1.3714
   33DOPE  C316 4248   2.549   5.179  12.065  0.2152 -0.0181  0.3804
   33DOPE  H16X 4249   2.653   5.170  12.103  0.7279 -1.1916 -1.2065
   33DOPE  H16Y 4250   2.497   5.082  12.078 -1.2969  1.0528  3.2965
   33DOPE  C317 4251   2.459   5.267  12.152  0.0742  0.0790 -0.1159
   33DOPE  H17X 4252   2.356   5.260  12.112  0.0634 -1.1747  0.0985
   33DOPE  H17Y 4253   2.456   5.224  12.254 -0.6480 -0.8011 -0.4937
   33DOPE  C318 4254   2.507   5.408  12.167  0.3326  0.6775  0.1652
   33DOPE  H18X 4255   2.598   5.423  12.229  0.5481 -0.1779  0.0737
   33DOPE  H18Y 4256   2.540   5.445  12.067  1.0975  0.5479  0.3669
   33DOPE  H18Z 4257   2.424   5.470  12.207 -2.4192 -2.6082  0.0112
   34DOPE     N 4258   2.656   0.576   9.399 -0.1837 -0.4549 -0.4100
   34DOPE   HN1 4259   2.612   0.486   9.428 -2.4953  1.0551  1.1286
   34DOPE   HN2 4260   2.757   0.557   9.384 -0.7439 -2.6411 -2.0435
   34DOPE   HN3 4261   2.649   0.639   9.481 -1.3784 -0.1525 -0.7262
   34DOPE   C12 4262   2.588   0.634   9.281 -0.3597  0.4221  0.2330
   34DOPE  H12A 4263   2.630   0.594   9.186  2.6884  1.4867  1.0207
   34DOPE  H12B 4264   2.620   0.741   9.275 -0.0141  0.2466 -1.7493
   34DOPE   C11 4265   2.437   0.616   9.297  0.4293  0.2691 -0.0619
   34DOPE  H11A 4266   2.413   0.522   9.243 -0.7932 -1.5611  3.4149
   34DOPE  H11B 4267   2.380   0.696   9.244  0.3746 -0.2128 -0.7400
   34DOPE     P 4268   2.359   0.462   9.489 -0.3042  0.2057  0.4329
   34DOPE   O13 4269   2.484   0.384   9.478  0.2475 -0.5501  0.0335
   34DOPE   O14 4270   2.242   0.411   9.420  0.0046  0.0009  0.1482
   34DOPE   O11 4271   2.329   0.501   9.637 -0.0815  0.7035 -0.3408
   34DOPE   O12 4272   2.395   0.605   9.433 -0.2311 -0.2159 -0.0894
   34DOPE    C1 4273   2.428   0.492   9.740 -0.6857 -0.1647  0.6441
   34DOPE    HA 4274   2.412   0.563   9.824 -0.0956  0.2453  0.4188
   34DOPE    HB 4275   2.528   0.510   9.694  0.2061 -1.3987  1.9909
   34DOPE    C2 4276   2.433   0.353   9.803  0.4170 -0.6129 -0.5003
   34DOPE    HS 4277   2.458   0.284   9.721 -0.1542 -0.8981 -0.4417
   34DOPE   O21 4278   2.304   0.334   9.876 -0.7098  0.1657 -0.3047
   34DOPE   C21 4279   2.259   0.209   9.879 -0.5001  0.1551 -0.3752
   34DOPE   O22 4280   2.304   0.114   9.817 -0.3944  0.5361  0.7092
   34DOPE   C22 4281   2.141   0.197   9.967 -1.0969  0.3865 -0.0423
   34DOPE   H2R 4282   2.056   0.177   9.898  0.1197 -1.3996 -1.1027
   34DOPE   H2S 4283   2.120   0.295  10.015 -0.9812 -0.2983  1.4633
   34DOPE    C3 4284   2.540   0.326   9.910 -0.1847 -0.1982  0.1453
   34DOPE    HX 4285   2.532   0.397   9.995  1.0761 -2.3100  2.1401
   34DOPE    HY 4286   2.638   0.356   9.866  0.0034 -0.6686  0.2456
   34DOPE   O31 4287   2.541   0.202   9.970  0.3881 -0.5145  0.2440
   34DOPE   C31 4288   2.647   0.128   9.977  0.4783 -0.1026  0.1390
   34DOPE   O32 4289   2.748   0.151   9.910  0.1034 -0.0197  0.5227
   34DOPE   C32 4290   2.634   0.016  10.080 -0.0737  0.2625  0.3038
   34DOPE   H2X 4291   2.539  -0.039  10.062 -0.0636  0.7710 -1.4172
   34DOPE   H2Y 4292   2.713  -0.055  10.047 -0.3316 -0.1748  0.6054
   34DOPE   C23 4293   2.153   0.089  10.077 -0.3893  0.1032  0.5010
   34DOPE   H3R 4294   2.186  -0.013  10.045  1.0650  0.9656 -0.9123
   34DOPE   H3S 4295   2.051   0.079  10.120  0.4377  1.1124  2.8389
   34DOPE   C24 4296   2.249   0.124  10.192  0.2036 -0.0642  0.7916
   34DOPE   H4R 4297   2.216   0.222  10.233 -2.5529 -0.4420 -0.3153
   34DOPE   H4S 4298   2.354   0.131  10.157 -0.9235  0.2897 -2.8525
   34DOPE   C25 4299   2.235   0.034  10.313  0.1403 -0.3397  0.3452
   34DOPE   H5R 4300   2.292  -0.061  10.300  0.4764 -0.0617 -0.2779
   34DOPE   H5S 4301   2.131   0.000  10.327  0.0811 -0.5705 -0.5957
   34DOPE   C26 4302   2.306   0.093  10.435 -0.1881 -0.6348 -0.1996
   34DOPE   H6R 4303   2.245   0.180  10.468 -0.9280 -1.0387 -0.4607
   34DOPE   H6S 4304   2.399   0.148  10.412  1.2151 -2.5409  0.6763
   34DOPE   C27 4305   2.357  -0.003  10.541 -0.9394  0.5808 -0.6568
   34DOPE   H7R 4306   2.444  -0.064  10.507 -1.5795 -1.2141  0.8422
   34DOPE   H7S 4307   2.271  -0.063  10.576  0.5560 -0.2041  1.9824
   34DOPE   C28 4308   2.413   0.069  10.668 -0.4250  0.2898 -0.3526
   34DOPE   H8R 4309   2.328   0.126  10.712 -0.1638 -0.1436  0.7473
   34DOPE   H8S 4310   2.492   0.141  10.639  1.5746 -1.2342  1.0319
   34DOPE   C29 4311   2.466  -0.019  10.781  0.0860 -0.8752  0.3525
   34DOPE   H9R 4312   2.560  -0.069  10.754 -0.1448 -0.2955 -1.6988
   34DOPE  C210 4313   2.415  -0.044  10.902  0.3874  0.7668 -0.6498
   34DOPE  H10R 4314   2.473  -0.105  10.973  0.3634  0.4634 -0.8904
   34DOPE  C211 4315   2.289   0.014  10.966 -0.3739  0.0088  0.6862
   34DOPE  H11R 4316   2.213  -0.067  10.963  0.0758 -0.4128  0.5199
   34DOPE  H11S 4317   2.260   0.102  10.904  2.1389  0.6717  0.3261
   34DOPE  C212 4318   2.315   0.048  11.117  0.2147  0.5257 -0.3262
   34DOPE  H12R 4319   2.361  -0.039  11.170 -0.4294 -0.3308 -1.1507
   34DOPE  H12S 4320   2.217   0.054  11.169  0.6703 -2.6194  1.1353
   34DOPE  C213 4321   2.414   0.171  11.140  0.1034 -0.1676  0.3630
   34DOPE  H13R 4322   2.357   0.261  11.109 -1.3217 -1.0201  0.4338
   34DOPE  H13S 4323   2.501   0.160  11.072 -0.1643  0.9820 -0.1952
   34DOPE  C214 4324   2.446   0.205  11.283  0.0775 -0.7181 -1.0850
   34DOPE  H14R 4325   2.349   0.222  11.333  1.0973 -1.0881  1.1233
   34DOPE  H14S 4326   2.495   0.303  11.297 -0.0733 -0.9940  1.9062
   34DOPE  C215 4327   2.529   0.101  11.364 -0.2974  0.2247  0.3250
   34DOPE  H15R 4328   2.491  -0.003  11.359  1.2055 -0.3808  0.7763
   34DOPE  H15S 4329   2.535   0.117  11.474  0.0817 -1.2860  0.5366
   34DOPE  C216 4330   2.671   0.087  11.302 -0.9185  0.3443  0.1200
   34DOPE  H16R 4331   2.726   0.177  11.337  0.7608 -0.2369 -0.8597
   34DOPE  H16S 4332   2.670   0.084  11.191  1.1846 -0.5923  0.0625
   34DOPE  C217 4333   2.750  -0.035  11.337 -0.6154  0.2076  0.0286
   34DOPE  H17R 4334   2.854  -0.013  11.304 -1.0748 -0.3479 -1.8960
   34DOPE  H17S 4335   2.717  -0.128  11.287 -0.0201 -0.0453  0.1003
   34DOPE  C218 4336   2.755  -0.058  11.492 -0.0011  0.7634 -0.0571
   34DOPE  H18R 4337   2.655  -0.082  11.533 -0.1443  1.7453  0.1935
   34DOPE  H18S 4338   2.791   0.033  11.545  0.3365 -0.6168  2.2018
   34DOPE  H18T 4339   2.838  -0.127  11.517  1.0070  1.7422 -0.5828
   34DOPE   C33 4340   2.664   0.054  10.225 -1.0833 -0.0787  0.1237
   34DOPE   H3X 4341   2.588   0.124  10.266 -1.5435  0.3024 -1.3256
   34DOPE   H3Y 4342   2.769   0.087  10.217 -0.9848 -0.8178 -5.6217
   34DOPE   C34 4343   2.644  -0.068  10.316  0.1788  0.1128 -0.2836
   34DOPE   H4X 4344   2.656  -0.028  10.419 -2.6400  0.4958 -0.0437
   34DOPE   H4Y 4345   2.539  -0.104  10.314 -0.6278  2.3324 -1.0222
   34DOPE   C35 4346   2.728  -0.193  10.289  0.0473  0.2764  0.0894
   34DOPE   H5X 4347   2.835  -0.163  10.288  0.4417 -0.7697  2.4772
   34DOPE   H5Y 4348   2.706  -0.238  10.190 -0.4745  0.2989  0.1920
   34DOPE   C36 4349   2.708  -0.304  10.393 -0.9243 -0.2105 -0.5295
   34DOPE   H6X 4350   2.601  -0.331  10.381 -1.0149 -0.5882  0.9017
   34DOPE   H6Y 4351   2.736  -0.270  10.495  1.7711  0.2817 -1.3348
   34DOPE   C37 4352   2.803  -0.418  10.351 -0.5377 -0.7577 -0.1663
   34DOPE   H7X 4353   2.787  -0.507  10.416  1.7513 -1.2986 -0.2899
   34DOPE   H7Y 4354   2.780  -0.444  10.246 -2.1824 -0.9084  0.1931
   34DOPE   C38 4355   2.949  -0.381  10.369 -0.4617  0.7407 -0.7284
   34DOPE   H8X 4356   2.959  -0.329  10.467 -0.5461 -0.4390 -0.0830
   34DOPE   H8Y 4357   2.989  -0.303  10.300  0.6553  1.1707  0.3545
   34DOPE   C39 4358   3.050  -0.503  10.357  0.2822  0.0263 -0.1248
   34DOPE   H9X 4359   3.066  -0.555  10.261  1.8809 -1.4367  0.8702
   34DOPE  C310 4360   3.108  -0.557  10.468 -0.0905 -0.0390 -0.0250
   34DOPE  H10X 4361   3.176  -0.640  10.443  0.4261 -0.1295  1.6107
   34DOPE  C311 4362   3.115  -0.509  10.612 -0.0738 -0.2646 -0.1951
   34DOPE  H11X 4363   3.224  -0.506  10.633  0.4002 -1.5774 -2.1660
   34DOPE  H11Y 4364   3.076  -0.407  10.633  1.0463  0.4541 -1.4503
   34DOPE  C312 4365   3.049  -0.612  10.702  0.4658 -0.3702 -0.6823
   34DOPE  H12X 4366   3.070  -0.717  10.670  0.9074 -0.2650 -0.7453
   34DOPE  H12Y 4367   2.939  -0.593  10.695  0.3107 -1.4685 -1.6557
   34DOPE  C313 4368   3.089  -0.600  10.853  0.2849  0.0431  0.1372
   34DOPE  H13X 4369   3.199  -0.611  10.869  0.3571  1.4691  0.7593
   34DOPE  H13Y 4370   3.048  -0.501  10.881 -2.9275 -1.3442  0.7362
   34DOPE  C314 4371   3.022  -0.701  10.944  0.3344  0.2209 -0.7866
   34DOPE  H14X 4372   3.055  -0.806  10.928  1.8275  0.6785 -0.8759
   34DOPE  H14Y 4373   2.913  -0.683  10.933  0.1358 -1.3644 -1.6783
   34DOPE  C315 4374   3.077  -0.679  11.088 -0.0893  0.7784  0.7463
   34DOPE  H15X 4375   3.055  -0.571  11.106 -0.5992  0.7957  0.0476
   34DOPE  H15Y 4376   3.186  -0.696  11.102 -0.0049 -1.0291 -1.5682
   34DOPE  C316 4377   2.998  -0.751  11.200 -0.0978  1.0364  0.6042
   34DOPE  H16X 4378   3.013  -0.859  11.178  2.6551  0.8963  2.6692
   34DOPE  H16Y 4379   2.891  -0.724  11.187 -0.8345 -1.8570 -0.0362
   34DOPE  C317 4380   3.025  -0.717  11.338  0.2037 -0.1399 -1.0403
   34DOPE  H17X 4381   3.127  -0.753  11.366 -0.1413 -0.8736 -0.6949
   34DOPE  H17Y 4382   3.037  -0.608  11.353  1.9142 -0.5271  0.9139
   34DOPE  C318 4383   2.926  -0.774  11.442  0.0547 -0.3124  0.1292
   34DOPE  H18X 4384   2.893  -0.876  11.413 -1.0325 -0.3212  1.3064
   34DOPE  H18Y 4385   2.958  -0.775  11.548 -1.6711 -0.4080  0.6843
   34DOPE  H18Z 4386   2.829  -0.719  11.435 -0.0096 -0.4014  0.3399
   35DOPE     N 4387   3.963   5.665   9.712  1.0561 -0.5598 -0.6380
   35DOPE   HN1 4388   3.869   5.639   9.676  0.3652  0.0633  0.6351
   35DOPE   HN2 4389   3.971   5.763   9.678 -1.2972 -0.5673 -1.3815
   35DOPE   HN3 4390   4.031   5.615   9.652  0.5253  0.0461 -1.7705
   35DOPE   C12 4391   3.980   5.646   9.865  0.4228  0.4877 -0.4234
   35DOPE  H12A 4392   3.928   5.554   9.899 -1.8755  2.1309  0.7784
   35DOPE  H12B 4393   3.918   5.727   9.909 -0.2963 -0.5890  0.5796
   35DOPE   C11 4394   4.130   5.645   9.900 -0.1710 -0.6816 -0.1178
   35DOPE  H11A 4395   4.153   5.664  10.007 -1.5699 -2.1674  0.4897
   35DOPE  H11B 4396   4.164   5.734   9.842 -1.1717  0.6498  1.2420
   35DOPE     P 4397   4.329   5.510   9.778  0.0398  0.0610  0.4420
   35DOPE   O13 4398   4.310   5.563   9.642 -0.4208 -0.2620 -0.0067
   35DOPE   O14 4399   4.367   5.366   9.782 -0.1845 -0.1779 -0.5766
   35DOPE   O11 4400   4.426   5.590   9.864 -0.1401  0.2608  0.0659
   35DOPE   O12 4401   4.191   5.525   9.858  0.2197  0.5248  0.6188
   35DOPE    C1 4402   4.510   5.543   9.970  0.3818  0.1853 -0.5176
   35DOPE    HA 4403   4.607   5.595   9.979 -0.3730  2.2368 -3.1492
   35DOPE    HB 4404   4.532   5.438   9.940 -1.1355 -0.2063 -0.3546
   35DOPE    C2 4405   4.438   5.543  10.109  0.8617  0.1563 -0.4035
   35DOPE    HS 4406   4.344   5.485  10.105  1.0772 -0.3008  0.7733
   35DOPE   O21 4407   4.428   5.684  10.151 -0.4863  0.0798  0.3361
   35DOPE   C21 4408   4.321   5.722  10.215  0.0232 -0.0124 -0.7298
   35DOPE   O22 4409   4.228   5.653  10.245  0.0149  0.0883 -0.1962
   35DOPE   C22 4410   4.347   5.863  10.265 -0.2458  0.7849  0.0616
   35DOPE   H2R 4411   4.269   5.885  10.341 -0.8769  1.6157 -0.7925
   35DOPE   H2S 4412   4.324   5.930  10.179  0.0553  0.3046 -0.3951
   35DOPE    C3 4413   4.517   5.469  10.217 -0.9374 -0.6872 -0.3881
   35DOPE    HX 4414   4.619   5.511  10.227 -0.5391 -1.6993 -0.0684
   35DOPE    HY 4415   4.532   5.363  10.187 -0.1487 -0.1303 -2.0705
   35DOPE   O31 4416   4.455   5.492  10.345  0.0404  0.3520  0.4095
   35DOPE   C31 4417   4.350   5.415  10.389 -0.6000 -0.4851  1.2150
   35DOPE   O32 4418   4.310   5.325  10.321 -0.0677  0.1560 -0.0075
   35DOPE   C32 4419   4.297   5.470  10.523 -0.1314  0.0523  0.4376
   35DOPE   H2X 4420   4.382   5.459  10.594  0.2956  1.0315  0.1062
   35DOPE   H2Y 4421   4.275   5.578  10.506  1.6192  0.5648  1.1570
   35DOPE   C23 4422   4.492   5.897  10.321  0.0842 -0.7821  0.1675
   35DOPE   H3R 4423   4.491   6.004  10.352 -0.4934 -0.9691  0.8207
   35DOPE   H3S 4424   4.563   5.890  10.237 -0.5090  1.2871 -0.5601
   35DOPE   C24 4425   4.536   5.816  10.450 -0.3356  0.1140 -0.1386
   35DOPE   H4R 4426   4.646   5.806  10.464 -0.1121 -1.5332 -2.5501
   35DOPE   H4S 4427   4.506   5.710  10.437 -0.7067  0.1888  0.1042
   35DOPE   C25 4428   4.465   5.879  10.569  0.4759 -0.0575  0.0748
   35DOPE   H5R 4429   4.359   5.895  10.540  0.4546  0.0859  0.2356
   35DOPE   H5S 4430   4.509   5.980  10.585  1.6930 -0.6392  0.5678
   35DOPE   C26 4431   4.471   5.797  10.699  0.0016 -0.2994 -0.2592
   35DOPE   H6R 4432   4.409   5.705  10.695 -0.0258 -0.4755  2.6380
   35DOPE   H6S 4433   4.428   5.865  10.775  0.5180 -1.7219  1.3521
   35DOPE   C27 4434   4.613   5.766  10.745  0.1000  0.4627  0.3040
   35DOPE   H7R 4435   4.679   5.849  10.713  0.7037 -0.6656 -1.4909
   35DOPE   H7S 4436   4.647   5.672  10.696 -1.2956 -0.2749  0.7080
   35DOPE   C28 4437   4.614   5.761  10.901 -0.0736  0.1186  0.5524
   35DOPE   H8R 4438   4.547   5.841  10.940 -0.5659 -1.1796  2.5833
   35DOPE   H8S 4439   4.713   5.784  10.945  0.3200  0.2256 -0.3858
   35DOPE   C29 4440   4.569   5.623  10.955  0.5103  0.4050 -0.0167
   35DOPE   H9R 4441   4.582   5.539  10.886 -1.0618  0.5749 -0.5608
   35DOPE  C210 4442   4.509   5.595  11.074 -0.2581 -0.7428 -0.3497
   35DOPE  H10R 4443   4.472   5.496  11.106 -0.1294 -0.5210  0.5170
   35DOPE  C211 4444   4.471   5.690  11.186  0.1958 -0.2990  0.4039
   35DOPE  H11R 4445   4.362   5.709  11.178 -0.0314 -2.3388 -2.9069
   35DOPE  H11S 4446   4.522   5.788  11.178 -1.8933  0.8494  0.4348
   35DOPE  C212 4447   4.504   5.620  11.319  0.2531  0.0479  0.6906
   35DOPE  H12R 4448   4.612   5.605  11.336  0.6169 -0.1952 -1.5149
   35DOPE  H12S 4449   4.469   5.515  11.320  0.5627 -0.0967 -0.7553
   35DOPE  C213 4450   4.432   5.689  11.439  0.3841 -0.5826  0.0639
   35DOPE  H13R 4451   4.330   5.716  11.403  0.9154  0.2062 -0.9008
   35DOPE  H13S 4452   4.487   5.785  11.448  0.5788 -0.7031  0.1460
   35DOPE  C214 4453   4.440   5.622  11.574  0.9851 -0.0468  0.4724
   35DOPE  H14R 4454   4.535   5.565  11.585 -0.0847 -1.7945  1.1556
   35DOPE  H14S 4455   4.371   5.535  11.583 -2.3679  2.3993  0.3010
   35DOPE  C215 4456   4.404   5.709  11.697 -0.2853  0.2193  0.6378
   35DOPE  H15R 4457   4.313   5.769  11.677 -0.4366 -0.9794 -2.9860
   35DOPE  H15S 4458   4.497   5.770  11.706 -0.0064  0.0292 -0.6878
   35DOPE  C216 4459   4.372   5.632  11.826  0.5278  0.4155  0.5614
   35DOPE  H16R 4460   4.432   5.538  11.820 -0.8618 -0.5349  1.0996
   35DOPE  H16S 4461   4.267   5.597  11.831  0.7538 -0.1657  1.4615
   35DOPE  C217 4462   4.405   5.733  11.943 -0.1226  0.1815 -0.0345
   35DOPE  H17R 4463   4.498   5.793  11.927  1.3099 -1.4567  1.6865
   35DOPE  H17S 4464   4.423   5.675  12.036  1.0437  2.9701  1.6222
   35DOPE  C218 4465   4.286   5.826  11.987  0.2628  0.7501 -0.4559
   35DOPE  H18R 4466   4.252   5.877  11.895 -1.0908  1.1525  0.2402
   35DOPE  H18S 4467   4.323   5.893  12.067  1.7981 -0.1163 -0.3942
   35DOPE  H18T 4468   4.207   5.760  12.030  1.8727  0.3281  2.1262
   35DOPE   C33 4469   4.179   5.384  10.566  0.1366 -0.2519  0.3671
   35DOPE   H3X 4470   4.192   5.275  10.584 -2.7443 -1.2560 -2.7164
   35DOPE   H3Y 4471   4.102   5.396  10.488 -1.2830 -0.9317  1.6081
   35DOPE   C34 4472   4.106   5.442  10.695  0.2966 -0.6899 -0.0273
   35DOPE   H4X 4473   4.106   5.553  10.688 -1.7298 -0.7023 -0.8057
   35DOPE   H4Y 4474   4.002   5.405  10.703 -1.3544  3.3296 -0.6026
   35DOPE   C35 4475   4.173   5.394  10.825  0.9892  0.2669 -1.1291
   35DOPE   H5X 4476   4.279   5.425  10.837  0.6735  1.2809 -0.8745
   35DOPE   H5Y 4477   4.170   5.283  10.819  0.6481  0.1055  1.2329
   35DOPE   C36 4478   4.086   5.439  10.947 -0.3509  0.1114  0.4599
   35DOPE   H6X 4479   3.979   5.409  10.935  0.0839 -1.2371 -0.2342
   35DOPE   H6Y 4480   4.078   5.549  10.956  0.9314  0.1237  1.6091
   35DOPE   C37 4481   4.152   5.395  11.072 -0.4109  0.8367 -1.0366
   35DOPE   H7X 4482   4.143   5.284  11.079 -0.0241  0.8691  0.4285
   35DOPE   H7Y 4483   4.260   5.422  11.075 -0.2738  0.2453  0.2013
   35DOPE   C38 4484   4.091   5.453  11.205  0.1211  0.3210 -0.0792
   35DOPE   H8X 4485   3.981   5.440  11.209  0.0114  0.2632 -2.1728
   35DOPE   H8Y 4486   4.098   5.564  11.207 -1.4000  0.5414 -2.4760
   35DOPE   C39 4487   4.168   5.409  11.327 -0.5694  0.0202 -0.0748
   35DOPE   H9X 4488   4.274   5.382  11.313 -0.2230  0.0006  2.2804
   35DOPE  C310 4489   4.131   5.418  11.456 -0.6100  0.2610  0.9575
   35DOPE  H10X 4490   4.204   5.384  11.531 -0.5792 -1.5727  0.1383
   35DOPE  C311 4491   3.996   5.461  11.511  0.3357  0.1288  0.9479
   35DOPE  H11X 4492   3.940   5.514  11.430 -3.3856  0.4040  3.4420
   35DOPE  H11Y 4493   3.923   5.379  11.529  0.5510 -0.8123 -1.8901
   35DOPE  C312 4494   3.985   5.553  11.632  0.0299  0.5013 -0.0280
   35DOPE  H12X 4495   3.881   5.591  11.633 -0.3845 -0.5289 -1.1462
   35DOPE  H12Y 4496   4.049   5.644  11.631  0.4658  0.2476  1.4765
   35DOPE  C313 4497   4.011   5.475  11.767  0.2011 -0.4345 -0.8984
   35DOPE  H13X 4498   3.955   5.380  11.764  1.7699 -1.4973  0.9167
   35DOPE  H13Y 4499   4.120   5.454  11.772  0.5491  1.2819 -0.5613
   35DOPE  C314 4500   3.970   5.560  11.887  0.0103  0.3103 -0.1921
   35DOPE  H14X 4501   3.860   5.549  11.901  0.3446  0.2177  3.2077
   35DOPE  H14Y 4502   4.007   5.663  11.865  3.9339 -1.1858 -1.4716
   35DOPE  C315 4503   4.038   5.516  12.016 -0.3998  0.5119 -0.0220
   35DOPE  H15X 4504   4.007   5.576  12.104 -2.1678 -1.4367  0.7933
   35DOPE  H15Y 4505   4.149   5.519  12.009 -0.3228 -0.8374  0.2352
   35DOPE  C316 4506   3.996   5.366  12.054 -0.1357  0.4328 -0.4616
   35DOPE  H16X 4507   4.056   5.302  11.986 -1.1831  0.3719 -1.3556
   35DOPE  H16Y 4508   3.888   5.359  12.030 -0.4959 -0.2504  1.2450
   35DOPE  C317 4509   4.029   5.322  12.196 -0.1360 -1.2299 -0.7720
   35DOPE  H17X 4510   4.138   5.307  12.212  0.1489  2.4298  1.8348
   35DOPE  H17Y 4511   4.007   5.400  12.272  1.2876 -2.5881  1.1556
   35DOPE  C318 4512   3.944   5.203  12.232  0.3863  0.2280 -0.8678
   35DOPE  H18X 4513   3.955   5.115  12.165 -1.8257 -0.0606 -0.9120
   35DOPE  H18Y 4514   3.970   5.170  12.335  3.5245  0.7342 -1.4068
   35DOPE  H18Z 4515   3.838   5.233  12.224  0.6321  1.1243 -0.8363
   36DOPE     N 4516   4.020   0.716   9.859  0.2237 -0.1623  0.8040
   36DOPE   HN1 4517   3.987   0.657   9.781 -2.4189  0.8804  1.0143
   36DOPE   HN2 4518   4.008   0.664   9.948  2.6185  0.0902  1.3508
   36DOPE   HN3 4519   3.963   0.803   9.859  0.4519  0.0291 -1.1984
   36DOPE   C12 4520   4.159   0.762   9.827  0.3059 -0.2632 -0.3636
   36DOPE  H12A 4521   4.187   0.843   9.898 -0.6009 -0.6748  0.4751
   36DOPE  H12B 4522   4.146   0.811   9.728 -1.8696  2.5265  1.1383
   36DOPE   C11 4523   4.270   0.655   9.834  0.3931  0.6754  0.3680
   36DOPE  H11A 4524   4.265   0.601   9.931 -2.1718 -1.7801 -1.0104
   36DOPE  H11B 4525   4.367   0.710   9.830  0.1197  1.1734  0.4005
   36DOPE     P 4526   4.332   0.570   9.592  0.1102  0.0519 -0.0416
   36DOPE   O13 4527   4.391   0.708   9.583  0.2989  0.6272 -0.0570
   36DOPE   O14 4528   4.240   0.529   9.480  0.6755 -0.4033 -0.0665
   36DOPE   O11 4529   4.448   0.462   9.598  0.2988 -0.2657  0.7187
   36DOPE   O12 4530   4.247   0.558   9.728  0.0151  0.3870 -0.0198
   36DOPE    C1 4531   4.438   0.335   9.666  0.3049 -0.3605  0.6357
   36DOPE    HA 4532   4.495   0.259   9.607  0.6311  1.3279 -1.3437
   36DOPE    HB 4533   4.333   0.302   9.677  0.4107 -1.0960 -0.4477
   36DOPE    C2 4534   4.501   0.352   9.806 -0.5606 -0.5362 -0.3997
   36DOPE    HS 4535   4.431   0.415   9.864 -1.2397  0.1502 -1.9107
   36DOPE   O21 4536   4.626   0.415   9.796 -0.4570 -0.3082  0.2505
   36DOPE   C21 4537   4.650   0.524   9.867 -0.0123 -0.2211  0.1435
   36DOPE   O22 4538   4.580   0.586   9.939  0.5942 -0.1041  0.3244
   36DOPE   C22 4539   4.790   0.572   9.830  0.8359  0.2854  0.0355
   36DOPE   H2R 4540   4.775   0.608   9.725 -1.3464  0.0438  0.2362
   36DOPE   H2S 4541   4.850   0.478   9.827  3.1123  1.6576 -1.8008
   36DOPE    C3 4542   4.511   0.220   9.892  0.4751 -1.1537 -0.4752
   36DOPE    HX 4543   4.602   0.158   9.880  0.7281 -0.7481 -0.7146
   36DOPE    HY 4544   4.433   0.149   9.856  0.4944 -1.3743 -0.0754
   36DOPE   O31 4545   4.477   0.242  10.029  0.0685 -0.0141 -0.2225
   36DOPE   C31 4546   4.582   0.281  10.103  0.2462 -0.7431 -0.2320
   36DOPE   O32 4547   4.693   0.292  10.063 -0.2926 -0.2253 -0.0353
   36DOPE   C32 4548   4.530   0.332  10.236  0.0342 -0.0064  0.2549
   36DOPE   H2X 4549   4.480   0.429  10.213 -2.1920 -1.3205 -0.6742
   36DOPE   H2Y 4550   4.446   0.268  10.270 -0.7967  0.9983  0.1394
   36DOPE   C23 4551   4.861   0.675   9.927  0.1899  0.1166  0.0972
   36DOPE   H3R 4552   4.797   0.760   9.957  0.7270  0.4941  0.2021
   36DOPE   H3S 4553   4.947   0.712   9.866  0.0490  1.8051  0.8484
   36DOPE   C24 4554   4.923   0.606  10.047  0.2513  0.4217 -0.1503
   36DOPE   H4R 4555   4.986   0.524  10.005 -1.4592  0.2776 -2.6835
   36DOPE   H4S 4556   4.845   0.562  10.112  0.8996 -0.5579 -0.0039
   36DOPE   C25 4557   4.999   0.698  10.139  0.6162  0.2604  0.2022
   36DOPE   H5R 4558   4.929   0.766  10.192 -1.2641 -0.8912 -0.7364
   36DOPE   H5S 4559   5.060   0.766  10.075  0.1634  0.9765  0.5185
   36DOPE   C26 4560   5.087   0.639  10.245 -0.3694  0.3115  0.0473
   36DOPE   H6R 4561   5.171   0.590  10.192 -0.8592  1.5056 -1.9352
   36DOPE   H6S 4562   5.038   0.563  10.310  1.6365  0.0009  1.2514
   36DOPE   C27 4563   5.158   0.747  10.331 -0.4504  0.2477  0.4425
   36DOPE   H7R 4564   5.080   0.776  10.404 -0.2105 -1.5347  1.4514
   36DOPE   H7S 4565   5.193   0.829  10.264 -1.6766 -0.7902 -1.5660
   36DOPE   C28 4566   5.270   0.691  10.420 -0.2128  0.3132  0.6195
   36DOPE   H8R 4567   5.359   0.667  10.358 -0.3946 -0.7691  0.7691
   36DOPE   H8S 4568   5.227   0.593  10.448 -0.1924 -0.2173 -1.1209
   36DOPE   C29 4569   5.302   0.763  10.548 -0.1821  0.5212 -0.0613
   36DOPE   H9R 4570   5.407   0.797  10.549 -0.0688  0.1818 -0.4114
   36DOPE  C210 4571   5.234   0.754  10.663 -0.3294  0.3602 -0.9864
   36DOPE  H10R 4572   5.276   0.799  10.754 -1.8197 -3.0789  1.5708
   36DOPE  C211 4573   5.092   0.702  10.674 -0.4812 -0.1762  0.0013
   36DOPE  H11R 4574   5.096   0.609  10.735 -0.1937  1.2573  2.3083
   36DOPE  H11S 4575   5.043   0.668  10.580 -0.6541 -1.4470  0.5301
   36DOPE  C212 4576   4.990   0.795  10.753 -0.7093  0.4193  0.2086
   36DOPE  H12R 4577   4.894   0.740  10.761 -0.9617  0.3156 -2.5665
   36DOPE  H12S 4578   4.981   0.886  10.690 -0.2179  0.0393 -0.4191
   36DOPE  C213 4579   5.031   0.835  10.898 -0.0308  0.4111  0.0502
   36DOPE  H13R 4580   4.987   0.932  10.930 -1.5648 -0.2220 -0.0561
   36DOPE  H13S 4581   5.140   0.854  10.898 -0.0084  0.2739 -0.2507
   36DOPE  C214 4582   4.993   0.725  11.003 -0.2782  0.4551  0.3150
   36DOPE  H14R 4583   5.039   0.633  10.961 -0.9390  0.0102  0.5579
   36DOPE  H14S 4584   4.882   0.731  11.001 -0.2165  2.2901 -0.1383
   36DOPE  C215 4585   5.067   0.749  11.138  0.0126 -1.0323 -0.2439
   36DOPE  H15R 4586   5.033   0.848  11.176 -1.4486 -1.4251 -0.4730
   36DOPE  H15S 4587   5.178   0.742  11.130  0.1394  0.4249 -0.0932
   36DOPE  C216 4588   5.032   0.641  11.242 -0.5249 -0.6669  0.6650
   36DOPE  H16R 4589   5.061   0.538  11.211  0.7429  0.0862 -0.7774
   36DOPE  H16S 4590   4.922   0.636  11.255 -0.7296  0.5943 -0.4109
   36DOPE  C217 4591   5.115   0.657  11.373 -0.0483  0.4204  0.7615
   36DOPE  H17R 4592   5.076   0.746  11.428 -0.5099  0.5423  0.2449
   36DOPE  H17S 4593   5.219   0.666  11.336 -0.1210  0.6342  0.6095
   36DOPE  C218 4594   5.102   0.546  11.472 -0.0986  0.3958 -0.6038
   36DOPE  H18R 4595   5.156   0.565  11.567 -0.6131  1.0028 -0.4314
   36DOPE  H18S 4596   5.128   0.450  11.422  1.4630 -0.6874  2.0602
   36DOPE  H18T 4597   4.999   0.534  11.510  0.0375  0.6244 -0.1560
   36DOPE   C33 4598   4.644   0.345  10.341 -0.1903  0.2811 -0.2822
   36DOPE   H3X 4599   4.694   0.444  10.334  0.3025  0.1780  1.4972
   36DOPE   H3Y 4600   4.722   0.267  10.338 -1.1968 -0.9131  2.2907
   36DOPE   C34 4601   4.593   0.342  10.489  0.1276 -0.0727 -0.1496
   36DOPE   H4X 4602   4.521   0.426  10.497  0.4462  0.4843 -2.3986
   36DOPE   H4Y 4603   4.543   0.244  10.503 -0.3888  0.3837  1.4341
   36DOPE   C35 4604   4.711   0.350  10.592  0.2379 -0.6475  0.6223
   36DOPE   H5X 4605   4.776   0.438  10.571  0.2590 -0.9894 -0.8770
   36DOPE   H5Y 4606   4.773   0.259  10.581 -1.6908 -2.2258  2.0426
   36DOPE   C36 4607   4.672   0.372  10.736  0.2625 -0.1822  0.7448
   36DOPE   H6X 4608   4.574   0.329  10.765  0.9387 -1.6268  0.9865
   36DOPE   H6Y 4609   4.661   0.482  10.742  0.7311 -0.0231 -0.8409
   36DOPE   C37 4610   4.780   0.329  10.839 -0.1953 -0.0266 -0.5326
   36DOPE   H7X 4611   4.789   0.218  10.841  1.9556  0.1282  0.9857
   36DOPE   H7Y 4612   4.876   0.376  10.809  0.6595 -0.2204  1.7119
   36DOPE   C38 4613   4.736   0.377  10.974 -0.4919 -0.3625  0.3473
   36DOPE   H8X 4614   4.648   0.313  10.997  1.3329 -2.5900  1.4591
   36DOPE   H8Y 4615   4.712   0.484  10.953  0.2716 -0.5214 -1.4995
   36DOPE   C39 4616   4.849   0.362  11.071  0.7047 -0.5376  0.0565
   36DOPE   H9X 4617   4.943   0.406  11.033  1.7599 -3.7936 -1.4591
   36DOPE  C310 4618   4.846   0.293  11.190  0.4291  0.3849 -0.5523
   36DOPE  H10X 4619   4.934   0.289  11.257  0.0300 -0.2839 -0.0501
   36DOPE  C311 4620   4.727   0.214  11.246  0.3447  0.1962 -0.4881
   36DOPE  H11X 4621   4.635   0.270  11.273 -0.0041 -0.3197 -0.5871
   36DOPE  H11Y 4622   4.709   0.125  11.181 -1.8420 -0.0253  0.3345
   36DOPE  C312 4623   4.751   0.145  11.391 -0.0722 -0.3095 -0.0048
   36DOPE  H12X 4624   4.843   0.083  11.387  0.2751  0.2413 -1.2390
   36DOPE  H12Y 4625   4.670   0.072  11.412 -0.9332  0.6047 -0.0729
   36DOPE  C313 4626   4.763   0.252  11.503  0.4759  0.1062 -0.1516
   36DOPE  H13X 4627   4.825   0.341  11.480  0.3359  0.6969  1.6501
   36DOPE  H13Y 4628   4.662   0.297  11.505  1.1150  1.6044  1.6495
   36DOPE  C314 4629   4.793   0.184  11.632 -0.7414 -0.5183 -0.4770
   36DOPE  H14X 4630   4.793   0.267  11.705 -2.8109 -1.0562  0.1980
   36DOPE  H14Y 4631   4.889   0.127  11.634  0.4616  1.0820  5.0578
   36DOPE  C315 4632   4.683   0.091  11.687  0.6556 -0.1047  0.5049
   36DOPE  H15X 4633   4.681  -0.007  11.634 -0.0180  0.0233  0.2876
   36DOPE  H15Y 4634   4.587   0.144  11.674  0.5490 -0.6022 -0.8646
   36DOPE  C316 4635   4.699   0.055  11.834  0.1919  0.3112 -0.4109
   36DOPE  H16X 4636   4.598   0.036  11.875  0.9603  1.2738  2.1686
   36DOPE  H16Y 4637   4.722   0.150  11.886 -1.7779  1.0575 -0.8232
   36DOPE  C317 4638   4.792  -0.059  11.882 -0.0977  0.5398 -0.1361
   36DOPE  H17X 4639   4.893  -0.026  11.851  0.7344 -2.5975 -1.1387
   36DOPE  H17Y 4640   4.811  -0.059  11.992  2.0667  1.0053 -0.4731
   36DOPE  C318 4641   4.760  -0.197  11.827  0.0179  0.4721 -0.6737
   36DOPE  H18X 4642   4.825  -0.279  11.868  2.2733  1.9746 -1.0524
   36DOPE  H18Y 4643   4.654  -0.217  11.850  0.0551  1.1747  0.1543
   36DOPE  H18Z 4644   4.772  -0.203  11.717 -0.2401  0.6755 -0.7141
   37DOPE     N 4645   2.580   6.632   9.451 -0.4633 -0.4580 -0.5334
   37DOPE   HN1 4646   2.575   6.727   9.493  2.6436 -0.1208 -0.6980
   37DOPE   HN2 4647   2.656   6.578   9.497 -1.8298 -1.1118  1.0366
   37DOPE   HN3 4648   2.614   6.659   9.356  2.4057  1.0465  0.8053
   37DOPE   C12 4649   2.457   6.549   9.451 -0.5372  0.3459  0.0221
   37DOPE  H12A 4650   2.387   6.599   9.381  1.7785  2.3705 -0.9860
   37DOPE  H12B 4651   2.418   6.551   9.555  0.6000  0.0233  0.4720
   37DOPE   C11 4652   2.479   6.404   9.405  0.2737 -0.6171  0.8850
   37DOPE  H11A 4653   2.528   6.419   9.307  1.6315 -0.3585  1.5844
   37DOPE  H11B 4654   2.381   6.357   9.381 -0.0029  0.4993 -0.2601
   37DOPE     P 4655   2.540   6.208   9.565 -0.1649 -0.3324 -0.1896
   37DOPE   O13 4656   2.670   6.151   9.620 -0.0721 -0.8938  0.4598
   37DOPE   O14 4657   2.447   6.121   9.493  0.3116 -0.5681  0.2659
   37DOPE   O11 4658   2.456   6.266   9.682 -0.0772 -0.2115 -0.2847
   37DOPE   O12 4659   2.577   6.333   9.476  0.2939 -1.0119 -0.1503
   37DOPE    C1 4660   2.497   6.362   9.772  0.0734 -0.2296 -0.3125
   37DOPE    HA 4661   2.427   6.449   9.775  1.0495  0.6679 -1.8193
   37DOPE    HB 4662   2.594   6.411   9.748 -0.9507  0.8281 -2.6296
   37DOPE    C2 4663   2.492   6.303   9.907 -0.2743  0.4243  0.3229
   37DOPE    HS 4664   2.530   6.381   9.976  1.3192 -0.8645  0.9668
   37DOPE   O21 4665   2.583   6.193   9.914 -0.2780 -0.1963 -0.0243
   37DOPE   C21 4666   2.713   6.204   9.937  0.2706  0.3849 -0.0868
   37DOPE   O22 4667   2.767   6.310   9.968 -0.1672 -0.2499  0.0921
   37DOPE   C22 4668   2.791   6.075   9.901 -0.1904 -0.0004  0.1315
   37DOPE   H2R 4669   2.869   6.116   9.834 -0.4836 -0.7755 -0.7066
   37DOPE   H2S 4670   2.718   6.003   9.857  0.0617 -1.5514  2.0888
   37DOPE    C3 4671   2.353   6.264   9.953 -0.2845  0.0336  0.6327
   37DOPE    HX 4672   2.317   6.179   9.891  1.3775 -0.1826 -0.0766
   37DOPE    HY 4673   2.285   6.349   9.927  1.0145  0.6399 -0.9234
   37DOPE   O31 4674   2.354   6.237  10.095  0.4126  0.4627  0.2691
   37DOPE   C31 4675   2.379   6.106  10.129  0.0701  0.4077  0.0465
   37DOPE   O32 4676   2.373   6.012  10.050 -0.4024  0.1392  0.0445
   37DOPE   C32 4677   2.419   6.101  10.278  0.0266 -0.2950  0.5765
   37DOPE   H2X 4678   2.421   5.997  10.317 -1.9747 -0.0471  1.4353
   37DOPE   H2Y 4679   2.527   6.124  10.293  0.4148 -1.7285  0.1033
   37DOPE   C23 4680   2.859   6.011  10.028  0.4023  0.1177 -0.5083
   37DOPE   H3R 4681   2.956   6.064  10.039  0.1656  0.5253 -0.3489
   37DOPE   H3S 4682   2.880   5.905  10.003 -0.1301  0.0999 -0.8993
   37DOPE   C24 4683   2.772   6.006  10.152 -0.4809  0.1851 -0.1577
   37DOPE   H4R 4684   2.675   5.957  10.131  0.2946 -2.3802  1.7873
   37DOPE   H4S 4685   2.754   6.111  10.183 -0.0934  0.3038 -0.3326
   37DOPE   C25 4686   2.838   5.935  10.277  0.9690 -0.1923  0.9570
   37DOPE   H5R 4687   2.930   5.990  10.305 -0.2488  1.0891  2.7076
   37DOPE   H5S 4688   2.860   5.829  10.252  0.9535 -0.0454  0.3165
   37DOPE   C26 4689   2.736   5.932  10.397 -0.0187  0.0363 -0.9012
   37DOPE   H6R 4690   2.662   5.857  10.362 -0.6538  0.8776 -1.3721
   37DOPE   H6S 4691   2.690   6.032  10.407 -2.3966 -1.1397  0.6645
   37DOPE   C27 4692   2.810   5.895  10.526 -0.0395 -0.4648 -0.2588
   37DOPE   H7R 4693   2.896   5.964  10.534 -0.1019 -0.2157 -1.4874
   37DOPE   H7S 4694   2.840   5.788  10.518  0.1909 -0.5193  1.1503
   37DOPE   C28 4695   2.722   5.921  10.655 -0.0394 -0.2876 -0.1597
   37DOPE   H8R 4696   2.627   5.871  10.630 -1.1113  1.7562 -0.3491
   37DOPE   H8S 4697   2.700   6.029  10.662  3.9578  0.8253 -1.9162
   37DOPE   C29 4698   2.786   5.884  10.783 -0.3935  0.2072  0.4336
   37DOPE   H9R 4699   2.890   5.917  10.796 -0.0531  0.1854 -1.8698
   37DOPE  C210 4700   2.751   5.793  10.872  0.4422 -0.1132 -0.1765
   37DOPE  H10R 4701   2.820   5.788  10.958  2.0827 -1.2575 -1.5082
   37DOPE  C211 4702   2.631   5.701  10.880 -0.4474  0.4535  0.3376
   37DOPE  H11R 4703   2.672   5.598  10.885  1.4352  0.9410 -2.5104
   37DOPE  H11S 4704   2.574   5.703  10.785 -0.5895  0.6141  0.4252
   37DOPE  C212 4705   2.522   5.726  10.990 -0.5575 -0.4838  0.0075
   37DOPE  H12R 4706   2.460   5.634  10.991 -1.1853 -0.1163 -1.8313
   37DOPE  H12S 4707   2.459   5.814  10.964  1.4444  0.6861 -1.1613
   37DOPE  C213 4708   2.577   5.752  11.129 -0.2810  0.3632  0.3108
   37DOPE  H13R 4709   2.624   5.852  11.133  0.0761  0.1693  1.1668
   37DOPE  H13S 4710   2.660   5.678  11.129  0.3962  1.0691 -1.5655
   37DOPE  C214 4711   2.479   5.746  11.247 -0.0195  0.6026 -0.1889
   37DOPE  H14R 4712   2.470   5.646  11.296  0.6636  1.2916  1.3848
   37DOPE  H14S 4713   2.379   5.781  11.212 -0.2471  1.3507  1.1444
   37DOPE  C215 4714   2.514   5.853  11.356 -0.1345  0.1313 -0.3624
   37DOPE  H15R 4715   2.535   5.953  11.314  0.4017 -0.2250 -0.9598
   37DOPE  H15S 4716   2.597   5.822  11.423  0.1807 -0.1178 -0.8687
   37DOPE  C216 4717   2.391   5.874  11.448  0.1394  0.7659  0.1304
   37DOPE  H16R 4718   2.379   5.784  11.511  0.5955  1.1278  0.7503
   37DOPE  H16S 4719   2.301   5.882  11.383  0.9681 -1.9432 -1.4772
   37DOPE  C217 4720   2.388   5.997  11.539  0.3385  0.7269  0.5103
   37DOPE  H17R 4721   2.375   6.085  11.472 -2.4694 -0.1881 -0.3157
   37DOPE  H17S 4722   2.484   6.011  11.592  1.6307 -1.7071 -1.0286
   37DOPE  C218 4723   2.276   5.996  11.642 -0.2046 -0.6284 -0.1648
   37DOPE  H18R 4724   2.303   5.928  11.725 -0.0743  1.7433  1.8613
   37DOPE  H18S 4725   2.178   5.966  11.599  0.0324 -0.2860 -0.9558
   37DOPE  H18T 4726   2.260   6.099  11.682 -1.3978  0.1124 -2.3851
   37DOPE   C33 4727   2.342   6.194  10.375  0.2920  0.1643  0.1223
   37DOPE   H3X 4728   2.233   6.176  10.363  0.3365 -0.5847  0.7099
   37DOPE   H3Y 4729   2.361   6.299  10.346 -1.6939  0.8841  1.2488
   37DOPE   C34 4730   2.380   6.174  10.522 -1.2217 -0.1408 -0.4678
   37DOPE   H4X 4731   2.296   6.204  10.589 -0.0499  1.2039  0.4662
   37DOPE   H4Y 4732   2.396   6.068  10.552  1.1417  0.1736 -0.3735
   37DOPE   C35 4733   2.503   6.261  10.567 -0.3038 -0.4436 -0.7520
   37DOPE   H5X 4734   2.476   6.367  10.545 -3.6458 -0.9616  0.2894
   37DOPE   H5Y 4735   2.596   6.226  10.518 -0.3610 -1.5760 -0.0897
   37DOPE   C36 4736   2.521   6.268  10.725  0.8492  1.0985  0.8321
   37DOPE   H6X 4737   2.529   6.160  10.751  1.2135 -0.0300 -3.2680
   37DOPE   H6Y 4738   2.427   6.315  10.762  0.4137  0.2189  0.8637
   37DOPE   C37 4739   2.643   6.336  10.778 -0.8208  0.0360 -0.1684
   37DOPE   H7X 4740   2.741   6.300  10.739 -1.0036 -1.1610  0.4647
   37DOPE   H7Y 4741   2.641   6.442  10.745 -1.0986  0.6510  1.7391
   37DOPE   C38 4742   2.660   6.345  10.934  0.4358 -0.0104  0.1170
   37DOPE   H8X 4743   2.588   6.423  10.966 -0.5753 -1.2755  1.0093
   37DOPE   H8Y 4744   2.762   6.389  10.944 -0.3268  2.0726 -0.5985
   37DOPE   C39 4745   2.654   6.213  11.016  0.4160 -0.6571  0.2882
   37DOPE   H9X 4746   2.682   6.120  10.965 -1.7941 -2.1222  1.5903
   37DOPE  C310 4747   2.600   6.208  11.130 -0.3253 -0.3734 -0.1935
   37DOPE  H10X 4748   2.589   6.117  11.190  0.9135  0.3806  1.2487
   37DOPE  C311 4749   2.577   6.336  11.220  0.0824  0.9543 -0.1339
   37DOPE  H11X 4750   2.655   6.415  11.206  1.9250 -0.8054 -0.2890
   37DOPE  H11Y 4751   2.474   6.374  11.200 -0.4671 -0.4051  0.0388
   37DOPE  C312 4752   2.585   6.297  11.365 -0.0887  0.1509  0.4724
   37DOPE  H12X 4753   2.682   6.247  11.387 -0.5241 -0.4133  1.1978
   37DOPE  H12Y 4754   2.511   6.222  11.400  1.0109 -1.5413 -0.6760
   37DOPE  C313 4755   2.559   6.418  11.447 -0.0595  0.0411 -0.3385
   37DOPE  H13X 4756   2.628   6.495  11.406  0.4821 -1.1200 -1.7228
   37DOPE  H13Y 4757   2.457   6.459  11.431  0.8702  1.6696 -2.7799
   37DOPE  C314 4758   2.583   6.397  11.602 -0.4554  0.0297  0.4286
   37DOPE  H14X 4759   2.643   6.483  11.639 -0.3744  1.1666 -2.1583
   37DOPE  H14Y 4760   2.661   6.319  11.617 -0.7607 -0.3330  0.1368
   37DOPE  C315 4761   2.461   6.371  11.687  0.7379 -0.6254  0.3547
   37DOPE  H15X 4762   2.416   6.280  11.641  1.1159  0.2372 -1.8702
   37DOPE  H15Y 4763   2.387   6.453  11.676  0.1056 -1.1485  0.6290
   37DOPE  C316 4764   2.489   6.336  11.830 -0.0496 -0.2302  0.5510
   37DOPE  H16X 4765   2.519   6.429  11.884 -2.0992  0.6674  0.2390
   37DOPE  H16Y 4766   2.581   6.275  11.827  0.2590  0.0944  2.3320
   37DOPE  C317 4767   2.378   6.265  11.907  0.8083  0.2233  0.3957
   37DOPE  H17X 4768   2.285   6.326  11.906 -0.5019 -1.6441 -1.9148
   37DOPE  H17Y 4769   2.352   6.167  11.862  0.7841  0.6284 -0.4851
   37DOPE  C318 4770   2.406   6.238  12.056  0.5520 -0.3980 -0.2383
   37DOPE  H18X 4771   2.477   6.153  12.058  0.1150 -0.9297 -3.1806
   37DOPE  H18Y 4772   2.445   6.328  12.108 -1.1162  0.2817 -0.1075
   37DOPE  H18Z 4773   2.310   6.200  12.098  0.8167 -2.2959 -1.2261
   38DOPE     N 4774   3.739   1.230   9.495  0.3212 -0.4773 -0.1777
   38DOPE   HN1 4775   3.743   1.127   9.504 -0.4186 -0.4297  0.9431
   38DOPE   HN2 4776   3.677   1.275   9.565 -0.1503  0.1754 -0.9943
   38DOPE   HN3 4777   3.696   1.257   9.405 -1.5876  0.9750  1.0833
   38DOPE   C12 4778   3.875   1.273   9.508 -0.5452  0.0288 -0.4614
   38DOPE  H12A 4779   3.874   1.372   9.457 -2.3146  1.1409  1.5647
   38DOPE  H12B 4780   3.950   1.202   9.467 -0.7160 -0.2927 -0.2243
   38DOPE   C11 4781   3.913   1.286   9.651 -0.1839 -0.1707 -0.5365
   38DOPE  H11A 4782   3.854   1.373   9.688 -1.4975 -1.2647  0.0453
   38DOPE  H11B 4783   4.020   1.310   9.666 -0.0142 -1.8661  1.2988
   38DOPE     P 4784   3.991   1.073   9.775  0.4314  0.1030  0.6015
   38DOPE   O13 4785   4.081   1.129   9.880 -0.3290  0.5215 -0.6237
   38DOPE   O14 4786   4.049   1.012   9.656  0.1594  0.4340 -0.0591
   38DOPE   O11 4787   3.907   0.964   9.844 -0.0042 -0.2164 -0.0515
   38DOPE   O12 4788   3.877   1.176   9.732  0.2723  0.6955 -0.0380
   38DOPE    C1 4789   3.765   0.966   9.872 -0.2842 -0.0560  0.1940
   38DOPE    HA 4790   3.731   0.861   9.878  2.2323 -0.8722  1.9583
   38DOPE    HB 4791   3.714   1.025   9.794 -0.3980  0.3028  0.5361
   38DOPE    C2 4792   3.727   1.022  10.011 -0.6499  0.3785 -1.1902
   38DOPE    HS 4793   3.751   1.131  10.015  1.0248  0.0121  1.9305
   38DOPE   O21 4794   3.808   0.943  10.100  0.0173  0.5380 -0.2909
   38DOPE   C21 4795   3.893   1.004  10.176 -0.4270 -0.9268 -0.2059
   38DOPE   O22 4796   3.903   1.124  10.183  0.1736 -0.5970 -0.5103
   38DOPE   C22 4797   3.970   0.907  10.263  0.2770 -0.5338  0.4113
   38DOPE   H2R 4798   4.038   0.963  10.331  1.1016  0.1136 -0.9003
   38DOPE   H2S 4799   4.026   0.844  10.191 -2.4940 -0.1497 -2.2916
   38DOPE    C3 4800   3.573   1.013  10.047  0.4972 -0.8319  0.9066
   38DOPE    HX 4801   3.549   0.905  10.038 -0.7543 -0.4137 -3.8195
   38DOPE    HY 4802   3.517   1.059   9.963  0.2002 -2.8344 -0.0284
   38DOPE   O31 4803   3.537   1.081  10.174  0.5554  0.1285  0.4360
   38DOPE   C31 4804   3.527   1.207  10.165 -0.8946 -1.1236  0.1409
   38DOPE   O32 4805   3.548   1.279  10.070  0.2434 -0.4182  0.0596
   38DOPE   C32 4806   3.511   1.273  10.307  0.0095 -0.4041  0.0593
   38DOPE   H2X 4807   3.549   1.376  10.294 -0.1195 -0.0614  2.0636
   38DOPE   H2Y 4808   3.401   1.276  10.322 -0.2588 -0.7921 -1.5937
   38DOPE   C23 4809   3.874   0.809  10.346  0.1188 -0.9975 -0.5233
   38DOPE   H3R 4810   3.920   0.709  10.360 -1.4181 -1.6396  0.2312
   38DOPE   H3S 4811   3.779   0.792  10.291  0.1629 -0.0489 -0.9110
   38DOPE   C24 4812   3.845   0.859  10.487  0.9891  0.5565  0.3216
   38DOPE   H4R 4813   3.747   0.819  10.519  1.2125 -0.1280  0.1590
   38DOPE   H4S 4814   3.841   0.970  10.488 -1.7348  0.5320  2.2729
   38DOPE   C25 4815   3.941   0.813  10.596 -0.1562 -0.1278  0.4815
   38DOPE   H5R 4816   4.045   0.827  10.560 -0.2394  0.9025  0.6233
   38DOPE   H5S 4817   3.926   0.704  10.613  0.8781 -0.6475 -1.5907
   38DOPE   C26 4818   3.939   0.898  10.726 -0.2577  0.0952 -0.8917
   38DOPE   H6R 4819   3.838   0.894  10.774 -0.5229  1.8614 -1.2469
   38DOPE   H6S 4820   3.960   1.002  10.692  0.4175  1.5182  3.2702
   38DOPE   C27 4821   4.049   0.863  10.821 -0.3390 -0.2685 -0.4541
   38DOPE   H7R 4822   4.142   0.878  10.761  0.2646 -0.1520  0.4914
   38DOPE   H7S 4823   4.057   0.758  10.855  0.4747 -0.1525 -0.2570
   38DOPE   C28 4824   4.069   0.941  10.952  0.3922 -0.7671 -0.4116
   38DOPE   H8R 4825   4.077   1.046  10.916  0.1897 -1.4728 -2.6900
   38DOPE   H8S 4826   4.163   0.921  11.007  0.5387 -0.7145 -0.6400
   38DOPE   C29 4827   3.947   0.934  11.042 -0.2618 -0.1490 -0.5154
   38DOPE   H9R 4828   3.862   0.990  11.002 -1.5891 -2.6901 -1.4475
   38DOPE  C210 4829   3.928   0.864  11.155  0.0332  0.3294  0.2688
   38DOPE  H10R 4830   3.831   0.860  11.207  0.2335 -0.2523  0.6122
   38DOPE  C211 4831   4.033   0.787  11.238 -0.1598 -0.0826 -0.0968
   38DOPE  H11R 4832   4.130   0.780  11.184 -0.1448  0.6478 -0.1812
   38DOPE  H11S 4833   4.003   0.690  11.283 -0.0264  1.0906  2.7079
   38DOPE  C212 4834   4.066   0.866  11.366  0.9768 -0.5422 -1.1562
   38DOPE  H12R 4835   3.971   0.875  11.422  0.7969 -2.6941 -1.0354
   38DOPE  H12S 4836   4.110   0.963  11.334  1.7398 -0.2585  0.6188
   38DOPE  C213 4837   4.170   0.793  11.460  0.3086  0.1885 -0.2782
   38DOPE  H13R 4838   4.269   0.796  11.408  0.7033 -0.6195  0.4092
   38DOPE  H13S 4839   4.143   0.686  11.454 -0.1350  0.3137 -0.5293
   38DOPE  C214 4840   4.162   0.848  11.602 -0.1685 -0.0855 -0.1257
   38DOPE  H14R 4841   4.073   0.913  11.612  0.5416  1.6166 -3.4101
   38DOPE  H14S 4842   4.247   0.919  11.608 -0.2101 -0.0318 -0.1757
   38DOPE  C215 4843   4.160   0.732  11.713 -0.3083 -0.6145 -0.5799
   38DOPE  H15R 4844   4.265   0.700  11.727 -1.1909 -2.7561  1.9931
   38DOPE  H15S 4845   4.101   0.644  11.679  0.7603 -1.5456 -0.1023
   38DOPE  C216 4846   4.112   0.786  11.848 -1.0668  0.3902 -0.0056
   38DOPE  H16R 4847   4.002   0.798  11.840 -1.1489  0.1653  0.7534
   38DOPE  H16S 4848   4.160   0.883  11.871  1.0548 -0.4197 -0.7352
   38DOPE  C217 4849   4.152   0.682  11.961 -0.2491 -0.4969  0.3858
   38DOPE  H17R 4850   4.262   0.670  11.965 -0.1524 -1.3747 -2.4240
   38DOPE  H17S 4851   4.121   0.579  11.933 -1.1470 -0.5636  1.5602
   38DOPE  C218 4852   4.099   0.713  12.100 -0.6201 -0.5166  0.7124
   38DOPE  H18R 4853   3.988   0.710  12.104 -0.6710 -0.2035 -0.2434
   38DOPE  H18S 4854   4.138   0.809  12.142 -0.6786 -0.7807  1.3856
   38DOPE  H18T 4855   4.138   0.640  12.174  1.3348  0.2520  0.5172
   38DOPE   C33 4856   3.580   1.192  10.407 -0.0087  0.2414 -0.0295
   38DOPE   H3X 4857   3.689   1.196  10.388  0.4054  1.9900  2.3697
   38DOPE   H3Y 4858   3.562   1.082  10.405  2.2017 -0.1501 -0.8117
   38DOPE   C34 4859   3.533   1.231  10.545  0.1765 -0.2815 -0.0866
   38DOPE   H4X 4860   3.552   1.339  10.564  0.5616 -0.2936 -0.4003
   38DOPE   H4Y 4861   3.423   1.221  10.561  0.5722 -2.7508  1.6618
   38DOPE   C35 4862   3.595   1.145  10.652  0.2422 -0.1007 -0.1300
   38DOPE   H5X 4863   3.705   1.136  10.639  0.3679 -1.3989  1.5199
   38DOPE   H5Y 4864   3.542   1.049  10.636 -0.2009 -0.2474  1.9444
   38DOPE   C36 4865   3.566   1.201  10.792 -0.0528  0.1971  0.3008
   38DOPE   H6X 4866   3.457   1.214  10.809 -0.1388 -0.3775  0.2248
   38DOPE   H6Y 4867   3.606   1.304  10.797  0.2073  0.2371 -1.6851
   38DOPE   C37 4868   3.635   1.104  10.880 -1.2185 -0.3802 -0.2158
   38DOPE   H7X 4869   3.601   0.999  10.867 -1.2131 -0.0531 -3.6339
   38DOPE   H7Y 4870   3.744   1.107  10.857 -0.8599 -2.0578  1.0152
   38DOPE   C38 4871   3.622   1.144  11.037  0.9300 -0.3213 -0.1772
   38DOPE   H8X 4872   3.638   1.252  11.054 -0.7888  0.2075 -1.5680
   38DOPE   H8Y 4873   3.704   1.102  11.099  0.5347  0.4699  0.9184
   38DOPE   C39 4874   3.484   1.100  11.091 -0.5431 -0.2290  0.0760
   38DOPE   H9X 4875   3.405   1.095  11.015 -1.8468  3.6234  0.9391
   38DOPE  C310 4876   3.452   1.085  11.220 -0.5991 -0.2925 -0.1949
   38DOPE  H10X 4877   3.346   1.073  11.249 -0.1061 -1.1285  1.3435
   38DOPE  C311 4878   3.546   1.112  11.336 -0.0454  0.0191 -0.3565
   38DOPE  H11X 4879   3.545   1.022  11.401  0.9379  0.6487  0.5762
   38DOPE  H11Y 4880   3.650   1.121  11.298  0.2832 -1.6030  0.0606
   38DOPE  C312 4881   3.496   1.226  11.411  0.3637 -1.4715  0.0480
   38DOPE  H12X 4882   3.394   1.202  11.448 -0.4604  3.8432  2.0148
   38DOPE  H12Y 4883   3.492   1.313  11.343 -0.7054 -0.9023  0.8141
   38DOPE  C313 4884   3.572   1.267  11.537 -0.2868  0.4636 -0.3249
   38DOPE  H13X 4885   3.631   1.179  11.570 -1.4666 -0.5328 -0.8158
   38DOPE  H13Y 4886   3.646   1.349  11.524 -0.0671  0.4995  1.0527
   38DOPE  C314 4887   3.484   1.302  11.652 -0.1800 -0.0306 -0.9114
   38DOPE  H14X 4888   3.436   1.209  11.689  0.4768  0.5405  1.5491
   38DOPE  H14Y 4889   3.409   1.367  11.602  1.6395  1.3217 -2.0018
   38DOPE  C315 4890   3.548   1.374  11.771 -0.0733 -0.3624  0.8585
   38DOPE  H15X 4891   3.476   1.443  11.819  0.2126  0.7720 -0.2823
   38DOPE  H15Y 4892   3.630   1.442  11.738 -0.0480 -0.8663 -0.1421
   38DOPE  C316 4893   3.610   1.292  11.888  0.4380  0.2140 -0.5120
   38DOPE  H16X 4894   3.691   1.231  11.842  0.2942 -0.3489 -0.0216
   38DOPE  H16Y 4895   3.520   1.233  11.915 -1.6010  1.6986 -3.3900
   38DOPE  C317 4896   3.664   1.361  12.012  0.5384  0.4832 -0.0816
   38DOPE  H17X 4897   3.585   1.431  12.046 -0.3487 -1.1809  1.4498
   38DOPE  H17Y 4898   3.682   1.305  12.106 -0.0712 -0.0881 -0.2945
   38DOPE  C318 4899   3.789   1.449  11.981  0.5323 -0.7418 -0.3013
   38DOPE  H18X 4900   3.885   1.394  11.989  0.3138 -1.5321 -2.5391
   38DOPE  H18Y 4901   3.797   1.493  11.879 -0.2217 -1.7895 -0.8249
   38DOPE  H18Z 4902   3.789   1.538  12.049  1.2317  0.6074 -1.9961
   39DOPE     N 4903   1.669   0.670   9.686  0.7613 -0.0951 -0.0824
   39DOPE   HN1 4904   1.624   0.580   9.713  0.3440 -0.0452 -0.6000
   39DOPE   HN2 4905   1.717   0.649   9.596 -1.9035  1.8833 -2.1344
   39DOPE   HN3 4906   1.730   0.685   9.769 -1.0379 -2.0581  1.7116
   39DOPE   C12 4907   1.561   0.764   9.673  0.0581 -0.5512 -0.2339
   39DOPE  H12A 4908   1.479   0.712   9.616 -0.7530 -0.9664  1.2616
   39DOPE  H12B 4909   1.587   0.856   9.617 -2.0234  0.9290  1.0702
   39DOPE   C11 4910   1.502   0.813   9.813 -0.1421  0.0634  0.7785
   39DOPE  H11A 4911   1.584   0.846   9.880  1.5737  2.4152 -2.2222
   39DOPE  H11B 4912   1.470   0.716   9.857  1.3370 -0.3047  1.1030
   39DOPE     P 4913   1.389   1.056   9.806 -0.2130  0.1463 -0.2343
   39DOPE   O13 4914   1.246   1.099   9.794  0.4585  0.4384  0.2951
   39DOPE   O14 4915   1.483   1.108   9.708  0.3185  0.0141  0.5254
   39DOPE   O11 4916   1.440   1.093   9.954  0.3316  0.3823  0.2679
   39DOPE   O12 4917   1.391   0.898   9.809 -0.0649 -0.6579  0.3032
   39DOPE    C1 4918   1.347   1.115  10.056 -0.5355  0.4427  0.3685
   39DOPE    HA 4919   1.267   1.191  10.040 -1.2723 -0.2242  0.8166
   39DOPE    HB 4920   1.406   1.158  10.139  0.7971  0.5097 -0.5777
   39DOPE    C2 4921   1.270   0.987  10.105 -0.2560 -0.0340 -0.1930
   39DOPE    HS 4922   1.210   0.946  10.020 -1.2405 -2.8851  1.7207
   39DOPE   O21 4923   1.191   1.017  10.223  1.0014  0.6010  0.4497
   39DOPE   C21 4924   1.074   1.062  10.202 -0.2969  0.4854 -0.0509
   39DOPE   O22 4925   1.014   1.084  10.098  0.2431  0.1350 -0.0211
   39DOPE   C22 4926   1.031   1.115  10.342  0.0198  0.6972  0.1450
   39DOPE   H2R 4927   1.078   1.213  10.364 -0.2556  0.7340  0.5875
   39DOPE   H2S 4928   1.090   1.060  10.419  1.4261  1.4051 -0.3998
   39DOPE    C3 4929   1.368   0.877  10.139 -0.1955 -0.1699 -0.5374
   39DOPE    HX 4930   1.438   0.851  10.056  0.3536 -0.3926 -0.0116
   39DOPE    HY 4931   1.310   0.784  10.159 -1.9240  0.9436 -0.1823
   39DOPE   O31 4932   1.459   0.917  10.251 -0.3470 -0.0684 -0.4811
   39DOPE   C31 4933   1.417   0.888  10.376 -0.5004  0.9691  0.4967
   39DOPE   O32 4934   1.316   0.825  10.406 -0.7934 -0.4202 -0.5927
   39DOPE   C32 4935   1.509   0.958  10.477 -0.0408 -0.4499 -0.5061
   39DOPE   H2X 4936   1.611   0.951  10.433 -0.6891 -0.8537 -1.9993
   39DOPE   H2Y 4937   1.478   1.065  10.477  1.8831  0.1502 -0.3324
   39DOPE   C23 4938   0.875   1.127  10.350 -0.0270  0.0007  0.4719
   39DOPE   H3R 4939   0.831   1.027  10.329  1.8735 -0.7763  0.0239
   39DOPE   H3S 4940   0.838   1.194  10.269  1.6596 -0.1053 -0.4264
   39DOPE   C24 4941   0.813   1.160  10.482  0.5497 -0.2245  0.2801
   39DOPE   H4R 4942   0.865   1.252  10.517 -0.2324 -0.0431  1.0161
   39DOPE   H4S 4943   0.832   1.081  10.558  2.8055  0.6459  0.6882
   39DOPE   C25 4944   0.661   1.187  10.471  0.2149 -0.6008  0.0204
   39DOPE   H5R 4945   0.603   1.104  10.427 -0.2893  0.0218 -0.5061
   39DOPE   H5S 4946   0.657   1.275  10.402  2.1979 -2.2399 -2.3563
   39DOPE   C26 4947   0.588   1.236  10.603  0.3546  0.0176  0.1394
   39DOPE   H6R 4948   0.481   1.247  10.572  0.3928 -3.3567 -1.5410
   39DOPE   H6S 4949   0.636   1.334  10.623 -0.8432  0.3064  1.9084
   39DOPE   C27 4950   0.605   1.137  10.720  0.6737 -0.5591 -0.4146
   39DOPE   H7R 4951   0.713   1.113  10.720  0.2100 -3.0707 -1.9543
   39DOPE   H7S 4952   0.547   1.044  10.699 -0.5478 -0.0467  0.5731
   39DOPE   C28 4953   0.557   1.193  10.850 -0.3105  0.5458 -0.0041
   39DOPE   H8R 4954   0.557   1.115  10.930 -0.3395  1.0284  0.4787
   39DOPE   H8S 4955   0.449   1.213  10.842 -0.4696 -0.5345 -0.6672
   39DOPE   C29 4956   0.633   1.317  10.895 -0.4846 -0.2187  1.3416
   39DOPE   H9R 4957   0.740   1.313  10.869 -0.3110 -1.9888  2.1210
   39DOPE  C210 4958   0.581   1.428  10.941 -0.5988  0.2101  0.4004
   39DOPE  H10R 4959   0.648   1.511  10.966 -0.4767  0.1994  0.1161
   39DOPE  C211 4960   0.438   1.459  10.983 -0.3170 -0.7695 -0.8751
   39DOPE  H11R 4961   0.364   1.378  10.964  2.1672 -3.0865 -1.3391
   39DOPE  H11S 4962   0.404   1.543  10.919 -1.3109 -0.7926 -0.4024
   39DOPE  C212 4963   0.428   1.505  11.137 -0.3708  1.1302  0.1213
   39DOPE  H12R 4964   0.329   1.551  11.158 -0.8297  0.4709 -0.5077
   39DOPE  H12S 4965   0.502   1.586  11.153  0.0337  0.5932  1.0621
   39DOPE  C213 4966   0.445   1.402  11.242  0.2659  0.0054 -0.2327
   39DOPE  H13R 4967   0.395   1.306  11.215  2.4130 -0.9456 -1.0672
   39DOPE  H13S 4968   0.392   1.445  11.329  1.2652 -1.9689  1.4536
   39DOPE  C214 4969   0.592   1.380  11.293 -0.7474 -0.0008  0.1416
   39DOPE  H14R 4970   0.645   1.478  11.295 -0.1974 -0.2749  3.0768
   39DOPE  H14S 4971   0.638   1.317  11.213  0.5049 -1.1082  1.6649
   39DOPE  C215 4972   0.590   1.309  11.421  0.5744 -0.2133  0.3903
   39DOPE  H15R 4973   0.543   1.209  11.405  0.6789 -0.3138  0.7081
   39DOPE  H15S 4974   0.530   1.363  11.497 -0.4503 -1.3004  0.3788
   39DOPE  C216 4975   0.726   1.290  11.476 -0.5766 -0.4711 -0.6663
   39DOPE  H16R 4976   0.787   1.217  11.418  1.3279  0.1475  0.4487
   39DOPE  H16S 4977   0.721   1.247  11.578 -2.8739 -1.9265 -1.3307
   39DOPE  C217 4978   0.807   1.418  11.486  0.7152  0.2935 -0.2148
   39DOPE  H17R 4979   0.738   1.486  11.539  0.4619  2.7802 -3.4683
   39DOPE  H17S 4980   0.826   1.465  11.388 -0.1983  0.1978 -0.4400
   39DOPE  C218 4981   0.939   1.406  11.566  0.1920  0.4045 -0.4961
   39DOPE  H18R 4982   1.011   1.332  11.526  0.5207 -1.0911  2.5743
   39DOPE  H18S 4983   0.916   1.359  11.664  0.7522  0.3401 -0.3958
   39DOPE  H18T 4984   0.975   1.510  11.580 -2.7276  1.3919  0.4041
   39DOPE   C33 4985   1.514   0.874  10.602  0.2976  0.0152 -0.6574
   39DOPE   H3X 4986   1.533   0.770  10.570 -0.5757 -0.2256 -0.3976
   39DOPE   H3Y 4987   1.415   0.881  10.652 -0.1021 -0.7426 -1.3266
   39DOPE   C34 4988   1.630   0.916  10.688  0.2076 -0.5062 -0.3324
   39DOPE   H4X 4989   1.637   1.026  10.698  1.2917 -0.5399 -0.5843
   39DOPE   H4Y 4990   1.609   0.871  10.787 -1.1729 -0.1006 -0.4274
   39DOPE   C35 4991   1.768   0.867  10.655 -0.2555  0.9596 -0.0043
   39DOPE   H5X 4992   1.842   0.915  10.724  0.9010  0.1970 -0.6771
   39DOPE   H5Y 4993   1.794   0.873  10.547  0.4016 -0.7458  0.0302
   39DOPE   C36 4994   1.788   0.722  10.700 -0.0564 -0.2330 -0.4070
   39DOPE   H6X 4995   1.743   0.647  10.631 -2.0159  0.2297  0.2845
   39DOPE   H6Y 4996   1.738   0.704  10.797 -0.9875 -0.8144 -0.9699
   39DOPE   C37 4997   1.936   0.685  10.739 -0.7384  0.4367 -0.5089
   39DOPE   H7X 4998   2.002   0.686  10.650 -0.3989  0.6685 -0.2578
   39DOPE   H7Y 4999   1.983   0.761  10.805 -0.4688 -2.2798  2.6442
   39DOPE   C38 5000   1.949   0.553  10.809  0.2503 -0.4704  0.0854
   39DOPE   H8X 5001   1.877   0.483  10.761 -1.9612  2.0379 -0.5264
   39DOPE   H8Y 5002   1.908   0.570  10.911  2.0431  0.4170  0.7008
   39DOPE   C39 5003   2.087   0.491  10.804  1.5661 -0.2035  1.2073
   39DOPE   H9X 5004   2.143   0.534  10.720 -1.8819  2.8143  0.2251
   39DOPE  C310 5005   2.131   0.408  10.894 -0.4669 -0.0332 -0.5554
   39DOPE  H10X 5006   2.238   0.380  10.899 -0.9681 -1.8387  2.6665
   39DOPE  C311 5007   2.049   0.351  11.011  0.0495 -0.3937  0.0223
   39DOPE  H11X 5008   1.939   0.349  10.996  0.2537 -0.8662 -1.6545
   39DOPE  H11Y 5009   2.071   0.243  11.024 -1.0172 -0.6471 -0.1686
   39DOPE  C312 5010   2.081   0.432  11.137 -0.0760  0.3288  0.0049
   39DOPE  H12X 5011   2.035   0.533  11.140 -2.5861 -0.7359  0.8909
   39DOPE  H12Y 5012   2.189   0.451  11.152 -0.7685  3.2423  2.1591
   39DOPE  C313 5013   2.023   0.356  11.262  0.1047 -0.5744  0.3233
   39DOPE  H13X 5014   1.913   0.346  11.259  0.1753 -2.0474  1.5818
   39DOPE  H13Y 5015   2.055   0.250  11.270  0.8590 -0.4119 -0.3266
   39DOPE  C314 5016   2.076   0.437  11.387 -0.1234 -0.1601  0.3118
   39DOPE  H14X 5017   2.030   0.538  11.379 -0.5966 -0.4065 -0.1519
   39DOPE  H14Y 5018   2.184   0.453  11.366 -0.1963  1.6433  1.0988
   39DOPE  C315 5019   2.042   0.367  11.522  0.0800  0.4127 -0.1931
   39DOPE  H15X 5020   2.089   0.437  11.594  1.6900  0.4706 -1.2604
   39DOPE  H15Y 5021   2.088   0.266  11.532  0.6174  0.6358 -0.3712
   39DOPE  C316 5022   1.895   0.335  11.539  0.7627 -0.4932 -0.1177
   39DOPE  H16X 5023   1.900   0.295  11.643  1.9213  1.6535  0.7434
   39DOPE  H16Y 5024   1.864   0.257  11.467 -1.3189 -0.5066  0.7241
   39DOPE  C317 5025   1.802   0.454  11.531  0.0184 -0.6569 -0.0650
   39DOPE  H17X 5026   1.810   0.493  11.427  0.8288 -1.3986 -0.2930
   39DOPE  H17Y 5027   1.698   0.415  11.540 -1.1641  2.0890 -0.5432
   39DOPE  C318 5028   1.827   0.564  11.642  0.0380  0.2106  0.4482
   39DOPE  H18X 5029   1.934   0.584  11.666 -0.7105  3.3525  1.5995
   39DOPE  H18Y 5030   1.775   0.655  11.607  0.0844  0.0324 -0.0982
   39DOPE  H18Z 5031   1.792   0.518  11.737  1.6918 -0.1918  0.8910
   40DOPE     N 5032   1.721   1.200   9.650 -0.7848  0.3915 -1.4654
   40DOPE   HN1 5033   1.771   1.122   9.603 -0.0227 -0.3528  0.4760
   40DOPE   HN2 5034   1.620   1.175   9.658 -0.4210 -0.5483  2.0324
   40DOPE   HN3 5035   1.734   1.285   9.591 -2.1319  0.5544 -1.5490
   40DOPE   C12 5036   1.759   1.219   9.795  0.6340 -0.0313 -0.6439
   40DOPE  H12A 5037   1.728   1.131   9.855  2.4153 -1.8033 -2.1594
   40DOPE  H12B 5038   1.694   1.301   9.831  1.6299  0.4516  0.1141
   40DOPE   C11 5039   1.904   1.256   9.810  0.4567  0.7029  0.2566
   40DOPE  H11A 5040   1.957   1.163   9.780  0.2223  0.9146 -0.8297
   40DOPE  H11B 5041   1.923   1.267   9.919  0.7988 -1.0628  0.4017
   40DOPE     P 5042   1.947   1.509   9.814 -0.2216 -0.3060 -0.0381
   40DOPE   O13 5043   1.818   1.554   9.876  0.4407  0.3681 -0.2274
   40DOPE   O14 5044   2.008   1.613   9.731 -0.5395  0.2143  0.3648
   40DOPE   O11 5045   2.054   1.481   9.935  0.7161 -0.4045  0.2965
   40DOPE   O12 5046   1.931   1.372   9.730  0.0910  0.4610 -0.2718
   40DOPE    C1 5047   2.182   1.436   9.902 -0.2383 -0.1094  0.1050
   40DOPE    HA 5048   2.224   1.487   9.812 -0.2525  0.0641  0.1972
   40DOPE    HB 5049   2.179   1.327   9.884  1.0125 -0.8954  3.8903
   40DOPE    C2 5050   2.279   1.480  10.011  0.0279  0.1697 -0.1028
   40DOPE    HS 5051   2.382   1.455   9.977  0.0263 -1.9755  1.2679
   40DOPE   O21 5052   2.263   1.397  10.129  0.3420 -0.6323  0.3890
   40DOPE   C21 5053   2.291   1.270  10.122  0.5454 -0.7443 -0.4205
   40DOPE   O22 5054   2.349   1.212  10.029 -0.4943 -0.4430 -0.4801
   40DOPE   C22 5055   2.239   1.208  10.245  0.8648  0.0669  0.3050
   40DOPE   H2R 5056   2.128   1.197  10.243  0.9058 -0.2501 -0.8022
   40DOPE   H2S 5057   2.252   1.272  10.335 -3.9307 -0.0277  1.3492
   40DOPE    C3 5058   2.277   1.627  10.056 -0.4398 -1.3025 -0.1796
   40DOPE    HX 5059   2.171   1.655  10.074 -0.4940 -1.1214 -0.7613
   40DOPE    HY 5060   2.314   1.690   9.973 -2.0053 -2.0789 -1.5256
   40DOPE   O31 5061   2.372   1.641  10.167 -0.5231  0.1157 -0.1637
   40DOPE   C31 5062   2.327   1.710  10.275  0.1915 -0.4605  0.3341
   40DOPE   O32 5063   2.220   1.768  10.276  0.2028  0.3361 -0.0623
   40DOPE   C32 5064   2.443   1.726  10.381  0.3520  0.3904 -0.2459
   40DOPE   H2X 5065   2.394   1.670  10.463 -2.2821  1.6961 -0.8223
   40DOPE   H2Y 5066   2.537   1.675  10.350  0.2514  0.1338 -0.1258
   40DOPE   C23 5067   2.285   1.055  10.274  0.4640 -0.7552  0.3244
   40DOPE   H3R 5068   2.391   1.071  10.305  0.2523 -0.5423  0.9697
   40DOPE   H3S 5069   2.282   0.998  10.179  2.7488 -1.8556  0.8263
   40DOPE   C24 5070   2.192   0.977  10.368 -0.3413  0.2327  0.8034
   40DOPE   H4R 5071   2.204   0.871  10.338  1.1906  0.6795 -0.3009
   40DOPE   H4S 5072   2.089   0.999  10.334  0.4367  2.6992 -0.1759
   40DOPE   C25 5073   2.225   0.992  10.514 -0.4817 -0.1333 -0.7298
   40DOPE   H5R 5074   2.335   0.995  10.528 -0.3405 -0.1337 -1.7451
   40DOPE   H5S 5075   2.198   0.904  10.576  4.1564 -1.0377  0.4034
   40DOPE   C26 5076   2.164   1.122  10.566 -0.3436 -0.0553 -0.6186
   40DOPE   H6R 5077   2.079   1.155  10.501 -1.4064 -0.6203  0.4446
   40DOPE   H6S 5078   2.236   1.206  10.568 -1.2839  0.7821  2.0900
   40DOPE   C27 5079   2.120   1.111  10.706 -0.2239  0.0487  0.2719
   40DOPE   H7R 5080   2.046   1.029  10.709  0.2530 -0.3676  1.1302
   40DOPE   H7S 5081   2.068   1.203  10.739 -0.1677 -0.1564  0.9434
   40DOPE   C28 5082   2.228   1.073  10.811  0.1027  0.4054 -0.2098
   40DOPE   H8R 5083   2.325   1.125  10.799  0.0371  0.5203 -0.2440
   40DOPE   H8S 5084   2.248   0.966  10.788 -0.2728  0.6719 -1.9504
   40DOPE   C29 5085   2.166   1.075  10.949  0.1191  0.2808 -0.2554
   40DOPE   H9R 5086   2.144   1.177  10.983  0.8010  0.3963 -0.1446
   40DOPE  C210 5087   2.144   0.981  11.040 -0.4128  0.1254  0.7156
   40DOPE  H10R 5088   2.097   1.011  11.135 -2.2427  0.3092 -0.2035
   40DOPE  C211 5089   2.179   0.835  11.038 -0.5151 -0.0543  0.0463
   40DOPE  H11R 5090   2.222   0.799  10.942 -2.2247 -0.8374 -0.4671
   40DOPE  H11S 5091   2.095   0.764  11.050 -0.2632 -0.2546  0.6527
   40DOPE  C212 5092   2.279   0.796  11.150  0.0531  0.0806 -0.4837
   40DOPE  H12R 5093   2.380   0.841  11.136  0.4962 -0.9427 -0.5999
   40DOPE  H12S 5094   2.295   0.687  11.154 -0.1533  0.0559 -0.3155
   40DOPE  C213 5095   2.232   0.826  11.290 -0.6501 -0.4020 -0.3679
   40DOPE  H13R 5096   2.133   0.778  11.304 -0.6184 -0.9100 -1.7814
   40DOPE  H13S 5097   2.217   0.935  11.302  2.8559  0.4089 -2.2040
   40DOPE  C214 5098   2.337   0.790  11.401  0.6802 -0.5276 -0.3116
   40DOPE  H14R 5099   2.420   0.863  11.402  0.1717  0.0855 -1.2366
   40DOPE  H14S 5100   2.375   0.688  11.380 -2.4147 -2.1106  1.0879
   40DOPE  C215 5101   2.270   0.790  11.542 -0.3675 -0.0155  0.1189
   40DOPE  H15R 5102   2.173   0.738  11.529 -0.1244  0.1932 -3.6170
   40DOPE  H15S 5103   2.255   0.896  11.573 -0.0494  0.4970 -1.3794
   40DOPE  C216 5104   2.349   0.737  11.653 -0.2130 -0.2648  0.5016
   40DOPE  H16R 5105   2.438   0.802  11.666 -0.0504 -0.6891  1.6481
   40DOPE  H16S 5106   2.384   0.633  11.637 -1.6861 -0.6731 -0.1931
   40DOPE  C217 5107   2.275   0.745  11.783  0.4962 -0.8655  1.1702
   40DOPE  H17R 5108   2.170   0.712  11.764  0.4550  0.2767 -0.9325
   40DOPE  H17S 5109   2.273   0.853  11.809  0.6567 -1.0642  2.0304
   40DOPE  C218 5110   2.324   0.667  11.905  0.2623  0.6595  0.1379
   40DOPE  H18R 5111   2.294   0.562  11.887 -2.4851  1.2315  1.0498
   40DOPE  H18S 5112   2.290   0.707  12.002  0.3662  0.6681  0.1714
   40DOPE  H18T 5113   2.435   0.670  11.913  0.4441 -2.6577  0.4525
   40DOPE   C33 5114   2.485   1.863  10.419 -0.0861  0.3685  0.1202
   40DOPE   H3X 5115   2.518   1.915  10.326  3.3394 -1.7651 -0.0119
   40DOPE   H3Y 5116   2.575   1.861  10.483 -0.0473 -1.6516  0.0460
   40DOPE   C34 5117   2.374   1.943  10.486  0.5559  0.5214  0.0070
   40DOPE   H4X 5118   2.286   1.957  10.420  1.2346 -0.1996 -1.1012
   40DOPE   H4Y 5119   2.340   1.879  10.570 -0.3968  0.5939 -0.3160
   40DOPE   C35 5120   2.404   2.074  10.546 -0.2185 -0.3261  0.6594
   40DOPE   H5X 5121   2.399   2.150  10.465  0.2454 -0.0385  0.8979
   40DOPE   H5Y 5122   2.501   2.080  10.601 -0.5317  2.7426  1.0740
   40DOPE   C36 5123   2.293   2.116  10.644  0.2495  0.1750  0.7574
   40DOPE   H6X 5124   2.281   2.040  10.725  0.5347  1.7730  2.3602
   40DOPE   H6Y 5125   2.199   2.111  10.584 -0.7314 -0.8987  2.2967
   40DOPE   C37 5126   2.301   2.249  10.711  0.0900  0.6787 -0.4391
   40DOPE   H7X 5127   2.330   2.335  10.648 -1.6475  2.2196  0.7427
   40DOPE   H7Y 5128   2.204   2.268  10.763  1.0345 -0.2613  1.7982
   40DOPE   C38 5129   2.409   2.256  10.827  0.0990  1.0991  0.3315
   40DOPE   H8X 5130   2.501   2.219  10.778 -1.2891 -2.4943  0.1047
   40DOPE   H8Y 5131   2.385   2.180  10.904 -1.4018 -0.2497 -1.3651
   40DOPE   C39 5132   2.418   2.396  10.880  0.5561  0.5706  0.1318
   40DOPE   H9X 5133   2.461   2.472  10.814 -0.3073  0.2925 -0.7700
   40DOPE  C310 5134   2.379   2.434  10.999 -0.8148  0.7405 -0.9932
   40DOPE  H10X 5135   2.407   2.535  11.033  0.3304  0.1253 -0.0357
   40DOPE  C311 5136   2.317   2.349  11.108 -0.6078 -0.1235  0.3210
   40DOPE  H11X 5137   2.231   2.414  11.134 -1.4379 -0.4495 -1.4505
   40DOPE  H11Y 5138   2.277   2.254  11.067 -1.4128 -0.3059  1.4816
   40DOPE  C312 5139   2.407   2.317  11.229  1.1371  0.5501 -0.2770
   40DOPE  H12X 5140   2.442   2.416  11.265 -1.1707  1.7747 -1.1710
   40DOPE  H12Y 5141   2.496   2.257  11.200  1.3973  0.4791  0.6305
   40DOPE  C313 5142   2.327   2.255  11.346 -0.2378  0.6225 -0.5295
   40DOPE  H13X 5143   2.241   2.324  11.359  0.9923  1.8714  1.4301
   40DOPE  H13Y 5144   2.284   2.158  11.312 -1.1109  1.0220 -0.5725
   40DOPE  C314 5145   2.401   2.249  11.479 -0.9584  0.0325  0.0610
   40DOPE  H14X 5146   2.416   2.351  11.520  1.6672 -0.9815  1.8783
   40DOPE  H14Y 5147   2.505   2.216  11.461 -1.1360 -0.2423 -0.4794
   40DOPE  C315 5148   2.334   2.173  11.591  0.3020 -0.2975  0.9344
   40DOPE  H15X 5149   2.275   2.085  11.557 -0.2399 -0.3111  1.8677
   40DOPE  H15Y 5150   2.252   2.231  11.639 -1.1733 -0.7978 -0.8819
   40DOPE  C316 5151   2.434   2.148  11.699  0.0888  0.4458 -0.3793
   40DOPE  H16X 5152   2.460   2.240  11.756  0.9732 -1.7869  3.1466
   40DOPE  H16Y 5153   2.531   2.116  11.655  0.9508  1.3310  0.8265
   40DOPE  C317 5154   2.397   2.038  11.799  0.6428  0.4773 -0.5602
   40DOPE  H17X 5155   2.365   1.947  11.744  1.9524  0.8455 -1.9826
   40DOPE  H17Y 5156   2.487   2.014  11.860  0.7978  1.5644 -0.3443
   40DOPE  C318 5157   2.280   2.077  11.898 -0.0316 -0.6218 -0.5692
   40DOPE  H18X 5158   2.304   2.175  11.946 -2.5266  1.0402 -2.4122
   40DOPE  H18Y 5159   2.181   2.087  11.849 -0.5787  0.3480  0.6815
   40DOPE  H18Z 5160   2.273   1.995  11.972  1.1064 -2.4058 -2.3440
   41DOPE     N 5161   1.080   1.627   9.764  0.1227  0.0229  0.3160
   41DOPE   HN1 5162   1.054   1.677   9.851  0.1813  0.3569  0.1431
   41DOPE   HN2 5163   1.011   1.551   9.747  0.7265 -0.1277 -1.8127
   41DOPE   HN3 5164   1.175   1.589   9.784 -0.6720 -2.1127  0.3104
   41DOPE   C12 5165   1.093   1.720   9.642 -0.3880  0.2828  0.0109
   41DOPE  H12A 5166   1.010   1.794   9.642  0.1953  1.0351 -2.5857
   41DOPE  H12B 5167   1.081   1.658   9.551  3.0626 -2.2715  1.1173
   41DOPE   C11 5168   1.229   1.794   9.614 -0.3654  1.2265  0.0757
   41DOPE  H11A 5169   1.207   1.876   9.543 -0.3361  0.6095 -0.6582
   41DOPE  H11B 5170   1.301   1.724   9.567 -0.6384  2.1343 -1.7630
   41DOPE     P 5171   1.427   1.917   9.735  0.0090  0.1352 -0.0504
   41DOPE   O13 5172   1.399   2.051   9.681  0.0061  0.0835  0.4960
   41DOPE   O14 5173   1.529   1.837   9.658 -0.1001  0.2200  0.0112
   41DOPE   O11 5174   1.474   1.926   9.890  0.4363 -0.5889 -0.2394
   41DOPE   O12 5175   1.292   1.832   9.737 -0.2341  0.6017 -0.3824
   41DOPE    C1 5176   1.382   1.929   9.991 -0.0963  0.0631 -0.5638
   41DOPE    HA 5177   1.325   1.834   9.985  0.8419 -0.4586 -1.7303
   41DOPE    HB 5178   1.310   2.009   9.967  1.0313  1.1756 -0.3430
   41DOPE    C2 5179   1.449   1.959  10.122  0.0743 -0.3710 -0.4145
   41DOPE    HS 5180   1.500   2.057  10.108 -2.0073  1.0393  1.2322
   41DOPE   O21 5181   1.531   1.847  10.170 -0.6727 -0.3807  1.0711
   41DOPE   C21 5182   1.640   1.886  10.228 -0.1310  0.0556 -0.3063
   41DOPE   O22 5183   1.662   1.995  10.273  0.1497 -0.0806 -0.1281
   41DOPE   C22 5184   1.741   1.775  10.226 -0.1360  0.3012 -0.1768
   41DOPE   H2R 5185   1.756   1.750  10.119  0.5474  1.6836 -0.4212
   41DOPE   H2S 5186   1.694   1.681  10.262  1.7857 -0.8121 -0.4625
   41DOPE    C3 5187   1.342   1.993  10.233  0.2319  0.2846  0.4152
   41DOPE    HX 5188   1.269   1.910  10.230  1.0052 -0.4116  0.6998
   41DOPE    HY 5189   1.286   2.083  10.198  0.5943  0.4740  0.3117
   41DOPE   O31 5190   1.398   2.005  10.364  0.1282 -0.4280  0.2760
   41DOPE   C31 5191   1.417   2.118  10.427  0.0913  0.3086  0.5412
   41DOPE   O32 5192   1.402   2.231  10.374  0.0497  0.2536 -0.4041
   41DOPE   C32 5193   1.456   2.085  10.569 -0.6110 -0.2804 -0.2947
   41DOPE   H2X 5194   1.566   2.094  10.559 -0.5830  0.0627  0.3109
   41DOPE   H2Y 5195   1.426   2.163  10.642  0.1943 -1.0050  0.8446
   41DOPE   C23 5196   1.866   1.811  10.304  0.5741 -0.7228 -0.2677
   41DOPE   H3R 5197   1.900   1.909  10.264  0.3710 -0.8901 -0.8593
   41DOPE   H3S 5198   1.942   1.734  10.279  0.9465 -0.5007  0.1541
   41DOPE   C24 5199   1.855   1.826  10.461 -0.5014 -0.4480  0.0094
   41DOPE   H4R 5200   1.848   1.725  10.507 -1.9006 -0.3637  0.0098
   41DOPE   H4S 5201   1.769   1.891  10.484  0.6762  0.3990  2.3654
   41DOPE   C25 5202   1.984   1.890  10.512 -1.0582  0.1768  1.3239
   41DOPE   H5R 5203   1.989   1.999  10.493 -0.6139 -0.0823 -0.1797
   41DOPE   H5S 5204   2.067   1.840  10.456 -0.3114  0.9118  1.7475
   41DOPE   C26 5205   2.005   1.854  10.660 -0.3053  0.1571  0.5994
   41DOPE   H6R 5206   2.115   1.866  10.676  0.2687 -1.9522 -1.1392
   41DOPE   H6S 5207   1.989   1.744  10.668  1.3527 -0.2205 -0.5428
   41DOPE   C27 5208   1.926   1.941  10.758  0.5391  0.4885  0.4393
   41DOPE   H7R 5209   1.819   1.939  10.728  0.6421  0.3220  0.0798
   41DOPE   H7S 5210   1.966   2.043  10.738  0.7243  0.3653  0.1772
   41DOPE   C28 5211   1.949   1.923  10.910  0.3850  0.1996  0.2701
   41DOPE   H8R 5212   1.941   1.815  10.936 -0.2592  0.3945  0.9356
   41DOPE   H8S 5213   1.871   1.976  10.968  1.3608 -0.4143  2.2456
   41DOPE   C29 5214   2.090   1.956  10.942 -0.2472  0.5649  0.3268
   41DOPE   H9R 5215   2.139   2.016  10.864  1.0821  0.0587  0.7424
   41DOPE  C210 5216   2.141   1.953  11.063 -1.0596 -0.4444  0.3132
   41DOPE  H10R 5217   2.234   2.009  11.078 -0.4447 -1.3030 -0.1693
   41DOPE  C211 5218   2.082   1.895  11.184  0.7561  0.4207 -0.2429
   41DOPE  H11R 5219   2.042   1.796  11.154 -0.4717  1.0589 -0.7778
   41DOPE  H11S 5220   2.002   1.958  11.229 -1.2929 -3.5171  2.2955
   41DOPE  C212 5221   2.171   1.848  11.300  0.0372 -0.5728 -0.0255
   41DOPE  H12R 5222   2.210   1.938  11.353 -3.5115  1.2476 -0.1968
   41DOPE  H12S 5223   2.255   1.790  11.258 -0.7314 -0.7951 -1.3450
   41DOPE  C213 5224   2.096   1.757  11.400 -0.1760 -0.8332  0.5531
   41DOPE  H13R 5225   2.072   1.665  11.342  2.2598 -0.4465 -1.2716
   41DOPE  H13S 5226   1.998   1.802  11.428 -0.3649  0.3659 -1.7320
   41DOPE  C214 5227   2.178   1.727  11.525 -0.4433  0.4908  0.1296
   41DOPE  H14R 5228   2.187   1.799  11.609 -0.4013 -0.8736  1.3320
   41DOPE  H14S 5229   2.280   1.688  11.504  0.1492  0.8506  2.1363
   41DOPE  C215 5230   2.120   1.608  11.612  0.2005 -0.6018 -1.1479
   41DOPE  H15R 5231   2.192   1.580  11.692 -0.7091  2.2283  0.8483
   41DOPE  H15S 5232   2.090   1.529  11.540 -1.1616 -1.0356 -0.1299
   41DOPE  C216 5233   2.001   1.654  11.696 -0.0588  0.2978 -0.5365
   41DOPE  H16R 5234   1.916   1.695  11.636  0.7715  3.1541  0.0967
   41DOPE  H16S 5235   2.026   1.728  11.775  1.3055 -0.0110 -0.6560
   41DOPE  C217 5236   1.923   1.542  11.772  0.0967 -0.0867  0.3002
   41DOPE  H17R 5237   1.891   1.468  11.696 -0.8455  1.3862 -0.8095
   41DOPE  H17S 5238   1.829   1.585  11.814  1.0771  0.4377  2.0900
   41DOPE  C218 5239   1.993   1.461  11.881 -0.1758  0.1642 -0.1303
   41DOPE  H18R 5240   1.927   1.376  11.908 -1.3811  1.5345  1.4248
   41DOPE  H18S 5241   2.000   1.528  11.970  1.9993 -0.0402 -0.0799
   41DOPE  H18T 5242   2.092   1.433  11.839  0.0054  1.8925 -0.9110
   41DOPE   C33 5243   1.416   1.939  10.602  0.0910  0.5611  0.1967
   41DOPE   H3X 5244   1.485   1.870  10.548  0.5766  1.4403 -0.3276
   41DOPE   H3Y 5245   1.318   1.908  10.561 -0.2985  3.3574 -1.1694
   41DOPE   C34 5246   1.437   1.893  10.746  0.4768  0.1441 -0.0310
   41DOPE   H4X 5247   1.376   1.939  10.827 -0.7451 -3.0870  1.0360
   41DOPE   H4Y 5248   1.396   1.790  10.748  0.0815  0.3034  0.0201
   41DOPE   C35 5249   1.587   1.889  10.797  0.9472  0.0590 -0.4267
   41DOPE   H5X 5250   1.640   1.986  10.788  0.8031  0.3927  1.8195
   41DOPE   H5Y 5251   1.630   1.813  10.728 -1.5055 -1.1408 -0.7831
   41DOPE   C36 5252   1.601   1.848  10.941  0.2513 -0.5761 -0.2537
   41DOPE   H6X 5253   1.704   1.806  10.947  0.1321 -0.7792  0.4721
   41DOPE   H6Y 5254   1.535   1.763  10.967  0.6287 -1.1934 -1.2581
   41DOPE   C37 5255   1.591   1.961  11.042  0.0678 -0.3829  0.1648
   41DOPE   H7X 5256   1.675   2.029  11.016 -1.3792  1.2484 -0.4736
   41DOPE   H7Y 5257   1.508   2.029  11.011  2.3244  2.0795 -0.8937
   41DOPE   C38 5258   1.591   1.916  11.186  0.3459 -0.1278 -0.1275
   41DOPE   H8X 5259   1.692   1.870  11.191  0.4239  0.1306  0.7666
   41DOPE   H8Y 5260   1.519   1.831  11.182  0.8283 -0.5055 -1.1043
   41DOPE   C39 5261   1.560   2.009  11.297 -0.3951  0.3782  0.1255
   41DOPE   H9X 5262   1.500   2.098  11.271 -0.2360  1.0441  1.8927
   41DOPE  C310 5263   1.597   1.989  11.424 -0.1734 -0.4756  0.9506
   41DOPE  H10X 5264   1.560   2.053  11.505 -0.8788  0.5145 -0.1237
   41DOPE  C311 5265   1.676   1.874  11.472 -0.1123  1.2065 -0.2335
   41DOPE  H11X 5266   1.725   1.816  11.391 -0.6514 -1.5576  1.3011
   41DOPE  H11Y 5267   1.762   1.898  11.538 -1.0375  2.3529  0.6001
   41DOPE  C312 5268   1.590   1.774  11.554 -0.3802  0.8209 -0.5737
   41DOPE  H12X 5269   1.648   1.681  11.573 -1.8106 -0.3730 -1.8401
   41DOPE  H12Y 5270   1.513   1.735  11.485  0.7442 -1.9922 -0.3610
   41DOPE  C313 5271   1.536   1.826  11.687 -0.0986 -0.5739  0.0627
   41DOPE  H13X 5272   1.618   1.876  11.743 -1.4337 -1.1330  2.6814
   41DOPE  H13Y 5273   1.448   1.892  11.671 -0.1617 -0.8663 -0.8884
   41DOPE  C314 5274   1.483   1.710  11.777  0.0225 -0.4697  0.3839
   41DOPE  H14X 5275   1.458   1.760  11.873  3.9054  0.6064  1.0413
   41DOPE  H14Y 5276   1.574   1.646  11.787  1.6446  1.8617  1.5614
   41DOPE  C315 5277   1.386   1.622  11.705  0.2431  0.7527  0.7088
   41DOPE  H15X 5278   1.450   1.569  11.631  1.3514  1.5175  1.0987
   41DOPE  H15Y 5279   1.297   1.675  11.667  0.3755  0.8844  0.5809
   41DOPE  C316 5280   1.329   1.510  11.795  1.0420 -0.4237 -0.1184
   41DOPE  H16X 5281   1.281   1.428  11.738  0.3489 -0.2998  0.2761
   41DOPE  H16Y 5282   1.258   1.551  11.870  1.2452 -0.2303 -0.0292
   41DOPE  C317 5283   1.432   1.435  11.880  0.4020 -0.5873 -1.1619
   41DOPE  H17X 5284   1.488   1.499  11.951 -1.3378  0.1900 -0.4335
   41DOPE  H17Y 5285   1.383   1.358  11.942  1.7394 -1.3213 -0.9722
   41DOPE  C318 5286   1.539   1.360  11.801 -0.6622 -0.2530  0.9483
   41DOPE  H18X 5287   1.612   1.313  11.871  1.3895  2.2437  0.6495
   41DOPE  H18Y 5288   1.496   1.280  11.738  0.3537  1.2530 -1.8085
   41DOPE  H18Z 5289   1.601   1.424  11.735 -0.3664 -2.3535 -0.9533
   42DOPE     N 5290   0.577   6.722   9.631  0.2180  0.3695 -0.5767
   42DOPE   HN1 5291   0.608   6.637   9.578  0.0683 -1.2841  1.8423
   42DOPE   HN2 5292   0.541   6.672   9.714  1.1728 -0.0545 -0.4026
   42DOPE   HN3 5293   0.503   6.767   9.574 -0.7225  0.5845  0.7670
   42DOPE   C12 5294   0.693   6.807   9.673 -0.1657  0.1860 -0.0582
   42DOPE  H12A 5295   0.758   6.759   9.749  1.7040 -0.1054 -1.7432
   42DOPE  H12B 5296   0.642   6.888   9.730  1.3751 -0.5263  2.4906
   42DOPE   C11 5297   0.769   6.861   9.547  0.5530  0.3918 -0.3401
   42DOPE  H11A 5298   0.699   6.897   9.468  1.4327  0.0977 -1.2702
   42DOPE  H11B 5299   0.836   6.783   9.505  0.5447 -0.3910  1.0302
   42DOPE     P 5300   0.981   6.989   9.643  0.0881  0.0790  0.0376
   42DOPE   O13 5301   1.034   7.130   9.646 -0.5260  0.5360 -0.2084
   42DOPE   O14 5302   1.067   6.895   9.572  0.6221  0.4680 -0.5170
   42DOPE   O11 5303   0.959   6.953   9.795  0.1939  0.4861  0.3783
   42DOPE   O12 5304   0.834   6.988   9.577 -0.1843 -0.7438  0.4367
   42DOPE    C1 5305   0.857   7.034   9.861 -0.4928  0.7934  0.0154
   42DOPE    HA 5306   0.771   6.971   9.889 -0.0073 -0.2546 -0.7957
   42DOPE    HB 5307   0.817   7.120   9.803  0.0652  1.7852  1.0521
   42DOPE    C2 5308   0.919   7.109   9.988  1.1349 -0.4340 -0.2075
   42DOPE    HS 5309   1.001   7.176   9.953 -0.5122  0.9399 -1.6309
   42DOPE   O21 5310   0.949   7.020  10.095  0.0529  0.8653  0.0966
   42DOPE   C21 5311   1.051   7.057  10.175  0.4411 -0.1594 -0.7838
   42DOPE   O22 5312   1.105   7.167  10.168 -0.5742  0.0617 -0.0569
   42DOPE   C22 5313   1.076   6.947  10.270  0.0056  0.6190  0.2313
   42DOPE   H2R 5314   1.138   6.870  10.218 -1.0315 -1.3211  1.7316
   42DOPE   H2S 5315   0.976   6.903  10.290  1.4675 -2.8747  0.5710
   42DOPE    C3 5316   0.794   7.206  10.044 -0.1350 -0.0909  0.3771
   42DOPE    HX 5317   0.712   7.133  10.055 -0.6404 -0.4531 -3.9587
   42DOPE    HY 5318   0.770   7.280   9.965 -0.4785 -0.8582 -0.2483
   42DOPE   O31 5319   0.812   7.264  10.174  0.1709 -0.1058  0.1274
   42DOPE   C31 5320   0.899   7.367  10.182  0.2176 -0.7690  0.2305
   42DOPE   O32 5321   0.951   7.416  10.080 -0.2344 -0.1579  0.0229
   42DOPE   C32 5322   0.908   7.414  10.326 -0.2368  0.2534  0.3324
   42DOPE   H2X 5323   0.869   7.518  10.324  0.1415  0.3969 -1.3445
   42DOPE   H2Y 5324   0.846   7.349  10.391  1.0566 -0.6028  0.7554
   42DOPE   C23 5325   1.138   6.999  10.398  0.1017  0.1966 -0.1404
   42DOPE   H3R 5326   1.200   7.090  10.388  1.5610 -0.3478  2.8764
   42DOPE   H3S 5327   1.194   6.915  10.443  0.2074  0.0178 -0.6097
   42DOPE   C24 5328   1.032   7.053  10.501 -0.0332 -0.0794  0.0483
   42DOPE   H4R 5329   0.963   7.129  10.460  1.7184  1.4477 -0.2068
   42DOPE   H4S 5330   1.083   7.096  10.590  0.4206 -1.3113  0.4089
   42DOPE   C25 5331   0.954   6.940  10.576 -0.0668 -0.6157 -0.4540
   42DOPE   H5R 5332   1.022   6.877  10.636 -1.8062  0.1165  2.4814
   42DOPE   H5S 5333   0.905   6.871  10.504  0.6604 -1.3230 -0.2793
   42DOPE   C26 5334   0.842   6.998  10.660  0.4581  0.0514  0.0005
   42DOPE   H6R 5335   0.782   6.911  10.694 -0.3458  0.7008  0.2700
   42DOPE   H6S 5336   0.771   7.056  10.598  0.9409  1.4573  0.7233
   42DOPE   C27 5337   0.891   7.085  10.774  0.4382 -0.0455  0.4159
   42DOPE   H7R 5338   0.933   7.179  10.733 -0.5701 -0.4764 -1.7246
   42DOPE   H7S 5339   0.972   7.028  10.825  0.9746  0.1996 -0.1416
   42DOPE   C28 5340   0.776   7.110  10.878  0.6559 -0.7724  0.0735
   42DOPE   H8R 5341   0.685   7.134  10.819  1.0203 -0.3080 -0.3105
   42DOPE   H8S 5342   0.794   7.204  10.934 -0.4431 -0.7346  0.3932
   42DOPE   C29 5343   0.746   7.003  10.980 -0.3695 -0.5237  0.3819
   42DOPE   H9R 5344   0.828   6.930  10.990 -1.5087 -1.5506  3.1011
   42DOPE  C210 5345   0.623   6.978  11.037 -0.9270  0.4656  1.0037
   42DOPE  H10R 5346   0.623   6.901  11.115  2.0180 -3.4632 -2.4190
   42DOPE  C211 5347   0.500   7.060  11.024 -1.0951  0.2720  0.7439
   42DOPE  H11R 5348   0.414   6.991  11.038  0.3839 -1.7107  0.4918
   42DOPE  H11S 5349   0.491   7.121  10.932  1.0859 -0.5496 -0.0561
   42DOPE  C212 5350   0.486   7.166  11.136  0.0397 -0.1896  0.6071
   42DOPE  H12R 5351   0.385   7.204  11.112 -0.2476 -1.7719 -0.8771
   42DOPE  H12S 5352   0.568   7.240  11.122  0.8257 -1.1911 -0.2246
   42DOPE  C213 5353   0.475   7.116  11.281 -0.1645  0.3857 -0.4594
   42DOPE  H13R 5354   0.562   7.060  11.322 -0.9192 -0.9394 -0.6086
   42DOPE  H13S 5355   0.397   7.037  11.287 -0.8156  1.1564  2.1181
   42DOPE  C214 5356   0.441   7.214  11.388  0.2667  0.3076  0.1019
   42DOPE  H14R 5357   0.331   7.225  11.382  0.4893  2.4181 -1.2602
   42DOPE  H14S 5358   0.483   7.315  11.366  0.5881  0.4673  1.3914
   42DOPE  C215 5359   0.483   7.172  11.524  0.3380 -0.3374  0.0487
   42DOPE  H15R 5360   0.592   7.193  11.518  0.3900 -0.8215 -1.1408
   42DOPE  H15S 5361   0.457   7.064  11.535 -3.3242  0.5060  1.3854
   42DOPE  C216 5362   0.405   7.250  11.634 -0.3939  0.7162 -0.7096
   42DOPE  H16R 5363   0.303   7.205  11.631  0.1395 -0.4878 -1.3637
   42DOPE  H16S 5364   0.415   7.359  11.614  1.9086  0.5687 -0.6056
   42DOPE  C217 5365   0.466   7.230  11.770  0.0392  0.1410  0.4031
   42DOPE  H17R 5366   0.494   7.123  11.769 -1.9320 -0.4109 -0.2249
   42DOPE  H17S 5367   0.395   7.255  11.852 -2.2083  1.5804 -1.8164
   42DOPE  C218 5368   0.587   7.323  11.792 -0.5873  0.1214  0.1026
   42DOPE  H18R 5369   0.677   7.279  11.744 -1.5698 -2.2288  0.2808
   42DOPE  H18S 5370   0.603   7.338  11.901 -0.8841  1.8376 -0.0600
   42DOPE  H18T 5371   0.558   7.423  11.753  0.2477 -0.1058 -1.1823
   42DOPE   C33 5372   1.047   7.419  10.374  0.5401 -0.9121 -0.7316
   42DOPE   H3X 5373   1.099   7.510  10.336 -2.6926  1.3870 -0.0928
   42DOPE   H3Y 5374   1.113   7.337  10.339  0.5815 -0.6069 -1.3766
   42DOPE   C34 5375   1.040   7.429  10.529  0.1232 -0.2332  0.4256
   42DOPE   H4X 5376   0.969   7.356  10.574 -2.9888  1.8446 -0.7717
   42DOPE   H4Y 5377   1.144   7.419  10.566  0.0160 -3.4762  0.1105
   42DOPE   C35 5378   0.988   7.563  10.577  0.5125  0.4158  0.7341
   42DOPE   H5X 5379   0.886   7.580  10.535  0.5032 -0.0987  0.5433
   42DOPE   H5Y 5380   1.056   7.640  10.535  0.8730  0.4953  1.4498
   42DOPE   C36 5381   0.971   7.560  10.728  0.7353 -0.5858  0.5923
   42DOPE   H6X 5382   1.064   7.543  10.786  0.4588  0.6840  1.4397
   42DOPE   H6Y 5383   0.895   7.482  10.746 -0.3781  0.9679  3.1377
   42DOPE   C37 5384   0.902   7.682  10.785 -0.3647  0.4698  0.5116
   42DOPE   H7X 5385   0.935   7.776  10.737 -0.1497  0.0835 -0.0992
   42DOPE   H7Y 5386   0.795   7.680  10.753 -0.2331  4.1810 -0.6683
   42DOPE   C38 5387   0.917   7.686  10.938 -0.1698  0.7108 -0.7496
   42DOPE   H8X 5388   1.017   7.662  10.981 -0.4933  1.8260  0.6813
   42DOPE   H8Y 5389   0.862   7.595  10.972  1.0570  0.0186 -0.5543
   42DOPE   C39 5390   0.859   7.798  11.021  0.6487  0.5748  0.0398
   42DOPE   H9X 5391   0.749   7.808  11.018  0.5053 -0.1682  1.7966
   42DOPE  C310 5392   0.931   7.885  11.094 -0.0761 -0.1279 -0.4904
   42DOPE  H10X 5393   0.879   7.978  11.123  0.3868  0.2785 -0.9249
   42DOPE  C311 5394   1.078   7.884  11.123 -0.3807 -0.3572  0.7080
   42DOPE  H11X 5395   1.139   7.827  11.049  0.3664  0.1737  0.9065
   42DOPE  H11Y 5396   1.099   7.991  11.102 -0.2299 -0.4707  0.2836
   42DOPE  C312 5397   1.109   7.828  11.256 -0.3189  0.4339 -0.1373
   42DOPE  H12X 5398   1.068   7.729  11.284  1.2816 -0.8360 -2.0607
   42DOPE  H12Y 5399   1.080   7.896  11.340 -0.4148 -0.5680  0.6587
   42DOPE  C313 5400   1.260   7.821  11.270 -0.1904 -0.1002 -0.2046
   42DOPE  H13X 5401   1.309   7.762  11.189  3.0504  1.8179  0.1579
   42DOPE  H13Y 5402   1.304   7.922  11.257  0.6495 -0.1006  2.1117
   42DOPE  C314 5403   1.320   7.762  11.403 -0.6777 -0.8576  0.2103
   42DOPE  H14X 5404   1.430   7.782  11.405 -0.9336  0.9978 -1.5117
   42DOPE  H14Y 5405   1.309   7.652  11.413  0.4968 -1.0150 -0.0601
   42DOPE  C315 5406   1.252   7.827  11.533  0.1075 -0.3065  0.2367
   42DOPE  H15X 5407   1.141   7.817  11.534  0.0254  0.4782  0.2335
   42DOPE  H15Y 5408   1.266   7.936  11.517 -1.5014 -0.5193 -4.0359
   42DOPE  C316 5409   1.295   7.765  11.661 -0.7186 -1.0260  0.0662
   42DOPE  H16X 5410   1.406   7.769  11.647 -0.6067 -1.1069  0.8664
   42DOPE  H16Y 5411   1.258   7.662  11.680 -2.8357 -0.1694  0.8813
   42DOPE  C317 5412   1.254   7.853  11.781 -0.4748 -0.7082  0.1889
   42DOPE  H17X 5413   1.293   7.805  11.873 -3.8215 -1.3248  1.4241
   42DOPE  H17Y 5414   1.307   7.950  11.779 -0.7499 -0.5581 -0.0470
   42DOPE  C318 5415   1.102   7.886  11.790  0.6191 -0.9838  0.2838
   42DOPE  H18X 5416   1.066   7.948  11.705  0.8615  1.2317  1.7055
   42DOPE  H18Y 5417   1.041   7.793  11.788 -2.0033  0.6606 -1.3972
   42DOPE  H18Z 5418   1.064   7.930  11.885 -1.9063 -0.8771 -0.7114
   43DOPE     N 5419   1.015   6.472   9.814 -0.1580 -0.3513 -0.4922
   43DOPE   HN1 5420   1.049   6.554   9.761 -1.0271 -0.4729 -1.2757
   43DOPE   HN2 5421   0.929   6.441   9.764  0.2416 -0.3424 -1.1942
   43DOPE   HN3 5422   0.987   6.499   9.911 -0.2524 -1.0509 -0.3178
   43DOPE   C12 5423   1.121   6.368   9.816  0.4974  0.2615  0.0412
   43DOPE  H12A 5424   1.118   6.311   9.912  2.2471  1.7043  1.0129
   43DOPE  H12B 5425   1.220   6.418   9.807 -0.2742  1.5182 -2.5639
   43DOPE   C11 5426   1.102   6.287   9.685  0.3443  0.2794  0.1525
   43DOPE  H11A 5427   1.171   6.200   9.692  1.6478  1.3042  0.6698
   43DOPE  H11B 5428   1.133   6.348   9.597 -0.5741  0.8185  0.1992
   43DOPE     P 5429   0.918   6.096   9.646  0.0327  0.3622 -0.2158
   43DOPE   O13 5430   1.017   6.020   9.559  0.8670  0.3064 -0.0995
   43DOPE   O14 5431   0.780   6.115   9.587 -1.4459 -0.1800  0.7901
   43DOPE   O11 5432   0.924   6.041   9.802  0.5287 -0.3781  0.1666
   43DOPE   O12 5433   0.965   6.245   9.665 -0.2430  0.4868 -0.0915
   43DOPE    C1 5434   0.862   6.126   9.899  0.2382  0.1488  0.0271
   43DOPE    HA 5435   0.775   6.180   9.856 -0.6763  0.7745  2.4630
   43DOPE    HB 5436   0.933   6.204   9.936  2.0706 -1.3059 -0.2883
   43DOPE    C2 5437   0.792   6.045  10.004  0.0006  0.6043 -0.0125
   43DOPE    HS 5438   0.742   6.121  10.068  0.4395  1.4958 -0.7155
   43DOPE   O21 5439   0.887   5.973  10.083  0.2551  0.0834 -0.1260
   43DOPE   C21 5440   0.961   6.041  10.163 -0.1343 -0.3989  0.0699
   43DOPE   O22 5441   0.949   6.163  10.182 -0.2458 -0.2318 -0.7313
   43DOPE   C22 5442   1.072   5.947  10.224  0.7012 -0.0914 -0.2320
   43DOPE   H2R 5443   1.159   5.936  10.155 -0.2952 -1.1314 -1.3670
   43DOPE   H2S 5444   1.018   5.852  10.241  1.8513 -0.6447  0.4883
   43DOPE    C3 5445   0.691   5.943   9.941 -0.0690  0.1291 -0.1950
   43DOPE    HX 5446   0.760   5.874   9.887  1.0549  1.8065 -0.9632
   43DOPE    HY 5447   0.628   5.990   9.863 -1.1162  0.7088  0.9599
   43DOPE   O31 5448   0.610   5.877  10.034  0.5243 -0.3185 -0.0752
   43DOPE   C31 5449   0.494   5.936  10.061  0.2490 -0.3887 -1.4233
   43DOPE   O32 5450   0.443   6.024   9.992  0.3373  0.3709 -0.6119
   43DOPE   C32 5451   0.432   5.879  10.194  0.2360  0.3455  0.3842
   43DOPE   H2X 5452   0.332   5.926  10.190  0.3553  0.5607 -0.2855
   43DOPE   H2Y 5453   0.415   5.770  10.183 -1.8588  0.3394  2.8791
   43DOPE   C23 5454   1.135   5.999  10.354  0.3290 -0.0263  0.3075
   43DOPE   H3R 5455   1.134   6.110  10.351 -0.0464 -0.0382 -0.6311
   43DOPE   H3S 5456   1.241   5.966  10.361 -0.6367 -3.6876  0.0568
   43DOPE   C24 5457   1.077   5.967  10.490 -0.9640  0.5267  0.5489
   43DOPE   H4R 5458   1.048   5.860  10.496  0.4680  0.0843 -0.1236
   43DOPE   H4S 5459   0.984   6.029  10.489 -0.6952  0.9320 -0.5910
   43DOPE   C25 5460   1.171   6.014  10.596 -0.2855 -0.0831 -0.2062
   43DOPE   H5R 5461   1.179   6.125  10.594  0.0389 -0.0718  0.9083
   43DOPE   H5S 5462   1.272   5.970  10.578 -0.7107 -1.3533  0.4034
   43DOPE   C26 5463   1.138   5.983  10.738 -0.0512 -0.2296 -0.4573
   43DOPE   H6R 5464   1.097   5.880  10.752  0.0625  0.0143  2.1923
   43DOPE   H6S 5465   1.055   6.048  10.773  0.7443  0.0150  1.0842
   43DOPE   C27 5466   1.257   6.003  10.845  0.0407 -0.2966  0.3626
   43DOPE   H7R 5467   1.305   6.103  10.835 -0.2032 -0.2748 -0.7927
   43DOPE   H7S 5468   1.323   5.918  10.816  0.9341  0.0859  1.2311
   43DOPE   C28 5469   1.206   5.980  10.990 -0.0140 -0.2543  0.2707
   43DOPE   H8R 5470   1.126   5.902  10.989 -1.2878  1.0008  0.6930
   43DOPE   H8S 5471   1.151   6.066  11.034 -1.0820 -1.1345  0.7180
   43DOPE   C29 5472   1.321   5.928  11.076  0.8405  0.3309  0.3487
   43DOPE   H9R 5473   1.401   5.874  11.022  1.1015  0.8692  0.1935
   43DOPE  C210 5474   1.325   5.927  11.212 -0.2725 -0.6821 -0.0220
   43DOPE  H10R 5475   1.419   5.898  11.262 -0.2551  0.2884  0.5317
   43DOPE  C211 5476   1.231   6.000  11.299 -0.7639 -0.4443 -0.3515
   43DOPE  H11R 5477   1.127   5.960  11.295 -1.0559  0.0909  1.0535
   43DOPE  H11S 5478   1.237   6.107  11.270  0.3848 -0.2081  0.6455
   43DOPE  C212 5479   1.282   5.988  11.446 -0.0734 -0.0369  0.1877
   43DOPE  H12R 5480   1.390   6.010  11.453  0.0085 -0.7791  1.6574
   43DOPE  H12S 5481   1.263   5.882  11.472 -0.2466  0.2792  1.4410
   43DOPE  C213 5482   1.197   6.082  11.535 -0.3928 -0.3541 -0.4045
   43DOPE  H13R 5483   1.092   6.057  11.509 -1.2695  1.5483  1.0280
   43DOPE  H13S 5484   1.207   6.185  11.493  1.7892 -0.4558 -0.2514
   43DOPE  C214 5485   1.235   6.081  11.683  0.1374  0.4867  0.0158
   43DOPE  H14R 5486   1.144   6.122  11.733  0.0390  0.8588 -0.4512
   43DOPE  H14S 5487   1.314   6.159  11.688  0.3833  0.2103  0.5584
   43DOPE  C215 5488   1.280   5.950  11.744 -0.0042 -0.1503  0.6612
   43DOPE  H15R 5489   1.356   5.913  11.672 -1.2487  2.5537 -2.3124
   43DOPE  H15S 5490   1.196   5.877  11.737  1.0383 -1.2852 -0.4266
   43DOPE  C216 5491   1.342   5.955  11.882 -0.5728  0.0769 -0.6697
   43DOPE  H16R 5492   1.352   5.857  11.932 -0.0520  0.2109 -0.5044
   43DOPE  H16S 5493   1.285   6.027  11.945 -1.1338  0.3460 -1.4622
   43DOPE  C217 5494   1.483   6.017  11.883 -0.2693  0.0987 -0.1743
   43DOPE  H17R 5495   1.485   6.117  11.834  1.3704  0.3267  0.3039
   43DOPE  H17S 5496   1.545   5.950  11.821  0.3877 -1.0680  1.6739
   43DOPE  C218 5497   1.520   6.029  12.029  0.1461  0.6711 -0.0517
   43DOPE  H18R 5498   1.455   6.100  12.084 -1.2856 -0.3932 -0.3066
   43DOPE  H18S 5499   1.630   6.047  12.036  0.5644 -0.6408 -2.3672
   43DOPE  H18T 5500   1.502   5.928  12.072 -0.6376  0.8504  0.0544
   43DOPE   C33 5501   0.513   5.920  10.316  0.2208  0.5475  0.9328
   43DOPE   H3X 5502   0.453   5.890  10.404 -1.0704 -0.7212 -0.3148
   43DOPE   H3Y 5503   0.542   6.026  10.332  0.6263  0.4453  0.8868
   43DOPE   C34 5504   0.644   5.835  10.339 -0.7306 -0.1537  0.3699
   43DOPE   H4X 5505   0.612   5.730  10.354 -2.0880 -0.1491 -1.9787
   43DOPE   H4Y 5506   0.716   5.839  10.255  2.0792 -1.8226  2.5148
   43DOPE   C35 5507   0.723   5.877  10.458 -0.2048 -0.5260 -0.4412
   43DOPE   H5X 5508   0.760   5.981  10.446 -0.6188 -0.3451 -0.1785
   43DOPE   H5Y 5509   0.809   5.809  10.475 -2.7945 -3.8098  0.5763
   43DOPE   C36 5510   0.643   5.879  10.592 -0.6739  0.3278 -0.4390
   43DOPE   H6X 5511   0.575   5.791  10.601 -0.5178  0.0627 -1.6443
   43DOPE   H6Y 5512   0.575   5.966  10.591 -1.2785 -0.1230  0.1977
   43DOPE   C37 5513   0.737   5.882  10.713 -0.1362 -0.1422  0.3379
   43DOPE   H7X 5514   0.745   5.784  10.765 -3.6042 -0.1835  1.0257
   43DOPE   H7Y 5515   0.834   5.924  10.679  0.8815 -1.7635  1.1262
   43DOPE   C38 5516   0.686   5.980  10.827 -0.7419  0.4788  0.2923
   43DOPE   H8X 5517   0.593   5.941  10.874 -0.2097 -0.8110  0.3036
   43DOPE   H8Y 5518   0.665   6.082  10.787  1.2014  0.6058 -0.5404
   43DOPE   C39 5519   0.789   6.001  10.937  0.5451  1.0261  0.2144
   43DOPE   H9X 5520   0.867   6.075  10.915  0.4870  0.7445 -0.9800
   43DOPE  C310 5521   0.782   5.946  11.055  0.2354  0.1596 -0.3491
   43DOPE  H10X 5522   0.870   5.961  11.121  0.2941 -0.1093 -0.3653
   43DOPE  C311 5523   0.688   5.840  11.106  0.4638  0.3212  0.5067
   43DOPE  H11X 5524   0.584   5.875  11.118  0.9704  1.3021  2.6865
   43DOPE  H11Y 5525   0.680   5.760  11.030 -0.6127  1.8714 -1.0848
   43DOPE  C312 5526   0.722   5.785  11.245  0.0937  0.7782  0.0536
   43DOPE  H12X 5527   0.831   5.764  11.245 -0.3053 -1.6343 -0.9068
   43DOPE  H12Y 5528   0.658   5.697  11.268  0.3408  0.8092  0.8580
   43DOPE  C313 5529   0.700   5.891  11.361 -0.1508  0.8269  0.0845
   43DOPE  H13X 5530   0.752   5.986  11.335 -2.1436  2.2084  0.8478
   43DOPE  H13Y 5531   0.590   5.899  11.371 -0.2882 -0.9144  0.1299
   43DOPE  C314 5532   0.753   5.834  11.494  0.0528  0.0732 -0.0627
   43DOPE  H14X 5533   0.863   5.829  11.477  0.5498 -0.9609  2.8792
   43DOPE  H14Y 5534   0.713   5.733  11.515 -2.4321  0.6696 -1.4626
   43DOPE  C315 5535   0.738   5.928  11.619 -0.6818 -0.3274  0.5019
   43DOPE  H15X 5536   0.638   5.909  11.664 -0.6870  0.0163  0.6410
   43DOPE  H15Y 5537   0.755   6.035  11.591  0.5452 -0.3597  1.0854
   43DOPE  C316 5538   0.837   5.893  11.731  0.3048 -0.0491  0.2140
   43DOPE  H16X 5539   0.836   5.970  11.811  0.7054  0.6157 -0.4151
   43DOPE  H16Y 5540   0.943   5.887  11.699  0.4555  0.5843  0.5786
   43DOPE  C317 5541   0.817   5.745  11.788 -0.2821  0.3016  0.1093
   43DOPE  H17X 5542   0.817   5.673  11.703  0.4513 -0.2700  0.5884
   43DOPE  H17Y 5543   0.911   5.718  11.840  2.0072  0.4181 -3.5632
   43DOPE  C318 5544   0.697   5.736  11.874  0.5406 -0.0548 -1.1505
   43DOPE  H18X 5545   0.710   5.812  11.954  2.0724  2.7405 -3.8452
   43DOPE  H18Y 5546   0.601   5.748  11.819 -0.7156 -0.1958  0.9347
   43DOPE  H18Z 5547   0.698   5.635  11.921 -1.3885  0.9460  1.2224
   44DOPE     N 5548   2.345   4.662   9.038  0.0400  0.2500 -0.4127
   44DOPE   HN1 5549   2.386   4.660   8.942 -2.1526 -0.7310 -1.4005
   44DOPE   HN2 5550   2.405   4.685   9.120  1.0049 -4.2053  0.4339
   44DOPE   HN3 5551   2.295   4.574   9.062  0.4793 -0.3331 -1.5520
   44DOPE   C12 5552   2.231   4.761   9.028  0.2331  0.2748 -0.3351
   44DOPE  H12A 5553   2.145   4.702   8.991 -0.6641  0.0830  1.9105
   44DOPE  H12B 5554   2.260   4.848   8.965  0.5100 -1.9286 -3.4707
   44DOPE   C11 5555   2.191   4.807   9.170  0.2313 -0.0173 -0.9663
   44DOPE  H11A 5556   2.150   4.723   9.230  0.1387  0.7553  0.0702
   44DOPE  H11B 5557   2.111   4.881   9.150 -0.3659 -0.3209  0.1954
   44DOPE     P 5558   2.380   4.810   9.360 -0.0884 -0.0292 -0.0333
   44DOPE   O13 5559   2.467   4.914   9.420  0.0481 -0.2918 -0.2671
   44DOPE   O14 5560   2.452   4.696   9.295 -0.5115  0.1817 -0.0970
   44DOPE   O11 5561   2.269   4.761   9.473  0.7511  0.1167  0.1543
   44DOPE   O12 5562   2.295   4.871   9.245  0.7605 -0.3564 -0.0313
   44DOPE    C1 5563   2.179   4.863   9.509  0.2327  0.7675 -0.4153
   44DOPE    HA 5564   2.086   4.813   9.543  0.0591  0.5559 -1.1621
   44DOPE    HB 5565   2.145   4.927   9.425 -1.0340  0.8351  0.1293
   44DOPE    C2 5566   2.217   4.942   9.633 -0.0819  0.2420 -0.4098
   44DOPE    HS 5567   2.326   4.963   9.625 -0.0565  0.4987  0.4939
   44DOPE   O21 5568   2.179   4.870   9.753  0.4951 -0.4522 -0.3115
   44DOPE   C21 5569   2.273   4.836   9.828  0.5111  0.2265  0.3223
   44DOPE   O22 5570   2.395   4.849   9.808 -0.2042 -0.4205  0.7037
   44DOPE   C22 5571   2.209   4.755   9.947 -0.1092  0.6042 -0.2153
   44DOPE   H2R 5572   2.118   4.701   9.911  1.0220 -1.4236 -0.1834
   44DOPE   H2S 5573   2.186   4.825  10.030  1.1652 -2.1375  2.6704
   44DOPE    C3 5574   2.144   5.083   9.632  0.5524 -0.0347  0.0214
   44DOPE    HX 5575   2.038   5.059   9.656  0.5959 -0.8312 -0.5444
   44DOPE    HY 5576   2.146   5.131   9.532 -1.0457  1.1004  0.4953
   44DOPE   O31 5577   2.184   5.171   9.736 -1.2227  0.0615 -0.5370
   44DOPE   C31 5578   2.251   5.282   9.709 -0.4589  0.1440 -0.2382
   44DOPE   O32 5579   2.290   5.320   9.602 -0.0491 -0.2112  0.4556
   44DOPE   C32 5580   2.282   5.360   9.837  0.3092  0.4033  0.3030
   44DOPE   H2X 5581   2.392   5.379   9.837  0.0404  2.2524  1.7307
   44DOPE   H2Y 5582   2.228   5.457   9.835  0.4870  0.4998 -0.1048
   44DOPE   C23 5583   2.297   4.642  10.015 -0.2403  0.7937  0.2250
   44DOPE   H3R 5584   2.395   4.681  10.050  0.7973 -1.5541  0.1300
   44DOPE   H3S 5585   2.313   4.565   9.937  2.5499  0.6568  0.8249
   44DOPE   C24 5586   2.233   4.593  10.140  0.9227  0.3156 -0.1437
   44DOPE   H4R 5587   2.129   4.561  10.121  0.3309  1.7775  0.5446
   44DOPE   H4S 5588   2.222   4.682  10.205 -1.0062  0.6709 -0.9157
   44DOPE   C25 5589   2.303   4.471  10.209 -0.3244 -0.2748 -0.1391
   44DOPE   H5R 5590   2.409   4.504  10.221 -0.7919  0.5874  2.0985
   44DOPE   H5S 5591   2.308   4.383  10.142  1.4849 -0.2764 -0.0560
   44DOPE   C26 5592   2.237   4.431  10.342  0.2831 -0.1935  0.2909
   44DOPE   H6R 5593   2.299   4.361  10.402 -1.3322 -0.7145  1.4052
   44DOPE   H6S 5594   2.139   4.379  10.332 -0.3649  1.1228 -0.4414
   44DOPE   C27 5595   2.211   4.543  10.443 -0.3960  0.5421  0.1317
   44DOPE   H7R 5596   2.152   4.624  10.396 -0.4743  1.5847  1.9143
   44DOPE   H7S 5597   2.300   4.601  10.477  0.4035 -1.2480  1.2277
   44DOPE   C28 5598   2.134   4.490  10.568  0.5810 -0.3909  0.1212
   44DOPE   H8R 5599   2.174   4.551  10.652  1.2223  1.6920 -1.6104
   44DOPE   H8S 5600   2.182   4.392  10.588  0.0980 -0.3318  1.7115
   44DOPE   C29 5601   1.982   4.472  10.579 -0.5266 -0.0239 -0.0176
   44DOPE   H9R 5602   1.935   4.415  10.497  1.5633 -1.3834 -0.3479
   44DOPE  C210 5603   1.905   4.484  10.690  0.1991  0.5067  0.7067
   44DOPE  H10R 5604   1.805   4.439  10.680  0.1764  0.9387 -1.5413
   44DOPE  C211 5605   1.943   4.550  10.819 -0.2799  1.2374  0.3391
   44DOPE  H11R 5606   1.894   4.649  10.830  0.2561  1.7556 -1.5837
   44DOPE  H11S 5607   2.048   4.581  10.801  0.0497 -0.2474 -0.4626
   44DOPE  C212 5608   1.923   4.456  10.936  0.1839  0.3195  0.0864
   44DOPE  H12R 5609   1.978   4.365  10.904 -1.8947 -1.0316  0.1692
   44DOPE  H12S 5610   1.816   4.429  10.943  0.5089 -0.6872  1.4878
   44DOPE  C213 5611   1.969   4.520  11.066  0.2267 -0.1642 -0.2283
   44DOPE  H13R 5612   1.925   4.622  11.073 -0.9203 -0.7183  1.0027
   44DOPE  H13S 5613   2.079   4.524  11.053  0.3461 -1.3573  0.3693
   44DOPE  C214 5614   1.939   4.428  11.174  0.4990 -0.1428 -0.1856
   44DOPE  H14R 5615   1.996   4.333  11.161  0.8346  0.3041 -2.3115
   44DOPE  H14S 5616   1.834   4.394  11.163  0.3052  0.1751  0.5998
   44DOPE  C215 5617   1.942   4.488  11.315 -0.3861  0.1575  0.1167
   44DOPE  H15R 5618   1.901   4.592  11.314  0.9615  0.7060  0.5484
   44DOPE  H15S 5619   2.046   4.508  11.347 -1.2113  1.2176  2.3902
   44DOPE  C216 5620   1.864   4.406  11.416 -0.8208  0.8402 -0.3025
   44DOPE  H16R 5621   1.884   4.297  11.403 -0.5612  1.0949 -2.3353
   44DOPE  H16S 5622   1.759   4.432  11.392 -1.8089 -2.0451  0.4356
   44DOPE  C217 5623   1.882   4.428  11.571  0.1187 -0.4750 -0.8245
   44DOPE  H17R 5624   1.991   4.448  11.575 -0.1290  0.7138  0.5956
   44DOPE  H17S 5625   1.858   4.340  11.633 -2.2731  0.5096 -0.2535
   44DOPE  C218 5626   1.813   4.557  11.636  0.3078  0.5049  0.0489
   44DOPE  H18R 5627   1.828   4.570  11.746  0.3371  0.1200  0.0905
   44DOPE  H18S 5628   1.704   4.544  11.619  0.5369  1.0800 -2.1974
   44DOPE  H18T 5629   1.841   4.644  11.572 -2.3341 -0.1311 -2.1414
   44DOPE   C33 5630   2.268   5.275   9.967 -0.0119 -0.6644  0.8467
   44DOPE   H3X 5631   2.324   5.181   9.946 -0.0959 -0.6031  0.3353
   44DOPE   H3Y 5632   2.162   5.263   9.997 -0.7779  2.0855 -0.4527
   44DOPE   C34 5633   2.330   5.345  10.091  0.1323  0.0204  0.1292
   44DOPE   H4X 5634   2.329   5.274  10.176  0.2857 -1.6036 -1.1807
   44DOPE   H4Y 5635   2.435   5.378  10.072 -0.0885  1.2709  0.9918
   44DOPE   C35 5636   2.245   5.464  10.136 -0.9767 -0.0234  0.0744
   44DOPE   H5X 5637   2.135   5.449  10.128 -1.2770  1.8895  0.2501
   44DOPE   H5Y 5638   2.263   5.548  10.067 -0.6839  0.5358  0.8157
   44DOPE   C36 5639   2.258   5.504  10.282 -0.4211  0.3580  0.0382
   44DOPE   H6X 5640   2.210   5.420  10.336 -0.9659  0.3969 -0.3867
   44DOPE   H6Y 5641   2.206   5.599  10.306 -1.7918 -0.4379  0.2669
   44DOPE   C37 5642   2.405   5.499  10.331 -0.0648 -0.3578 -0.0594
   44DOPE   H7X 5643   2.435   5.395  10.353 -2.2665 -0.7396  1.4877
   44DOPE   H7Y 5644   2.472   5.532  10.249 -2.4650  2.0692 -1.2265
   44DOPE   C38 5645   2.439   5.562  10.465  0.5521 -0.7335 -0.2153
   44DOPE   H8X 5646   2.547   5.549  10.486  0.2739 -0.9588  1.1936
   44DOPE   H8Y 5647   2.379   5.509  10.542 -0.4384  1.8926  0.9486
   44DOPE   C39 5648   2.394   5.707  10.448  0.7382 -0.3560  0.2795
   44DOPE   H9X 5649   2.432   5.749  10.354 -1.0964  1.1834  0.1612
   44DOPE  C310 5650   2.305   5.782  10.523 -0.5159  0.4339  0.2409
   44DOPE  H10X 5651   2.278   5.880  10.483 -0.3714 -0.4615 -2.1816
   44DOPE  C311 5652   2.239   5.735  10.651 -0.3041  0.1879 -0.1017
   44DOPE  H11X 5653   2.136   5.709  10.617  0.1129 -0.2351 -1.0723
   44DOPE  H11Y 5654   2.280   5.639  10.690  0.3154  0.1077 -0.9210
   44DOPE  C312 5655   2.225   5.850  10.755  0.9138 -0.3191  0.0424
   44DOPE  H12X 5656   2.176   5.939  10.709 -1.9857 -1.3327  0.9554
   44DOPE  H12Y 5657   2.326   5.884  10.785  0.4182 -0.0424  1.4584
   44DOPE  C313 5658   2.132   5.813  10.870 -0.0087  0.4614 -0.2777
   44DOPE  H13X 5659   2.040   5.765  10.830 -0.7873  1.1037  0.7217
   44DOPE  H13Y 5660   2.176   5.730  10.929 -0.1983 -1.9071 -3.2024
   44DOPE  C314 5661   2.099   5.931  10.968 -1.1354  0.7234  0.2090
   44DOPE  H14X 5662   2.026   5.991  10.911 -1.6907  1.5127  1.6870
   44DOPE  H14Y 5663   2.187   5.997  10.979 -0.4903 -0.1436  0.4266
   44DOPE  C315 5664   2.030   5.885  11.097  0.2321  0.0252  0.0887
   44DOPE  H15X 5665   2.100   5.810  11.140 -1.2867 -1.5879 -0.1356
   44DOPE  H15Y 5666   1.942   5.821  11.075  1.1876 -2.0314  1.8602
   44DOPE  C316 5667   2.023   6.004  11.195  0.4260  0.6656 -0.2948
   44DOPE  H16X 5668   1.951   6.073  11.147 -1.6575 -1.4084 -0.2741
   44DOPE  H16Y 5669   2.118   6.063  11.200 -0.7407  2.5858  0.1185
   44DOPE  C317 5670   1.968   5.992  11.335  0.3430 -0.1404  0.1448
   44DOPE  H17X 5671   1.862   5.957  11.329  0.2933 -0.0618  0.5697
   44DOPE  H17Y 5672   2.021   5.917  11.397 -0.6757 -1.1461 -0.1608
   44DOPE  C318 5673   1.976   6.122  11.407  0.2668  0.0054 -0.4853
   44DOPE  H18X 5674   1.932   6.108  11.508 -0.0791 -1.5278 -0.8145
   44DOPE  H18Y 5675   2.079   6.159  11.422 -0.4124  1.1328  1.7926
   44DOPE  H18Z 5676   1.920   6.196  11.345 -1.4324 -1.5298 -0.8827
   45DOPE     N 5677   2.097   3.301  10.291 -0.0930  0.1081  1.1203
   45DOPE   HN1 5678   2.051   3.304  10.198  1.7427  0.9047  0.1961
   45DOPE   HN2 5679   2.199   3.317  10.275 -0.3444  0.3851 -0.4004
   45DOPE   HN3 5680   2.094   3.200  10.314 -0.0244 -0.2073 -0.1652
   45DOPE   C12 5681   2.028   3.383  10.394 -0.3738  0.1968 -0.0466
   45DOPE  H12A 5682   2.052   3.328  10.487 -0.6482 -0.3442 -0.2897
   45DOPE  H12B 5683   1.918   3.370  10.382 -0.1247 -1.6557 -0.5923
   45DOPE   C11 5684   2.053   3.530  10.376  0.7503  0.4496  0.7911
   45DOPE  H11A 5685   2.155   3.549  10.417  0.7899  0.8951  0.4862
   45DOPE  H11B 5686   1.987   3.583  10.447  0.2346  0.2067  0.4958
   45DOPE     P 5687   2.133   3.638  10.153 -0.0264 -0.0889 -0.1386
   45DOPE   O13 5688   2.058   3.711  10.047 -0.8366 -0.0453 -0.0906
   45DOPE   O14 5689   2.229   3.538  10.105  0.5208 -0.4602 -0.0196
   45DOPE   O11 5690   2.214   3.738  10.243  0.4265 -0.0198 -0.2116
   45DOPE   O12 5691   2.029   3.575  10.245  0.0960 -0.1459 -0.1599
   45DOPE    C1 5692   2.135   3.853  10.301 -0.4490 -0.4294 -0.0876
   45DOPE    HA 5693   2.082   3.821  10.393  2.0105 -1.7470  0.9459
   45DOPE    HB 5694   2.069   3.904  10.227 -0.5641  1.1323  1.0338
   45DOPE    C2 5695   2.234   3.963  10.350  0.0505 -0.2965 -0.3719
   45DOPE    HS 5696   2.301   3.979  10.263 -1.3774 -0.8632 -1.6204
   45DOPE   O21 5697   2.303   3.916  10.464  0.2080  0.1928 -0.3731
   45DOPE   C21 5698   2.407   3.992  10.502 -1.2529 -0.0337 -0.8484
   45DOPE   O22 5699   2.448   4.084  10.438 -0.0646 -0.1093  0.6331
   45DOPE   C22 5700   2.472   3.954  10.639  0.0251 -0.0296  0.1549
   45DOPE   H2R 5701   2.485   4.050  10.693  2.4179  1.1761 -2.3037
   45DOPE   H2S 5702   2.575   3.920  10.614  1.2026  2.0209  1.9595
   45DOPE    C3 5703   2.153   4.091  10.387 -0.2919  0.3512 -0.5804
   45DOPE    HX 5704   2.109   4.144  10.300 -1.5447  0.7620  0.2741
   45DOPE    HY 5705   2.223   4.158  10.441 -0.1108 -0.8501  0.7224
   45DOPE   O31 5706   2.043   4.054  10.473 -0.4454 -0.1210 -0.3834
   45DOPE   C31 5707   2.064   4.056  10.603  0.0029  0.1995 -0.4716
   45DOPE   O32 5708   2.164   4.094  10.665  0.2201 -0.1040  0.1219
   45DOPE   C32 5709   1.934   4.026  10.686  0.5035 -0.2582  0.2269
   45DOPE   H2X 5710   1.942   4.076  10.785  1.4723 -1.1117  0.6070
   45DOPE   H2Y 5711   1.844   4.061  10.631  1.5457  1.6706 -0.3428
   45DOPE   C23 5712   2.412   3.856  10.741 -0.1090 -0.1977 -0.8907
   45DOPE   H3R 5713   2.363   3.778  10.678 -1.5229  1.7772 -2.3649
   45DOPE   H3S 5714   2.334   3.900  10.807  0.7355 -0.9363  0.6471
   45DOPE   C24 5715   2.534   3.802  10.824  1.0214 -0.1555  0.0958
   45DOPE   H4R 5716   2.622   3.778  10.760  0.2360  1.5325 -1.7586
   45DOPE   H4S 5717   2.513   3.706  10.874  0.5764  0.5469  1.2971
   45DOPE   C25 5718   2.566   3.902  10.937  0.6637 -0.1651 -0.2618
   45DOPE   H5R 5719   2.476   3.960  10.967  0.8852  0.3880 -0.6465
   45DOPE   H5S 5720   2.629   3.985  10.898  2.7029 -1.0491  0.9843
   45DOPE   C26 5721   2.625   3.838  11.061 -0.5687  0.4751 -0.0346
   45DOPE   H6R 5722   2.658   3.924  11.122  3.0302 -0.4603 -0.4489
   45DOPE   H6S 5723   2.716   3.779  11.037 -0.4169 -0.5247  2.6639
   45DOPE   C27 5724   2.532   3.742  11.139 -1.0183 -0.2834  0.7098
   45DOPE   H7R 5725   2.598   3.696  11.216  0.5538 -0.6457 -0.7747
   45DOPE   H7S 5726   2.503   3.656  11.074 -0.0395  0.9751 -1.4942
   45DOPE   C28 5727   2.411   3.818  11.195 -0.0892  0.4508 -0.5513
   45DOPE   H8R 5728   2.352   3.875  11.120  1.6396  1.6134 -1.0664
   45DOPE   H8S 5729   2.444   3.899  11.264  2.8949 -1.7859  0.8512
   45DOPE   C29 5730   2.326   3.718  11.270  0.2158 -0.0179  0.2068
   45DOPE   H9R 5731   2.268   3.656  11.199 -1.2756 -0.0332  1.3821
   45DOPE  C210 5732   2.300   3.719  11.404 -0.0005 -0.3753 -0.5307
   45DOPE  H10R 5733   2.237   3.645  11.456  0.4791  0.4915  1.4044
   45DOPE  C211 5734   2.326   3.821  11.514 -0.0428 -0.0396  0.0811
   45DOPE  H11R 5735   2.229   3.872  11.526  0.4294  0.8092  0.3729
   45DOPE  H11S 5736   2.397   3.898  11.477 -0.9254  0.6064 -0.2975
   45DOPE  C212 5737   2.363   3.761  11.646 -0.0579  0.3642 -0.0028
   45DOPE  H12R 5738   2.470   3.732  11.652 -0.3903 -0.9532 -0.0392
   45DOPE  H12S 5739   2.292   3.681  11.677 -1.5751  1.4457 -0.5262
   45DOPE  C213 5740   2.344   3.855  11.770 -0.1443 -0.2386 -0.2582
   45DOPE  H13R 5741   2.235   3.855  11.791  0.0655  0.8704  1.0015
   45DOPE  H13S 5742   2.383   3.957  11.747 -0.9202  0.0807 -0.1966
   45DOPE  C214 5743   2.415   3.801  11.888 -0.0155 -0.4506 -0.2347
   45DOPE  H14R 5744   2.524   3.801  11.864  0.3799  0.5753  1.4497
   45DOPE  H14S 5745   2.394   3.692  11.899  1.0435 -0.4402  2.5443
   45DOPE  C215 5746   2.382   3.880  12.018 -0.8633 -0.9242  0.1495
   45DOPE  H15R 5747   2.284   3.856  12.064 -2.1299 -0.4210 -2.1492
   45DOPE  H15S 5748   2.363   3.985  11.988  1.5035 -0.4879 -0.0232
   45DOPE  C216 5749   2.497   3.889  12.120  0.0405 -0.6208 -0.9525
   45DOPE  H16R 5750   2.586   3.931  12.068 -0.4783 -1.0965 -2.2642
   45DOPE  H16S 5751   2.520   3.783  12.143  2.1906  0.0859  0.4635
   45DOPE  C217 5752   2.465   3.970  12.249 -0.2983 -0.1782 -0.9040
   45DOPE  H17R 5753   2.373   3.932  12.298 -0.3817  0.7829 -0.2954
   45DOPE  H17S 5754   2.451   4.073  12.209  2.4408  0.3713 -0.5847
   45DOPE  C218 5755   2.573   3.967  12.356 -0.0590 -0.3459  0.0545
   45DOPE  H18R 5756   2.568   3.873  12.414 -0.9579 -2.1119 -2.6696
   45DOPE  H18S 5757   2.579   4.044  12.436  1.6069 -1.7589  1.3716
   45DOPE  H18T 5758   2.673   3.946  12.312  0.0622 -1.4017  0.7962
   45DOPE   C33 5759   1.915   3.870  10.697 -0.0157 -0.2346 -0.2849
   45DOPE   H3X 5760   1.950   3.816  10.606 -0.4382 -2.0317  0.5834
   45DOPE   H3Y 5761   1.808   3.842  10.701 -0.5132  1.1664 -2.1728
   45DOPE   C34 5762   2.008   3.816  10.804 -0.0485 -0.7345 -0.3106
   45DOPE   H4X 5763   2.032   3.711  10.775  0.0237 -0.5027 -1.1323
   45DOPE   H4Y 5764   2.099   3.879  10.800  0.6321 -1.5059  1.7706
   45DOPE   C35 5765   1.952   3.822  10.946 -0.2950 -0.7549  0.5794
   45DOPE   H5X 5766   1.861   3.758  10.956 -0.4811 -0.6608 -0.4107
   45DOPE   H5Y 5767   1.911   3.922  10.972  1.8872  0.6659 -1.1263
   45DOPE   C36 5768   2.046   3.773  11.062  0.6959 -0.1621 -0.1742
   45DOPE   H6X 5769   2.123   3.853  11.065 -0.3037  0.8672  3.3200
   45DOPE   H6Y 5770   2.106   3.684  11.034  2.7103  0.5774  1.4951
   45DOPE   C37 5771   1.969   3.746  11.192 -0.1576 -0.2584  0.1648
   45DOPE   H7X 5772   1.881   3.679  11.186  0.9586 -1.7814  0.0222
   45DOPE   H7Y 5773   2.037   3.684  11.255 -1.2281 -2.0320 -0.3484
   45DOPE   C38 5774   1.925   3.874  11.269  0.0894  0.0413 -0.1093
   45DOPE   H8X 5775   1.878   3.949  11.202 -0.9309  1.1274  1.7292
   45DOPE   H8Y 5776   2.013   3.920  11.319 -1.5473  0.9444  2.1510
   45DOPE   C39 5777   1.819   3.830  11.376 -0.7724  0.3092  0.1274
   45DOPE   H9X 5778   1.728   3.785  11.335 -0.7332  1.8596 -1.8035
   45DOPE  C310 5779   1.832   3.839  11.512  0.5720  0.5191 -0.0276
   45DOPE  H10X 5780   1.747   3.794  11.565  1.4032 -1.0987  0.0003
   45DOPE  C311 5781   1.949   3.888  11.591  0.1681 -0.8021  0.3771
   45DOPE  H11X 5782   2.011   3.802  11.622 -0.0610 -0.9896  0.3105
   45DOPE  H11Y 5783   2.006   3.958  11.525 -1.6442 -0.5550 -1.0088
   45DOPE  C312 5784   1.920   3.946  11.727 -1.1130 -0.4267  0.2996
   45DOPE  H12X 5785   1.857   4.037  11.715 -0.8484 -0.4269 -1.3345
   45DOPE  H12Y 5786   2.020   3.985  11.756 -0.4632  1.4508 -3.7891
   45DOPE  C313 5787   1.863   3.836  11.822  0.5868 -0.2423 -0.3993
   45DOPE  H13X 5788   1.762   3.804  11.790 -0.6330  0.2433  2.6498
   45DOPE  H13Y 5789   1.931   3.749  11.830  0.5026 -0.6044 -2.7574
   45DOPE  C314 5790   1.846   3.899  11.961  1.0039  0.8102 -0.0546
   45DOPE  H14X 5791   1.766   3.853  12.023  1.0810  2.0737  1.0467
   45DOPE  H14Y 5792   1.803   4.001  11.948  0.3639  0.1709 -4.1394
   45DOPE  C315 5793   1.975   3.907  12.049  0.3360  0.0442 -0.5121
   45DOPE  H15X 5794   2.048   3.970  11.992  3.0757 -2.1743  0.3130
   45DOPE  H15Y 5795   2.019   3.805  12.054  0.8462  0.3265  1.7674
   45DOPE  C316 5796   1.959   3.947  12.194  1.4565 -0.0779 -0.5226
   45DOPE  H16X 5797   1.895   3.868  12.239  1.9757  0.4442  1.2044
   45DOPE  H16Y 5798   1.891   4.035  12.189 -1.0896 -1.9429 -0.4863
   45DOPE  C317 5799   2.085   3.961  12.267  0.2846 -0.4493  1.1275
   45DOPE  H17X 5800   2.137   3.863  12.262  0.6343 -0.2090 -1.2788
   45DOPE  H17Y 5801   2.143   4.040  12.215 -0.0356 -1.7926 -1.4292
   45DOPE  C318 5802   2.064   3.988  12.415 -1.2378 -0.0354  0.1436
   45DOPE  H18X 5803   2.153   4.027  12.469 -0.3711 -2.9833  1.0270
   45DOPE  H18Y 5804   1.976   4.056  12.417 -2.6346 -1.7752  0.4187
   45DOPE  H18Z 5805   2.032   3.899  12.473 -0.1529 -0.5767 -0.0567
   46DOPE     N 5806   2.214   2.039   9.993 -0.2613 -0.3171  0.3579
   46DOPE   HN1 5807   2.317   2.038  10.008  0.0631  2.4503 -0.9393
   46DOPE   HN2 5808   2.176   1.961   9.937  0.1398 -1.9047  2.2000
   46DOPE   HN3 5809   2.192   2.125   9.939 -0.9187 -0.6522  0.0793
   46DOPE   C12 5810   2.143   2.045  10.126  0.2605  0.2014 -0.0524
   46DOPE  H12A 5811   2.139   1.942  10.168  1.8486 -0.0891 -0.5500
   46DOPE  H12B 5812   2.039   2.077  10.105  0.7834  1.2063 -1.2542
   46DOPE   C11 5813   2.209   2.149  10.226  0.3004  0.0974  0.8825
   46DOPE  H11A 5814   2.297   2.092  10.263 -1.7393 -2.9091  1.4742
   46DOPE  H11B 5815   2.151   2.173  10.318 -2.8543 -0.3545 -0.8266
   46DOPE     P 5816   2.338   2.375  10.209  0.2698 -0.1160  0.2597
   46DOPE   O13 5817   2.342   2.491  10.120  0.2891 -0.2047 -0.1895
   46DOPE   O14 5818   2.470   2.315  10.230  0.3916  0.5457 -0.4641
   46DOPE   O11 5819   2.273   2.432  10.343  0.1556  0.6064 -0.1321
   46DOPE   O12 5820   2.240   2.266  10.149  0.8974  0.1252 -0.0058
   46DOPE    C1 5821   2.145   2.499  10.334 -0.4879 -0.1744  0.1244
   46DOPE    HA 5822   2.070   2.446  10.271 -0.1309 -0.4743 -0.0497
   46DOPE    HB 5823   2.155   2.603  10.296 -1.3001 -0.0077  0.3509
   46DOPE    C2 5824   2.078   2.512  10.471 -0.4831  0.3710 -0.5402
   46DOPE    HS 5825   1.982   2.564  10.450 -0.5225  0.1100 -1.0086
   46DOPE   O21 5826   2.163   2.588  10.555  0.1261 -0.2080  0.2398
   46DOPE   C21 5827   2.100   2.628  10.667 -0.5078 -0.3403 -0.7305
   46DOPE   O22 5828   1.984   2.619  10.697  0.0611  0.0943  0.3302
   46DOPE   C22 5829   2.207   2.708  10.749 -0.1239  0.0450 -0.6799
   46DOPE   H2R 5830   2.250   2.785  10.681  1.4007 -0.9475 -0.8856
   46DOPE   H2S 5831   2.278   2.631  10.786  1.1418  1.7180  0.5268
   46DOPE    C3 5832   2.041   2.364  10.523  0.3362  0.5097  0.3014
   46DOPE    HX 5833   2.138   2.310  10.526  1.4649  2.4822  0.8042
   46DOPE    HY 5834   1.985   2.322  10.436  1.3571  1.6913 -0.9802
   46DOPE   O31 5835   1.984   2.348  10.651 -0.0454  0.6448  0.2494
   46DOPE   C31 5836   1.850   2.334  10.658  0.3129  0.0398  0.6401
   46DOPE   O32 5837   1.786   2.290  10.559  0.3647 -0.2737  0.0172
   46DOPE   C32 5838   1.790   2.365  10.791 -0.2440 -0.2960  0.4717
   46DOPE   H2X 5839   1.768   2.471  10.818 -3.1607 -1.1921  1.9700
   46DOPE   H2Y 5840   1.689   2.322  10.782  0.9478 -2.9777 -1.4563
   46DOPE   C23 5841   2.144   2.789  10.868 -0.2611  0.6634  0.4616
   46DOPE   H3R 5842   2.082   2.864  10.813  1.1117 -0.4887 -2.9424
   46DOPE   H3S 5843   2.237   2.834  10.910  1.6117 -0.3240 -2.3341
   46DOPE   C24 5844   2.062   2.712  10.968  0.0569  0.9075 -0.2130
   46DOPE   H4R 5845   2.091   2.605  10.976 -1.3024  0.4974 -0.5444
   46DOPE   H4S 5846   1.956   2.710  10.937 -0.4096 -0.1508  1.3375
   46DOPE   C25 5847   2.066   2.778  11.110 -0.1821  0.3727 -0.7555
   46DOPE   H5R 5848   2.027   2.882  11.113 -0.7633  0.1904 -1.5040
   46DOPE   H5S 5849   2.174   2.777  11.138 -0.0369 -3.3512 -0.9660
   46DOPE   C26 5850   1.979   2.698  11.217 -0.1142 -0.1555  0.1760
   46DOPE   H6R 5851   2.012   2.593  11.203 -0.4324 -0.3358  0.7440
   46DOPE   H6S 5852   1.873   2.690  11.185 -0.4392 -3.1448  1.6877
   46DOPE   C27 5853   2.000   2.753  11.362  1.2294 -0.0776  0.2158
   46DOPE   H7R 5854   1.958   2.856  11.364  1.7680  0.1607 -0.3858
   46DOPE   H7S 5855   2.111   2.762  11.366  1.4257 -1.1739 -1.4826
   46DOPE   C28 5856   1.947   2.671  11.479 -0.3621 -0.3641 -0.5684
   46DOPE   H8R 5857   2.013   2.582  11.489  2.1355  1.2635 -1.4017
   46DOPE   H8S 5858   1.844   2.637  11.457 -0.5521  1.2153 -2.3572
   46DOPE   C29 5859   1.945   2.743  11.618 -0.1519  0.4823 -0.7155
   46DOPE   H9R 5860   1.900   2.843  11.611 -0.0442  0.4276 -2.6102
   46DOPE  C210 5861   2.001   2.697  11.733  0.3825 -0.0440  0.0064
   46DOPE  H10R 5862   1.999   2.754  11.827 -0.5220  0.5781 -0.3825
   46DOPE  C211 5863   2.065   2.557  11.758 -0.1314  0.3202 -0.6545
   46DOPE  H11R 5864   2.171   2.578  11.780 -0.4372  0.8951  0.3287
   46DOPE  H11S 5865   2.073   2.494  11.666  2.0698 -1.3048  0.5696
   46DOPE  C212 5866   2.017   2.469  11.877  0.2789  0.5310  0.2730
   46DOPE  H12R 5867   2.072   2.373  11.865  0.1439  0.1197  2.4723
   46DOPE  H12S 5868   1.907   2.456  11.873  0.5998 -3.0176  0.1639
   46DOPE  C213 5869   2.057   2.523  12.015 -0.0900 -0.1702  0.6057
   46DOPE  H13R 5870   2.025   2.629  12.028  1.7351  0.3142  1.4759
   46DOPE  H13S 5871   2.167   2.538  12.007  0.0100 -0.4574  1.3985
   46DOPE  C214 5872   2.021   2.435  12.138 -0.3898 -0.1609  0.0854
   46DOPE  H14R 5873   1.911   2.422  12.140 -0.7741  1.5594 -2.9771
   46DOPE  H14S 5874   2.045   2.494  12.229 -1.1745  2.6582 -1.4065
   46DOPE  C215 5875   2.099   2.305  12.149 -0.5728  0.3661 -0.1325
   46DOPE  H15R 5876   2.208   2.314  12.166 -0.5066  0.3114 -0.5311
   46DOPE  H15S 5877   2.083   2.244  12.057 -0.5603  1.1623 -0.6685
   46DOPE  C216 5878   2.017   2.215  12.252  0.0207  0.3677 -0.6987
   46DOPE  H16R 5879   1.914   2.209  12.212 -0.3332  0.1166  0.2382
   46DOPE  H16S 5880   2.008   2.263  12.352 -1.4327  0.0207 -0.6442
   46DOPE  C217 5881   2.075   2.064  12.256  0.0366  1.1361 -0.2928
   46DOPE  H17R 5882   2.088   2.026  12.152  4.7459 -1.9402  1.1351
   46DOPE  H17S 5883   1.996   2.000  12.301 -0.0835 -0.6381 -2.8395
   46DOPE  C218 5884   2.209   2.047  12.329  0.4338 -0.0344 -0.0012
   46DOPE  H18R 5885   2.273   2.137  12.315 -1.4877  1.5907  1.0897
   46DOPE  H18S 5886   2.267   1.967  12.279 -0.7746  0.1653 -1.8395
   46DOPE  H18T 5887   2.196   2.027  12.438 -2.2878 -1.8299 -0.5695
   46DOPE   C33 5888   1.854   2.292  10.910  0.3061  0.4946 -0.1888
   46DOPE   H3X 5889   1.961   2.320  10.918  1.2444 -2.9889  0.7070
   46DOPE   H3Y 5890   1.868   2.185  10.884  2.6216  0.9179 -0.9316
   46DOPE   C34 5891   1.788   2.304  11.052  0.4677  1.2504  0.5339
   46DOPE   H4X 5892   1.779   2.412  11.079  0.1773  0.9727  1.5796
   46DOPE   H4Y 5893   1.684   2.267  11.046 -0.0376  2.4114  1.7383
   46DOPE   C35 5894   1.866   2.222  11.158  0.4614  0.4483  0.2612
   46DOPE   H5X 5895   1.972   2.220  11.126 -0.1570 -0.2859 -1.8724
   46DOPE   H5Y 5896   1.839   2.115  11.149  1.3759  0.2480 -0.1998
   46DOPE   C36 5897   1.854   2.269  11.299 -0.6064  0.0871 -0.8391
   46DOPE   H6X 5898   1.746   2.275  11.328 -0.3653  1.2858 -0.0821
   46DOPE   H6Y 5899   1.891   2.374  11.310 -0.5720 -0.2028  3.7216
   46DOPE   C37 5900   1.926   2.166  11.396  0.4144 -0.8594  0.1327
   46DOPE   H7X 5901   1.864   2.074  11.403 -1.7390  0.5835  1.0426
   46DOPE   H7Y 5902   2.028   2.149  11.354  0.5292  0.5327 -0.2255
   46DOPE   C38 5903   1.938   2.227  11.538 -0.4599 -0.4569 -0.0151
   46DOPE   H8X 5904   2.003   2.317  11.540 -0.2594 -0.5864 -0.4463
   46DOPE   H8Y 5905   2.002   2.152  11.589 -2.0650 -1.8073  0.0919
   46DOPE   C39 5906   1.805   2.250  11.606 -0.4160 -0.1858  0.0587
   46DOPE   H9X 5907   1.737   2.330  11.571 -1.7940 -0.8533  1.0920
   46DOPE  C310 5908   1.760   2.185  11.713 -0.4363 -0.2903 -0.3434
   46DOPE  H10X 5909   1.665   2.222  11.753  0.6429  2.3278  0.0234
   46DOPE  C311 5910   1.831   2.066  11.777 -0.2894 -0.0718 -0.1776
   46DOPE  H11X 5911   1.826   1.971  11.719 -0.4686  0.5663 -1.2294
   46DOPE  H11Y 5912   1.940   2.086  11.786 -0.1441 -1.1002  0.5675
   46DOPE  C312 5913   1.789   2.054  11.927  0.3780 -0.0393 -0.2325
   46DOPE  H12X 5914   1.678   2.064  11.930  0.4330  0.3952  0.5635
   46DOPE  H12Y 5915   1.833   2.138  11.985  0.5734  0.2075 -0.7311
   46DOPE  C313 5916   1.823   1.911  11.975  0.5305 -1.1634 -0.0955
   46DOPE  H13X 5917   1.810   1.835  11.895 -0.1050  0.4115 -1.5392
   46DOPE  H13Y 5918   1.928   1.914  12.011  0.7499 -0.4025 -0.7969
   46DOPE  C314 5919   1.731   1.870  12.089 -1.0851  0.1735  0.3448
   46DOPE  H14X 5920   1.629   1.843  12.055 -1.3389  0.4483  0.8691
   46DOPE  H14Y 5921   1.706   1.958  12.153  2.0288  0.2018  1.7488
   46DOPE  C315 5922   1.784   1.765  12.183 -0.7647  0.4169  0.3297
   46DOPE  H15X 5923   1.732   1.776  12.280  1.0187  2.0236  1.1671
   46DOPE  H15Y 5924   1.890   1.794  12.199 -0.1531 -0.6582 -1.4608
   46DOPE  C316 5925   1.778   1.622  12.132  0.5248  0.1224  0.3641
   46DOPE  H16X 5926   1.806   1.621  12.025  2.0844  0.2956  0.7448
   46DOPE  H16Y 5927   1.671   1.592  12.133  0.4057  0.4575 -0.9870
   46DOPE  C317 5928   1.844   1.516  12.216  0.3023 -0.1839  0.7112
   46DOPE  H17X 5929   1.953   1.516  12.195  0.4392 -1.1376  1.3184
   46DOPE  H17Y 5930   1.828   1.537  12.324  1.5605  0.0148  0.8768
   46DOPE  C318 5931   1.790   1.371  12.185 -0.1759 -0.3562 -0.1203
   46DOPE  H18X 5932   1.788   1.351  12.076  0.5304 -1.3356  0.0237
   46DOPE  H18Y 5933   1.850   1.294  12.239 -2.1712 -0.4399  2.1175
   46DOPE  H18Z 5934   1.689   1.362  12.229 -0.4953  1.8584 -0.2843
   47DOPE     N 5935   0.955   1.094   9.819 -0.8676 -0.7925 -0.6160
   47DOPE   HN1 5936   0.988   1.187   9.788  0.1558 -0.0115  2.4547
   47DOPE   HN2 5937   0.983   1.073   9.917  2.0073 -2.5764 -1.6830
   47DOPE   HN3 5938   1.007   1.026   9.759  1.5382  0.4372 -0.0438
   47DOPE   C12 5939   0.807   1.088   9.807 -0.0840 -0.4671  0.0584
   47DOPE  H12A 5940   0.768   1.122   9.905  0.7714  0.6710  0.0231
   47DOPE  H12B 5941   0.771   0.983   9.795 -0.6031 -0.3297  0.3725
   47DOPE   C11 5942   0.755   1.170   9.689  0.1161  0.5045 -0.1890
   47DOPE  H11A 5943   0.646   1.152   9.693 -0.1452  2.2131  1.5287
   47DOPE  H11B 5944   0.799   1.133   9.593  0.4216 -2.1959  0.9022
   47DOPE     P 5945   0.704   1.422   9.773  0.0727  0.1890 -0.1661
   47DOPE   O13 5946   0.580   1.447   9.701 -0.2106 -0.2766  0.2521
   47DOPE   O14 5947   0.796   1.536   9.778 -0.6505  0.5907  0.2481
   47DOPE   O11 5948   0.667   1.351   9.907 -0.1749  0.2496  0.1530
   47DOPE   O12 5949   0.793   1.311   9.703  0.5408 -0.1433 -0.0659
   47DOPE    C1 5950   0.712   1.412  10.033 -1.1137  0.2046  0.0366
   47DOPE    HA 5951   0.808   1.468  10.035  0.3243 -2.1243  0.0021
   47DOPE    HB 5952   0.751   1.317  10.075  0.0597  0.6687  0.0402
   47DOPE    C2 5953   0.603   1.481  10.123  0.4485 -0.0461 -0.5553
   47DOPE    HS 5954   0.659   1.497  10.218 -0.6184  2.3440 -0.2627
   47DOPE   O21 5955   0.486   1.394  10.134 -0.2503 -0.2263  0.9544
   47DOPE   C21 5956   0.431   1.407  10.256  0.0982 -0.7558 -0.3056
   47DOPE   O22 5957   0.476   1.455  10.358 -0.2126 -0.3848  0.0332
   47DOPE   C22 5958   0.290   1.347  10.249 -0.4033 -0.0258  0.1360
   47DOPE   H2R 5959   0.305   1.247  10.202  2.1671  0.3724 -0.0199
   47DOPE   H2S 5960   0.232   1.409  10.177 -1.9505 -0.9773  0.5010
   47DOPE    C3 5961   0.559   1.624  10.068  0.5577  0.2409  0.0039
   47DOPE    HX 5962   0.466   1.629  10.006 -0.3461 -0.4399  1.2577
   47DOPE    HY 5963   0.634   1.668   9.999 -0.1110  0.9839 -0.2647
   47DOPE   O31 5964   0.544   1.711  10.183  0.3731  0.1861 -0.4134
   47DOPE   C31 5965   0.424   1.758  10.212  0.4455  0.2830 -0.1433
   47DOPE   O32 5966   0.316   1.723  10.170 -0.3318  0.3264 -0.1107
   47DOPE   C32 5967   0.437   1.860  10.329 -0.5234 -0.3966  0.3245
   47DOPE   H2X 5968   0.511   1.818  10.401 -1.4603 -1.3872  0.7455
   47DOPE   H2Y 5969   0.484   1.948  10.281  2.6831 -0.9004  2.2632
   47DOPE   C23 5970   0.212   1.338  10.388  0.0865  0.4518 -0.2920
   47DOPE   H3R 5971   0.223   1.434  10.441 -2.4073 -0.5801  2.3301
   47DOPE   H3S 5972   0.251   1.256  10.453 -1.3265 -2.2975 -2.6673
   47DOPE   C24 5973   0.062   1.302  10.365 -0.2946 -0.1748 -0.1378
   47DOPE   H4R 5974   0.061   1.213  10.299  0.9540 -1.0700  1.0247
   47DOPE   H4S 5975   0.020   1.387  10.306  1.9787  2.2790  1.5403
   47DOPE   C25 5976  -0.024   1.277  10.491 -0.3184 -0.6827 -0.1734
   47DOPE   H5R 5977   0.020   1.211  10.569  1.3623  0.2325 -0.2902
   47DOPE   H5S 5978  -0.113   1.217  10.462 -0.3050 -0.1767 -1.3254
   47DOPE   C26 5979  -0.078   1.403  10.566  0.3680  0.1401 -0.2204
   47DOPE   H6R 5980  -0.134   1.458  10.488  2.8808  1.5144 -1.1931
   47DOPE   H6S 5981   0.007   1.473  10.585 -0.7158  1.3710  0.2476
   47DOPE   C27 5982  -0.177   1.375  10.677 -0.0329 -0.6802  0.1532
   47DOPE   H7R 5983  -0.273   1.335  10.637 -0.7309  0.3226  0.7889
   47DOPE   H7S 5984  -0.198   1.474  10.722 -1.3352 -0.7412 -0.2962
   47DOPE   C28 5985  -0.123   1.285  10.790  0.5573 -0.6212 -0.3041
   47DOPE   H8R 5986  -0.099   1.190  10.736  0.9292  0.2829 -1.7881
   47DOPE   H8S 5987  -0.207   1.273  10.862 -0.5348  0.3460 -1.3611
   47DOPE   C29 5988   0.005   1.340  10.844 -0.1908 -0.4913 -0.1931
   47DOPE   H9R 5989   0.076   1.387  10.775  1.2869  0.9921  2.1830
   47DOPE  C210 5990   0.038   1.354  10.974 -0.6498 -0.6953  0.1243
   47DOPE  H10R 5991   0.129   1.407  11.003 -1.6056  0.3943  1.2109
   47DOPE  C211 5992  -0.037   1.303  11.090  0.1794  0.9049 -0.7816
   47DOPE  H11R 5993  -0.136   1.262  11.060  1.2947 -1.4810 -1.4119
   47DOPE  H11S 5994  -0.039   1.384  11.166 -0.2242  0.3666 -0.2051
   47DOPE  C212 5995   0.032   1.177  11.144  0.1529 -0.1531  0.2613
   47DOPE  H12R 5996   0.139   1.190  11.117 -0.4669  1.7415 -1.5372
   47DOPE  H12S 5997   0.008   1.084  11.088 -0.2634  0.4404 -0.5675
   47DOPE  C213 5998   0.005   1.139  11.289 -0.1356 -0.1560 -0.2354
   47DOPE  H13R 5999  -0.105   1.128  11.305  0.2733 -2.9842  1.1868
   47DOPE  H13S 6000   0.032   1.224  11.355 -1.3816  0.7729 -0.8838
   47DOPE  C214 6001   0.062   1.010  11.339  0.4673 -0.6712  0.1322
   47DOPE  H14R 6002   0.173   1.005  11.330  0.4578  0.6637 -1.1018
   47DOPE  H14S 6003   0.010   0.933  11.278 -0.0395 -0.5510  0.4040
   47DOPE  C215 6004   0.032   0.996  11.493 -0.0211 -0.2386  0.1459
   47DOPE  H15R 6005  -0.074   1.021  11.510 -0.3431 -0.0830 -1.8290
   47DOPE  H15S 6006   0.090   1.077  11.544  0.7303 -1.9132  2.0715
   47DOPE  C216 6007   0.054   0.851  11.545  0.3320 -0.5764  0.4678
   47DOPE  H16R 6008   0.156   0.825  11.511  1.2772 -0.4992  3.0406
   47DOPE  H16S 6009  -0.024   0.789  11.497 -0.1157  0.6468 -0.4261
   47DOPE  C217 6010   0.040   0.845  11.697  0.1879  0.2953 -0.6687
   47DOPE  H17R 6011  -0.068   0.840  11.723 -0.0410 -0.4355 -1.6778
   47DOPE  H17S 6012   0.079   0.935  11.749  0.1195 -1.0015  1.8065
   47DOPE  C218 6013   0.108   0.716  11.748 -0.1641 -0.1717  0.1157
   47DOPE  H18R 6014   0.212   0.706  11.710  0.9344 -0.6579  3.0001
   47DOPE  H18S 6015   0.045   0.631  11.714  1.9500 -2.0493  0.6627
   47DOPE  H18T 6016   0.126   0.703  11.857  0.0245 -1.3459 -0.0439
   47DOPE   C33 6017   0.307   1.866  10.418  0.0797 -0.5639 -0.7245
   47DOPE   H3X 6018   0.213   1.848  10.360  0.0834  2.4867 -1.8883
   47DOPE   H3Y 6019   0.300   1.966  10.466 -1.5556  0.2331 -2.4745
   47DOPE   C34 6020   0.302   1.759  10.523 -0.3306  0.7711  0.5067
   47DOPE   H4X 6021   0.295   1.656  10.483 -2.0487  0.9881  0.1856
   47DOPE   H4Y 6022   0.396   1.753  10.581 -1.1370 -1.2304  1.7226
   47DOPE   C35 6023   0.185   1.785  10.618  0.3740  0.2199  0.0777
   47DOPE   H5X 6024   0.093   1.774  10.558  0.6507  0.1949 -0.3443
   47DOPE   H5Y 6025   0.195   1.893  10.639  1.4219  0.0038  0.8137
   47DOPE   C36 6026   0.185   1.693  10.737 -0.2940 -0.0897  0.1275
   47DOPE   H6X 6027   0.285   1.694  10.786  0.4102 -2.8074 -1.0587
   47DOPE   H6Y 6028   0.168   1.589  10.702  2.4560 -0.4906 -0.2780
   47DOPE   C37 6029   0.076   1.739  10.835 -0.0149  0.1191  0.5667
   47DOPE   H7X 6030   0.062   1.849  10.838 -1.6558 -0.0315 -0.4623
   47DOPE   H7Y 6031  -0.021   1.691  10.810  0.0790  0.6169 -0.8106
   47DOPE   C38 6032   0.129   1.696  10.975  0.1969  0.2138 -0.3026
   47DOPE   H8X 6033   0.219   1.759  10.989 -0.2113  1.3668 -2.4108
   47DOPE   H8Y 6034   0.169   1.594  10.955 -0.8087 -0.0192 -1.2280
   47DOPE   C39 6035   0.016   1.701  11.074 -0.6452 -0.4361  0.0541
   47DOPE   H9X 6036  -0.070   1.641  11.040  0.3435 -3.0861  1.8918
   47DOPE  C310 6037   0.013   1.764  11.192 -0.1981  0.2510  0.5493
   47DOPE  H10X 6038  -0.077   1.763  11.255 -0.4824  0.3506  0.1512
   47DOPE  C311 6039   0.131   1.848  11.254  0.0335  0.2172  0.3041
   47DOPE  H11X 6040   0.231   1.838  11.208 -0.1380  3.6081 -1.0940
   47DOPE  H11Y 6041   0.100   1.954  11.245 -1.6547 -0.3499 -1.0264
   47DOPE  C312 6042   0.151   1.827  11.399 -0.2704  0.3199 -0.6486
   47DOPE  H12X 6043   0.062   1.850  11.461 -0.2870  1.3286 -1.0255
   47DOPE  H12Y 6044   0.217   1.910  11.432  0.4395 -0.8985  1.2102
   47DOPE  C313 6045   0.221   1.693  11.437 -0.2879  0.0713  0.1944
   47DOPE  H13X 6046   0.251   1.642  11.343  0.3929  1.3348 -0.3060
   47DOPE  H13Y 6047   0.308   1.719  11.501 -1.1479  2.2943  0.5801
   47DOPE  C314 6048   0.120   1.612  11.511 -0.1239  0.8249  0.8381
   47DOPE  H14X 6049   0.033   1.609  11.441  0.7543 -2.4170 -0.3264
   47DOPE  H14Y 6050   0.082   1.661  11.603 -3.4738  0.5527 -0.2399
   47DOPE  C315 6051   0.166   1.473  11.556  0.1543 -0.3930  0.0467
   47DOPE  H15X 6052   0.231   1.439  11.473 -1.5502 -1.3262 -0.9650
   47DOPE  H15Y 6053   0.072   1.413  11.555 -0.9068  1.2244 -0.7177
   47DOPE  C316 6054   0.246   1.461  11.686 -0.3959 -0.6610 -0.0362
   47DOPE  H16X 6055   0.180   1.503  11.764  0.9690  0.1736  0.7034
   47DOPE  H16Y 6056   0.343   1.515  11.683 -0.0389 -1.1361  2.0384
   47DOPE  C317 6057   0.271   1.316  11.722  0.4833  0.8086  0.6828
   47DOPE  H17X 6058   0.180   1.254  11.735  0.7117  0.1835 -0.5448
   47DOPE  H17Y 6059   0.331   1.277  11.637 -0.1179 -1.4047  1.2044
   47DOPE  C318 6060   0.350   1.301  11.856 -1.0433  0.9686 -0.2148
   47DOPE  H18X 6061   0.446   1.358  11.860  0.5609 -1.1168 -3.7574
   47DOPE  H18Y 6062   0.280   1.340  11.933  0.6250  0.4286  1.6765
   47DOPE  H18Z 6063   0.374   1.195  11.878 -0.5775  1.2765  0.8099
   48DOPE     N 6064   5.306   4.218  10.366  0.4608 -0.4938 -0.0192
   48DOPE   HN1 6065   5.269   4.227  10.463 -0.6148  0.7033 -0.5076
   48DOPE   HN2 6066   5.289   4.121  10.334  0.8536 -0.7500  0.5431
   48DOPE   HN3 6067   5.409   4.232  10.364  0.4122 -0.0349 -1.9338
   48DOPE   C12 6068   5.237   4.303  10.264 -0.0043  0.1937  0.0976
   48DOPE  H12A 6069   5.270   4.408  10.278  2.9863 -0.6546  0.1691
   48DOPE  H12B 6070   5.127   4.303  10.281 -0.5839  0.1342 -3.1044
   48DOPE   C11 6071   5.274   4.241  10.128 -0.0080  0.1288  0.4060
   48DOPE  H11A 6072   5.368   4.181  10.128 -0.0176  0.0967  1.3555
   48DOPE  H11B 6073   5.306   4.326  10.065  4.2304 -0.6555  1.2236
   48DOPE     P 6074   5.125   4.019  10.139  0.0139 -0.1164 -0.2273
   48DOPE   O13 6075   5.141   3.912  10.042  0.2952  0.2617 -0.0833
   48DOPE   O14 6076   4.989   4.030  10.198  0.2296  0.2132 -0.3470
   48DOPE   O11 6077   5.228   3.995  10.260 -0.6892  0.2969 -0.1786
   48DOPE   O12 6078   5.166   4.163  10.074 -0.0406  0.1359  0.0994
   48DOPE    C1 6079   5.311   3.873  10.269 -0.1947  0.8998 -0.5875
   48DOPE    HA 6080   5.417   3.890  10.243  0.4212 -0.9438  0.5468
   48DOPE    HB 6081   5.267   3.792  10.208  2.1708 -1.4898  0.6934
   48DOPE    C2 6082   5.311   3.837  10.425  0.2251  0.2768  0.1961
   48DOPE    HS 6083   5.204   3.833  10.454  0.1594  2.0359  0.2628
   48DOPE   O21 6084   5.382   3.937  10.496 -0.0568  0.1349 -0.0560
   48DOPE   C21 6085   5.351   3.955  10.621 -0.0470 -0.0639  0.0071
   48DOPE   O22 6086   5.258   3.895  10.677  0.0789  0.1008 -0.3455
   48DOPE   C22 6087   5.435   4.064  10.693  0.1432 -0.5046  0.2475
   48DOPE   H2R 6088   5.373   4.154  10.714  0.5672 -0.5053  1.6314
   48DOPE   H2S 6089   5.523   4.098  10.635  0.5459  3.4489  2.8298
   48DOPE    C3 6090   5.380   3.702  10.447  0.9183  0.3679 -0.5714
   48DOPE    HX 6091   5.489   3.711  10.425  0.8659  1.5014 -0.3945
   48DOPE    HY 6092   5.323   3.641  10.374 -0.8892  0.7942  0.4424
   48DOPE   O31 6093   5.359   3.645  10.582  0.0640 -0.1608 -0.4007
   48DOPE   C31 6094   5.449   3.667  10.676 -1.1975 -1.0595 -0.4971
   48DOPE   O32 6095   5.558   3.722  10.661 -0.3932 -0.3826 -0.2546
   48DOPE   C32 6096   5.382   3.625  10.805 -0.1057 -0.4451 -0.3072
   48DOPE   H2X 6097   5.340   3.716  10.853 -0.4966 -0.4333 -0.6698
   48DOPE   H2Y 6098   5.307   3.545  10.790 -0.9865  0.4482 -0.7515
   48DOPE   C23 6099   5.486   4.023  10.832  0.4288  0.4455 -0.5501
   48DOPE   H3R 6100   5.553   4.103  10.872  2.5895 -1.5590  0.0717
   48DOPE   H3S 6101   5.556   3.937  10.824 -1.1806 -0.8871 -0.9253
   48DOPE   C24 6102   5.379   4.004  10.943 -0.8828 -0.6599  0.0835
   48DOPE   H4R 6103   5.322   3.916  10.905 -0.6766  0.3344 -2.8186
   48DOPE   H4S 6104   5.317   4.095  10.954 -2.5079 -1.1709 -3.2612
   48DOPE   C25 6105   5.429   3.979  11.091 -0.0363  0.5168  0.0531
   48DOPE   H5R 6106   5.486   4.067  11.128 -1.1139  1.2071  0.1314
   48DOPE   H5S 6107   5.498   3.893  11.097 -0.9558 -0.1814  0.9592
   48DOPE   C26 6108   5.310   3.962  11.194 -0.6533 -0.0521  0.6403
   48DOPE   H6R 6109   5.260   4.061  11.196 -0.7558 -0.0906  0.1743
   48DOPE   H6S 6110   5.353   3.944  11.295 -1.2037  1.3651  1.1664
   48DOPE   C27 6111   5.218   3.846  11.159 -0.2765  0.1551  0.2282
   48DOPE   H7R 6112   5.277   3.753  11.176 -0.7302 -0.3392 -0.8441
   48DOPE   H7S 6113   5.177   3.854  11.056 -0.7750 -0.0809  0.4097
   48DOPE   C28 6114   5.103   3.828  11.253  1.4203 -0.3929 -0.3470
   48DOPE   H8R 6115   5.047   3.924  11.253  0.2054 -1.0870 -0.6616
   48DOPE   H8S 6116   5.138   3.821  11.358 -2.8986  2.9506  1.6117
   48DOPE   C29 6117   5.015   3.710  11.224  0.3213 -0.2883 -0.6985
   48DOPE   H9R 6118   4.978   3.717  11.120  0.6608 -0.8015 -0.8604
   48DOPE  C210 6119   4.986   3.602  11.296 -0.1989  0.2067 -0.3309
   48DOPE  H10R 6120   4.938   3.512  11.255  1.5394 -0.9492  0.0632
   48DOPE  C211 6121   5.033   3.567  11.437 -0.3560 -0.3805 -0.2142
   48DOPE  H11R 6122   5.129   3.621  11.453 -0.6554  0.1902 -0.3414
   48DOPE  H11S 6123   5.042   3.457  11.450 -0.4450 -0.1709  1.9551
   48DOPE  C212 6124   4.923   3.620  11.539  0.2121 -0.1380  0.3971
   48DOPE  H12R 6125   4.820   3.594  11.507  0.9047 -0.2504 -1.9729
   48DOPE  H12S 6126   4.934   3.730  11.542 -0.0811  0.0233 -2.1939
   48DOPE  C213 6127   4.930   3.560  11.680 -0.4258  0.9267  0.1815
   48DOPE  H13R 6128   5.030   3.579  11.724  0.3527  0.8448 -1.4622
   48DOPE  H13S 6129   4.919   3.450  11.676 -0.7757  0.9321  0.8993
   48DOPE  C214 6130   4.816   3.608  11.773 -0.5139 -0.3165  0.1518
   48DOPE  H14R 6131   4.717   3.581  11.732 -0.6201  0.5372 -0.1770
   48DOPE  H14S 6132   4.811   3.719  11.770 -1.5718 -0.0892  4.1071
   48DOPE  C215 6133   4.833   3.563  11.915  0.0921 -0.2782 -0.5862
   48DOPE  H15R 6134   4.841   3.452  11.912 -0.6304 -0.3060 -2.1475
   48DOPE  H15S 6135   4.743   3.577  11.980 -0.2200 -1.0167 -0.8425
   48DOPE  C216 6136   4.952   3.634  11.980  0.3734  0.2771 -0.1905
   48DOPE  H16R 6137   4.941   3.744  11.968  1.2976  0.4198  0.1436
   48DOPE  H16S 6138   5.043   3.603  11.925  0.3725  0.8653 -0.5302
   48DOPE  C217 6139   4.972   3.614  12.134  0.8329 -0.1595 -0.1344
   48DOPE  H17R 6140   5.079   3.636  12.153  1.3393 -1.9752 -0.6389
   48DOPE  H17S 6141   4.956   3.505  12.149 -0.0490 -0.0652 -0.3056
   48DOPE  C218 6142   4.875   3.687  12.233 -0.0306 -0.3456  0.6882
   48DOPE  H18R 6143   4.897   3.662  12.340  1.0791 -2.7526 -0.0335
   48DOPE  H18S 6144   4.773   3.643  12.227  0.3750 -1.2196 -0.0730
   48DOPE  H18T 6145   4.868   3.796  12.212 -0.2571 -0.0935  1.9387
   48DOPE   C33 6146   5.489   3.568  10.891 -0.0093 -0.0211 -0.5355
   48DOPE   H3X 6147   5.561   3.645  10.928 -2.2806  1.7256  0.4573
   48DOPE   H3Y 6148   5.548   3.487  10.843  1.6126  0.8657 -0.1354
   48DOPE   C34 6149   5.424   3.509  11.022 -0.6310  0.0511 -0.4921
   48DOPE   H4X 6150   5.362   3.585  11.073 -0.8545 -0.9820  0.8097
   48DOPE   H4Y 6151   5.360   3.426  10.986 -0.4643  0.4874 -1.8815
   48DOPE   C35 6152   5.534   3.477  11.131  0.0326 -0.2716  0.6797
   48DOPE   H5X 6153   5.572   3.579  11.152 -1.6657  0.0078  2.7185
   48DOPE   H5Y 6154   5.613   3.427  11.072 -1.0680 -2.1943  0.7246
   48DOPE   C36 6155   5.487   3.407  11.255  0.3799  0.4191  0.1513
   48DOPE   H6X 6156   5.578   3.388  11.317 -0.5689  0.7972  1.7301
   48DOPE   H6Y 6157   5.447   3.310  11.220 -0.7803 -0.1122  2.7040
   48DOPE   C37 6158   5.385   3.480  11.340  0.6459  0.0160  0.3368
   48DOPE   H7X 6159   5.412   3.588  11.346  3.0856 -0.4747 -0.8821
   48DOPE   H7Y 6160   5.285   3.477  11.291 -0.9195  0.2527  3.2536
   48DOPE   C38 6161   5.355   3.408  11.476  0.3458 -0.5447  0.9459
   48DOPE   H8X 6162   5.290   3.323  11.444 -0.3726  1.0247 -2.1759
   48DOPE   H8Y 6163   5.290   3.470  11.541 -0.4750 -3.3798  3.0345
   48DOPE   C39 6164   5.476   3.364  11.555  0.6786 -1.0393  0.0838
   48DOPE   H9X 6165   5.549   3.294  11.511  0.7226 -1.1580  0.3497
   48DOPE  C310 6166   5.521   3.428  11.667  0.9104 -0.2723  0.4106
   48DOPE  H10X 6167   5.616   3.396  11.712 -0.0804 -0.2194  2.6970
   48DOPE  C311 6168   5.441   3.543  11.736  0.7251  0.1191 -0.7679
   48DOPE  H11X 6169   5.457   3.638  11.681 -0.4741  1.8181  1.6354
   48DOPE  H11Y 6170   5.330   3.533  11.737  0.7690 -0.4250  0.1249
   48DOPE  C312 6171   5.485   3.563  11.886  0.1511 -0.0400  0.1233
   48DOPE  H12X 6172   5.443   3.655  11.932 -0.1751 -0.7564  1.2853
   48DOPE  H12Y 6173   5.595   3.574  11.898  0.2802  1.1029 -1.7955
   48DOPE  C313 6174   5.448   3.451  11.979  0.1115  0.2477 -0.1786
   48DOPE  H13X 6175   5.340   3.435  11.959  0.1471  0.3253 -0.4356
   48DOPE  H13Y 6176   5.493   3.349  11.975 -1.9077 -0.8998  2.9832
   48DOPE  C314 6177   5.454   3.503  12.122  0.9404 -0.0608  0.3582
   48DOPE  H14X 6178   5.394   3.596  12.137  0.3563 -0.8197  3.3370
   48DOPE  H14Y 6179   5.559   3.525  12.149  0.3371  1.8343  1.3204
   48DOPE  C315 6180   5.412   3.404  12.233  0.4956  0.1204 -0.1485
   48DOPE  H15X 6181   5.503   3.341  12.237  0.9658  0.7805 -0.3083
   48DOPE  H15Y 6182   5.323   3.345  12.200  0.5703 -0.2358  0.2803
   48DOPE  C316 6183   5.365   3.480  12.348  0.0917  0.1743 -0.2412
   48DOPE  H16X 6184   5.307   3.567  12.311 -1.6143 -1.4839 -1.6618
   48DOPE  H16Y 6185   5.455   3.528  12.393  0.4094 -0.4577 -0.1923
   48DOPE  C317 6186   5.266   3.415  12.446 -0.1577  0.1191  0.1067
   48DOPE  H17X 6187   5.180   3.373  12.389  1.8906 -0.6838 -2.6163
   48DOPE  H17Y 6188   5.317   3.328  12.493 -0.4797  0.6800  1.5340
   48DOPE  C318 6189   5.206   3.516  12.542 -0.3850  0.0372 -0.5255
   48DOPE  H18X 6190   5.285   3.566  12.602 -1.1293 -0.5731  1.0131
   48DOPE  H18Y 6191   5.155   3.590  12.477  1.1066  0.9011 -0.7522
   48DOPE  H18Z 6192   5.135   3.457  12.605  1.0973 -3.3817 -1.7917
   49DOPE     N 6193   0.170   1.944   9.761  0.4050 -0.4334  0.4522
   49DOPE   HN1 6194   0.103   2.023   9.753  0.4820 -0.5228 -1.6629
   49DOPE   HN2 6195   0.260   1.994   9.745 -0.4768  0.9642 -0.3742
   49DOPE   HN3 6196   0.134   1.881   9.686 -0.7678  1.0650 -0.2901
   49DOPE   C12 6197   0.170   1.893   9.907 -0.2259  0.6231 -0.3622
   49DOPE  H12A 6198   0.256   1.824   9.923 -0.8821  0.0786  1.0183
   49DOPE  H12B 6199   0.079   1.828   9.909 -0.7030  1.2695 -0.6576
   49DOPE   C11 6200   0.161   2.014  10.004  0.4087  0.2529  0.0432
   49DOPE  H11A 6201   0.179   1.987  10.110 -1.0371  0.6500  0.4040
   49DOPE  H11B 6202   0.053   2.036  10.000  0.4128  0.3924  0.6102
   49DOPE     P 6203   0.355   2.186  10.036 -0.3108  0.1406  0.1262
   49DOPE   O13 6204   0.402   2.308   9.967 -0.4904  0.3814 -0.2188
   49DOPE   O14 6205   0.456   2.084  10.054  0.4742 -0.6655 -0.7836
   49DOPE   O11 6206   0.292   2.224  10.174 -0.1683  0.3345 -0.4215
   49DOPE   O12 6207   0.241   2.126   9.953 -0.2826  0.0006 -0.3848
   49DOPE    C1 6208   0.186   2.309  10.190  0.9059  0.1531  0.2835
   49DOPE    HA 6209   0.100   2.276  10.128  0.5830 -0.7072  1.1684
   49DOPE    HB 6210   0.197   2.409  10.144  0.9999  0.0984  0.1831
   49DOPE    C2 6211   0.152   2.324  10.344  0.3865  0.0477  0.2298
   49DOPE    HS 6212   0.049   2.366  10.346  0.4868  0.3235 -0.1695
   49DOPE   O21 6213   0.246   2.405  10.421  0.2171 -0.4518  0.0910
   49DOPE   C21 6214   0.247   2.535  10.397 -0.2138  0.0514 -0.3543
   49DOPE   O22 6215   0.177   2.599  10.322 -0.1688 -0.1077  0.1553
   49DOPE   C22 6216   0.346   2.597  10.503  0.5015  0.0622  0.7179
   49DOPE   H2R 6217   0.332   2.707  10.497  0.2313 -0.0312 -0.7578
   49DOPE   H2S 6218   0.449   2.567  10.473 -0.0646 -1.1850 -0.1102
   49DOPE    C3 6219   0.142   2.187  10.419 -0.9635  0.3288 -0.5384
   49DOPE    HX 6220   0.247   2.156  10.438 -0.5649  0.9229 -1.6718
   49DOPE    HY 6221   0.097   2.105  10.360 -1.3030  1.2852 -1.6606
   49DOPE   O31 6222   0.062   2.200  10.537  0.0801  0.2026 -0.0172
   49DOPE   C31 6223   0.122   2.216  10.658 -0.3656 -0.1707 -0.5884
   49DOPE   O32 6224   0.244   2.221  10.675 -0.0494  0.1400 -0.3384
   49DOPE   C32 6225   0.008   2.240  10.765 -0.0360  1.2185 -0.1185
   49DOPE   H2X 6226  -0.085   2.237  10.705  0.2605 -0.7949 -0.5494
   49DOPE   H2Y 6227  -0.003   2.149  10.827 -2.9553  3.0650  2.3125
   49DOPE   C23 6228   0.320   2.554  10.640 -0.0567  0.0275 -0.0959
   49DOPE   H3R 6229   0.313   2.444  10.653 -0.8264  0.1943  1.1347
   49DOPE   H3S 6230   0.217   2.586  10.668  0.2951 -0.4669  1.8838
   49DOPE   C24 6231   0.421   2.603  10.739  0.1554 -0.5262  0.0206
   49DOPE   H4R 6232   0.392   2.563  10.839 -1.0816 -1.4216 -0.6712
   49DOPE   H4S 6233   0.422   2.714  10.743  0.4318 -0.5082 -0.4812
   49DOPE   C25 6234   0.554   2.531  10.712  0.0784 -0.7127 -1.0982
   49DOPE   H5R 6235   0.611   2.570  10.625  1.2086  0.0818 -0.0303
   49DOPE   H5S 6236   0.530   2.422  10.705  1.0791 -1.1578  1.3748
   49DOPE   C26 6237   0.643   2.547  10.832 -0.0328 -0.0404  0.2718
   49DOPE   H6R 6238   0.587   2.528  10.926 -0.1882 -0.8169  0.0268
   49DOPE   H6S 6239   0.675   2.653  10.836 -0.3987  0.1375 -1.0817
   49DOPE   C27 6240   0.751   2.436  10.838 -0.2828  0.9794  0.5623
   49DOPE   H7R 6241   0.843   2.470  10.784 -0.2893  3.2255  1.8409
   49DOPE   H7S 6242   0.726   2.345  10.780 -0.9356  0.8718  0.9998
   49DOPE   C28 6243   0.798   2.390  10.979 -0.3029 -0.1194 -0.4529
   49DOPE   H8R 6244   0.845   2.291  10.957  0.6526 -0.1680  1.5829
   49DOPE   H8S 6245   0.705   2.383  11.039  0.2482  2.8767  0.9031
   49DOPE   C29 6246   0.894   2.478  11.048 -0.1843 -0.5807  0.0999
   49DOPE   H9R 6247   0.963   2.528  10.979 -0.3280 -0.0404  0.3406
   49DOPE  C210 6248   0.899   2.503  11.184 -0.1883 -0.4486  0.6462
   49DOPE  H10R 6249   0.980   2.568  11.221  0.3267  0.6694 -2.1449
   49DOPE  C211 6250   0.809   2.440  11.287 -0.5657 -0.1969  0.5257
   49DOPE  H11R 6251   0.753   2.350  11.254  0.0787  0.2047 -1.8377
   49DOPE  H11S 6252   0.737   2.515  11.326 -0.8840 -0.2937  0.1359
   49DOPE  C212 6253   0.890   2.407  11.411  0.3060  0.3342  0.0515
   49DOPE  H12R 6254   0.941   2.495  11.455 -0.3276 -0.1816  1.9420
   49DOPE  H12S 6255   0.972   2.342  11.373  0.5668  0.7998 -0.1826
   49DOPE  C213 6256   0.815   2.344  11.531  0.6798  0.5566 -0.3747
   49DOPE  H13R 6257   0.882   2.299  11.608  1.6667 -0.8265 -1.9507
   49DOPE  H13S 6258   0.741   2.269  11.495  1.1794  0.4467 -1.2139
   49DOPE  C214 6259   0.734   2.453  11.610  0.3714  0.4641  0.0138
   49DOPE  H14R 6260   0.656   2.494  11.542 -0.6692 -0.6412  0.5163
   49DOPE  H14S 6261   0.790   2.542  11.646 -1.3841  0.1895  3.8543
   49DOPE  C215 6262   0.671   2.403  11.744  0.2928 -0.0804  0.3475
   49DOPE  H15R 6263   0.754   2.358  11.803 -1.2617 -3.4886  0.1878
   49DOPE  H15S 6264   0.595   2.324  11.729  0.2219 -0.0960  0.7631
   49DOPE  C216 6265   0.609   2.507  11.839 -0.1750 -0.0962 -0.0389
   49DOPE  H16R 6266   0.695   2.569  11.872  1.2245 -1.6333 -0.6781
   49DOPE  H16S 6267   0.557   2.458  11.924  0.0045  1.8411  1.2715
   49DOPE  C217 6268   0.510   2.612  11.770 -0.2184  0.5851  0.7982
   49DOPE  H17R 6269   0.427   2.559  11.720  1.5312  0.2124 -1.9423
   49DOPE  H17S 6270   0.562   2.649  11.678 -2.9114 -0.9647 -1.4945
   49DOPE  C218 6271   0.450   2.716  11.865 -0.4263 -0.0498 -0.2069
   49DOPE  H18R 6272   0.536   2.778  11.899  1.0663 -1.2649 -1.6242
   49DOPE  H18S 6273   0.413   2.657  11.951 -1.3104  0.3760 -0.2843
   49DOPE  H18T 6274   0.370   2.780  11.822 -0.8429 -1.5081 -1.7059
   49DOPE   C33 6275   0.044   2.354  10.868  0.0868  0.0550  0.2561
   49DOPE   H3X 6276  -0.052   2.372  10.920  0.3673  1.4044  0.3472
   49DOPE   H3Y 6277   0.081   2.438  10.805  0.1608 -0.9048 -1.0351
   49DOPE   C34 6278   0.137   2.318  10.980  0.0970  0.0567 -0.1380
   49DOPE   H4X 6279   0.097   2.229  11.033  1.8966 -1.8641 -1.8301
   49DOPE   H4Y 6280   0.230   2.287  10.927 -0.8466 -1.8693 -0.7362
   49DOPE   C35 6281   0.148   2.427  11.089 -0.1035 -0.2240 -0.4200
   49DOPE   H5X 6282   0.044   2.464  11.098 -0.2497 -0.5687 -0.6943
   49DOPE   H5Y 6283   0.213   2.511  11.055  0.2198  0.3569  1.5129
   49DOPE   C36 6284   0.208   2.397  11.237 -0.0021  0.7228  0.3086
   49DOPE   H6X 6285   0.173   2.475  11.308  1.3413  0.7140  0.9984
   49DOPE   H6Y 6286   0.318   2.402  11.222  0.0908  1.6985  1.2671
   49DOPE   C37 6287   0.169   2.262  11.306  0.2429 -0.6365 -0.8572
   49DOPE   H7X 6288   0.191   2.186  11.229  0.6161 -0.9301 -0.4638
   49DOPE   H7Y 6289   0.241   2.258  11.391  1.7708  1.3117 -1.9581
   49DOPE   C38 6290   0.022   2.244  11.338  0.4205 -0.5944  0.5945
   49DOPE   H8X 6291   0.003   2.135  11.350 -1.3865 -0.7980 -2.7905
   49DOPE   H8Y 6292  -0.029   2.277  11.244 -1.6975 -3.2790  0.6933
   49DOPE   C39 6293  -0.030   2.316  11.458  1.1278  0.1765  0.6632
   49DOPE   H9X 6294  -0.041   2.424  11.444  2.9426  0.2337 -0.6276
   49DOPE  C310 6295  -0.073   2.271  11.573  0.0602 -0.7163 -0.2281
   49DOPE  H10X 6296  -0.109   2.334  11.656 -0.2177 -0.3440 -0.6255
   49DOPE  C311 6297  -0.080   2.128  11.613  0.6756  0.2976  0.1380
   49DOPE  H11X 6298  -0.168   2.118  11.681  0.6444 -2.3618 -0.1814
   49DOPE  H11Y 6299  -0.100   2.059  11.528 -1.9557  1.6270 -0.4155
   49DOPE  C312 6300   0.042   2.081  11.690  0.2397  0.0781 -0.4066
   49DOPE  H12X 6301   0.063   2.157  11.768  0.0293  0.0051 -0.2780
   49DOPE  H12Y 6302   0.126   2.087  11.617  0.4781  2.2662 -0.0440
   49DOPE  C313 6303   0.026   1.936  11.749 -0.8223  0.0614  0.3216
   49DOPE  H13X 6304  -0.058   1.945  11.822 -0.0783 -0.3967  1.2503
   49DOPE  H13Y 6305  -0.007   1.875  11.663 -0.0021  1.3672 -0.9698
   49DOPE  C314 6306   0.154   1.886  11.809  0.0350 -0.0937  0.5769
   49DOPE  H14X 6307   0.191   1.964  11.880 -0.8293 -0.7806  1.8272
   49DOPE  H14Y 6308   0.231   1.882  11.729 -1.7104  0.4830 -1.1947
   49DOPE  C315 6309   0.142   1.754  11.896  0.6372 -0.0674 -0.2961
   49DOPE  H15X 6310   0.108   1.667  11.836 -0.6024  0.1870  0.0051
   49DOPE  H15Y 6311   0.061   1.777  11.969  1.3612  1.3095  0.1189
   49DOPE  C316 6312   0.268   1.702  11.966  0.0983  0.1531 -0.2876
   49DOPE  H16X 6313   0.306   1.791  12.021  0.1903  1.1897 -1.9611
   49DOPE  H16Y 6314   0.341   1.670  11.889 -1.1641  3.0085 -2.8867
   49DOPE  C317 6315   0.236   1.582  12.057  0.4552  0.0202  0.5570
   49DOPE  H17X 6316   0.164   1.509  12.014 -0.3960  1.7278 -1.0660
   49DOPE  H17Y 6317   0.331   1.529  12.081  1.1940  1.4098  0.8029
   49DOPE  C318 6318   0.182   1.622  12.193  0.5269 -0.5610  0.3474
   49DOPE  H18X 6319   0.169   1.533  12.258  1.5751 -1.2267 -0.3404
   49DOPE  H18Y 6320   0.250   1.688  12.251 -1.7330  0.8538  1.5339
   49DOPE  H18Z 6321   0.087   1.680  12.189  0.3992 -0.8056 -0.3279
   50DOPE     N 6322   0.151   6.369   9.808  0.0974  0.2471 -0.5878
   50DOPE   HN1 6323   0.059   6.323   9.794  0.4828 -0.0989 -2.2698
   50DOPE   HN2 6324   0.165   6.447   9.740 -1.3171  1.0408 -0.0105
   50DOPE   HN3 6325   0.219   6.293   9.789  0.9976  1.1019 -0.8830
   50DOPE   C12 6326   0.163   6.427   9.947 -0.5338  0.1509  0.2244
   50DOPE  H12A 6327   0.145   6.347  10.022  0.5840 -0.3042  0.0389
   50DOPE  H12B 6328   0.080   6.500   9.949  0.7936  1.7304 -0.2784
   50DOPE   C11 6329   0.300   6.505   9.965 -0.3360  0.2526 -0.3677
   50DOPE  H11A 6330   0.292   6.555  10.063 -0.4055  0.6383 -0.5688
   50DOPE  H11B 6331   0.308   6.588   9.892 -1.0526  0.9495  0.3427
   50DOPE     P 6332   0.562   6.474   9.938 -0.2233 -0.6761 -0.1010
   50DOPE   O13 6333   0.549   6.599   9.859 -0.0085  0.1697  0.5018
   50DOPE   O14 6334   0.649   6.373   9.875  0.5013  0.2614  0.4566
   50DOPE   O11 6335   0.598   6.511  10.091 -0.5895 -0.2130 -0.1024
   50DOPE   O12 6336   0.413   6.416   9.950 -0.0701 -1.0868 -0.1470
   50DOPE    C1 6337   0.569   6.417  10.197  0.7881  0.4432 -0.1201
   50DOPE    HA 6338   0.617   6.320  10.172 -1.8736 -1.2376  0.7730
   50DOPE    HB 6339   0.462   6.386  10.200  1.2431 -1.3803 -1.0818
   50DOPE    C2 6340   0.631   6.453  10.342 -0.4118  0.1111  0.5444
   50DOPE    HS 6341   0.596   6.555  10.369  0.2279  0.3288  0.5647
   50DOPE   O21 6342   0.772   6.445  10.337 -0.1068 -0.2209  0.4475
   50DOPE   C21 6343   0.837   6.508  10.433  0.3986  0.7955  0.5718
   50DOPE   O22 6344   0.778   6.569  10.526  0.2915  0.7311  0.2998
   50DOPE   C22 6345   0.983   6.466  10.430  0.1262 -0.1858 -1.1271
   50DOPE   H2R 6346   1.032   6.524  10.512 -2.8268  0.0008  0.6530
   50DOPE   H2S 6347   1.045   6.491  10.342  2.5415  0.0621  0.5374
   50DOPE    C3 6348   0.578   6.360  10.454 -0.6218  0.0284  0.3285
   50DOPE    HX 6349   0.624   6.395  10.549  0.2740 -1.5353  0.4970
   50DOPE    HY 6350   0.611   6.254  10.447  0.1516  0.3077 -0.4885
   50DOPE   O31 6351   0.438   6.371  10.464  0.1581 -0.0364 -0.4016
   50DOPE   C31 6352   0.375   6.276  10.527  0.6530  0.2093  0.3309
   50DOPE   O32 6353   0.428   6.186  10.588  0.2086 -0.0000 -0.0630
   50DOPE   C32 6354   0.227   6.287  10.503 -0.3030 -0.3382  0.5277
   50DOPE   H2X 6355   0.197   6.374  10.440 -1.0717 -0.3052  0.9246
   50DOPE   H2Y 6356   0.197   6.200  10.442  0.3488 -1.3647  1.6383
   50DOPE   C23 6357   0.992   6.320  10.489  0.4444 -0.3432 -0.6729
   50DOPE   H3R 6358   1.101   6.296  10.486  0.1673 -1.7653 -0.0033
   50DOPE   H3S 6359   0.936   6.249  10.425 -2.1250 -0.5357  1.6657
   50DOPE   C24 6360   0.936   6.296  10.626 -0.0966  0.2781 -0.3802
   50DOPE   H4R 6361   0.925   6.188  10.647 -1.0631  0.0523 -1.8990
   50DOPE   H4S 6362   0.835   6.342  10.621 -0.3069 -0.2368 -4.8008
   50DOPE   C25 6363   1.022   6.360  10.740  0.6221 -0.4849 -0.1706
   50DOPE   H5R 6364   1.003   6.470  10.740  0.0105 -0.5813 -1.1363
   50DOPE   H5S 6365   1.125   6.327  10.714 -0.0073 -1.0377 -2.1445
   50DOPE   C26 6366   1.002   6.313  10.890  0.1768 -0.9780 -0.3522
   50DOPE   H6R 6367   1.059   6.223  10.921 -0.4258 -1.4907 -0.6850
   50DOPE   H6S 6368   0.894   6.287  10.894 -0.2662  0.7987 -0.0977
   50DOPE   C27 6369   1.020   6.435  10.991  0.5776  0.1844 -0.2388
   50DOPE   H7R 6370   0.983   6.533  10.952  0.7882  0.1542 -0.5153
   50DOPE   H7S 6371   1.128   6.448  11.011  0.4050  0.5445  0.4962
   50DOPE   C28 6372   0.945   6.404  11.125 -0.3667 -0.5690  0.0101
   50DOPE   H8R 6373   0.842   6.387  11.085 -0.5351  0.0791  0.1572
   50DOPE   H8S 6374   0.934   6.498  11.182 -0.0347 -0.9436  0.7005
   50DOPE   C29 6375   0.989   6.294  11.216  0.1110  0.3705 -0.6182
   50DOPE   H9R 6376   0.993   6.199  11.162  1.6600 -0.5695  1.0588
   50DOPE  C210 6377   1.010   6.308  11.347  0.5334 -0.5483  0.2829
   50DOPE  H10R 6378   1.022   6.225  11.418  2.7878  0.2049  0.8756
   50DOPE  C211 6379   1.014   6.441  11.417 -0.0304  0.7851 -0.2366
   50DOPE  H11R 6380   1.038   6.527  11.351 -2.4870  2.8691  1.3798
   50DOPE  H11S 6381   1.104   6.439  11.483 -1.7088  0.7456  2.1824
   50DOPE  C212 6382   0.886   6.481  11.493  0.0301  0.3407  0.3508
   50DOPE  H12R 6383   0.796   6.457  11.433  0.7337  0.7661 -0.9290
   50DOPE  H12S 6384   0.889   6.591  11.509 -0.0334  0.4409 -0.3010
   50DOPE  C213 6385   0.879   6.411  11.629  0.2876 -0.8482  0.2174
   50DOPE  H13R 6386   0.967   6.441  11.688  0.6564 -1.4167 -0.0404
   50DOPE  H13S 6387   0.877   6.300  11.621 -1.2863 -1.0566  2.7060
   50DOPE  C214 6388   0.752   6.438  11.702  0.2504 -0.1940 -0.1811
   50DOPE  H14R 6389   0.662   6.417  11.640  0.7278 -0.7508 -0.6968
   50DOPE  H14S 6390   0.745   6.542  11.741  0.1985  0.2170 -1.2609
   50DOPE  C215 6391   0.750   6.347  11.828 -0.3839  0.5315 -0.5627
   50DOPE  H15R 6392   0.790   6.250  11.793  1.1583  0.7853  0.4112
   50DOPE  H15S 6393   0.645   6.324  11.857  0.1583 -0.9452  0.3124
   50DOPE  C216 6394   0.818   6.384  11.956  0.5627  0.1310  0.0540
   50DOPE  H16R 6395   0.778   6.483  11.986  0.2972 -0.0362  0.2580
   50DOPE  H16S 6396   0.928   6.394  11.940  0.3638  0.1684 -1.4208
   50DOPE  C217 6397   0.792   6.295  12.074 -0.2700  0.5408 -0.1162
   50DOPE  H17R 6398   0.684   6.312  12.091 -0.3982 -0.7124  0.4408
   50DOPE  H17S 6399   0.850   6.335  12.161 -1.7972  3.1944 -0.2052
   50DOPE  C218 6400   0.830   6.149  12.063  0.4748  0.1746  0.4902
   50DOPE  H18R 6401   0.763   6.099  11.990 -1.0737  3.0493 -0.2161
   50DOPE  H18S 6402   0.807   6.096  12.157  2.6069 -1.3782  0.2167
   50DOPE  H18T 6403   0.935   6.132  12.032  0.6053  1.2697  0.3158
   50DOPE   C33 6404   0.136   6.266  10.626  0.3813  0.1257 -0.3845
   50DOPE   H3X 6405   0.173   6.330  10.709 -1.9485 -0.7536  1.4768
   50DOPE   H3Y 6406   0.149   6.162  10.663  0.4689  1.0238  2.3026
   50DOPE   C34 6407  -0.011   6.307  10.597 -1.2625  0.4547 -0.5960
   50DOPE   H4X 6408   0.006   6.415  10.577  0.0534  0.8553  2.2337
   50DOPE   H4Y 6409  -0.039   6.251  10.505  1.9280 -4.2184  0.9103
   50DOPE   C35 6410  -0.111   6.287  10.710 -0.2026  0.5198  0.2776
   50DOPE   H5X 6411  -0.136   6.181  10.731  0.1249  0.1394 -1.1532
   50DOPE   H5Y 6412  -0.209   6.335  10.686  0.0954  1.6028  1.1144
   50DOPE   C36 6413  -0.063   6.346  10.846 -0.1879 -0.5583  0.1825
   50DOPE   H6X 6414   0.024   6.290  10.887 -1.9399 -2.8788  0.9492
   50DOPE   H6Y 6415  -0.134   6.335  10.931  1.8308 -1.5406  1.8397
   50DOPE   C37 6416  -0.046   6.502  10.840 -0.2779  0.5880  0.3147
   50DOPE   H7X 6417   0.028   6.521  10.760 -2.6801 -1.2508 -2.5676
   50DOPE   H7Y 6418  -0.146   6.536  10.806 -0.6904 -0.5886  0.2967
   50DOPE   C38 6419  -0.003   6.571  10.964 -0.3792 -0.2862  0.9790
   50DOPE   H8X 6420  -0.074   6.569  11.050  0.4052 -0.0605  1.6395
   50DOPE   H8Y 6421  -0.001   6.680  10.942 -1.5929 -0.7946 -2.1684
   50DOPE   C39 6422   0.139   6.537  11.006 -0.1003 -0.1342  0.3962
   50DOPE   H9X 6423   0.224   6.588  10.959  0.3912 -0.5054  0.8650
   50DOPE  C310 6424   0.170   6.456  11.113 -0.1489  0.2180 -0.1085
   50DOPE  H10X 6425   0.277   6.431  11.126 -0.9218 -2.2006  2.6840
   50DOPE  C311 6426   0.075   6.381  11.200  0.4212  0.3554 -0.7286
   50DOPE  H11X 6427  -0.027   6.389  11.157 -0.7301  0.8604  1.8893
   50DOPE  H11Y 6428   0.092   6.271  11.199 -1.8201 -0.0530 -2.5207
   50DOPE  C312 6429   0.051   6.418  11.350 -0.9406  0.3851 -0.0257
   50DOPE  H12X 6430   0.151   6.437  11.393 -1.3219 -0.1748  1.1572
   50DOPE  H12Y 6431   0.011   6.335  11.412  0.9369  0.6955  1.6685
   50DOPE  C313 6432  -0.038   6.540  11.374  0.4084  0.3363  0.0972
   50DOPE  H13X 6433  -0.023   6.620  11.299 -3.9746  0.3809 -0.9995
   50DOPE  H13Y 6434  -0.145   6.509  11.365 -0.0326  1.2691  1.6419
   50DOPE  C314 6435  -0.030   6.606  11.515  0.2965 -0.1276  0.3261
   50DOPE  H14X 6436  -0.112   6.681  11.515  0.8925  0.5521  1.0311
   50DOPE  H14Y 6437   0.062   6.664  11.536 -1.3890  3.0133 -0.3005
   50DOPE  C315 6438  -0.052   6.519  11.639 -0.2256  0.5364  0.0709
   50DOPE  H15X 6439   0.017   6.434  11.621 -0.6374  0.4153 -0.9991
   50DOPE  H15Y 6440  -0.157   6.483  11.635  0.0442 -0.2016 -0.6688
   50DOPE  C316 6441  -0.030   6.591  11.771  0.2000  0.4891  0.1165
   50DOPE  H16X 6442  -0.113   6.664  11.780 -0.6003  0.2100 -3.5300
   50DOPE  H16Y 6443   0.068   6.644  11.771  0.7266 -0.3026 -2.7671
   50DOPE  C317 6444  -0.029   6.506  11.902  0.3405  0.5436  0.8140
   50DOPE  H17X 6445  -0.117   6.439  11.912  0.5707  0.4904  3.3797
   50DOPE  H17Y 6446   0.065   6.448  11.890  0.7098  0.8244  2.0926
   50DOPE  C318 6447  -0.010   6.588  12.032  0.2710 -0.2980  0.2707
   50DOPE  H18X 6448   0.068   6.665  12.016  0.6362 -0.3014  1.8786
   50DOPE  H18Y 6449  -0.105   6.644  12.046  1.6097  2.2634 -0.3066
   50DOPE  H18Z 6450   0.021   6.539  12.127  1.2423 -0.4132 -0.0988
   51DOPE     N 6451   2.186   2.920   9.872  0.0793 -0.1766  0.8539
   51DOPE   HN1 6452   2.236   2.852   9.933  0.0912  0.4666  1.5785
   51DOPE   HN2 6453   2.090   2.884   9.851  0.1609 -1.3683  2.3480
   51DOPE   HN3 6454   2.236   2.941   9.784  0.3003  2.4797  1.5123
   51DOPE   C12 6455   2.162   3.048   9.946 -0.4782 -0.2456 -0.9013
   51DOPE  H12A 6456   2.116   3.020  10.044  0.9407  1.8694  0.4561
   51DOPE  H12B 6457   2.088   3.101   9.883 -1.0849  0.0531  0.0505
   51DOPE   C11 6458   2.288   3.135   9.947  0.2967 -0.0664  0.3086
   51DOPE  H11A 6459   2.262   3.228  10.003 -1.6905  1.6432 -3.1458
   51DOPE  H11B 6460   2.312   3.163   9.843 -1.0617 -1.7922 -0.5223
   51DOPE     P 6461   2.429   3.061  10.162  0.3194  0.2564  0.1117
   51DOPE   O13 6462   2.435   2.921  10.207 -0.0549  0.2460  0.3849
   51DOPE   O14 6463   2.321   3.144  10.228 -0.4682 -0.6646 -1.1717
   51DOPE   O11 6464   2.569   3.128  10.168  0.3482 -0.2823 -0.1782
   51DOPE   O12 6465   2.398   3.056  10.005  0.1789 -0.5536  0.4470
   51DOPE    C1 6466   2.592   3.229  10.271 -0.0927  0.0764 -0.2657
   51DOPE    HA 6467   2.504   3.290  10.301  0.5702  1.4307 -0.9854
   51DOPE    HB 6468   2.669   3.302  10.237  0.5847 -0.1604  0.7417
   51DOPE    C2 6469   2.657   3.175  10.399  0.3234  1.0900  0.2839
   51DOPE    HS 6470   2.751   3.127  10.363 -0.1864  0.3171 -0.0487
   51DOPE   O21 6471   2.562   3.084  10.464  0.2391 -0.1704 -0.6667
   51DOPE   C21 6472   2.634   2.989  10.535 -0.7387  0.2594 -0.1997
   51DOPE   O22 6473   2.754   2.988  10.548 -0.3491 -0.3582  0.4770
   51DOPE   C22 6474   2.530   2.888  10.587 -0.7335  0.0966 -1.0410
   51DOPE   H2R 6475   2.553   2.791  10.538 -0.0455  0.1448 -0.8207
   51DOPE   H2S 6476   2.424   2.923  10.585 -0.1631  1.9476 -0.6814
   51DOPE    C3 6477   2.697   3.299  10.490  0.5667  1.3605  0.2908
   51DOPE    HX 6478   2.605   3.362  10.499 -0.9713 -0.8481  0.8218
   51DOPE    HY 6479   2.780   3.347  10.434  0.0491  0.2385 -1.5273
   51DOPE   O31 6480   2.739   3.261  10.619 -0.7148 -0.1184  0.7942
   51DOPE   C31 6481   2.777   3.368  10.687 -0.0473 -0.1453 -0.9396
   51DOPE   O32 6482   2.760   3.484  10.663 -0.1354  0.3091 -0.2214
   51DOPE   C32 6483   2.821   3.310  10.823  0.3863  0.4375 -0.5208
   51DOPE   H2X 6484   2.731   3.270  10.875  0.6692 -1.8189 -1.6722
   51DOPE   H2Y 6485   2.892   3.230  10.794 -1.9059 -0.8096 -3.2115
   51DOPE   C23 6486   2.554   2.870  10.742 -0.1809  0.6097 -1.3794
   51DOPE   H3R 6487   2.650   2.820  10.767 -1.1615 -0.0208  1.4702
   51DOPE   H3S 6488   2.465   2.812  10.775 -0.8515  2.1376 -0.3553
   51DOPE   C24 6489   2.555   3.004  10.825 -0.2055 -0.0455 -0.4593
   51DOPE   H4R 6490   2.453   3.047  10.833 -1.0082 -2.1004  2.2130
   51DOPE   H4S 6491   2.613   3.088  10.782  0.2948  0.8632  1.8257
   51DOPE   C25 6492   2.603   2.974  10.968  0.2720 -0.1631  0.1465
   51DOPE   H5R 6493   2.638   3.069  11.015  1.6260 -0.2007 -0.7104
   51DOPE   H5S 6494   2.692   2.910  10.986 -0.3880 -1.0253  0.3531
   51DOPE   C26 6495   2.499   2.914  11.067 -0.1168  0.7982  0.0505
   51DOPE   H6R 6496   2.431   2.842  11.018 -0.5049  1.6572 -0.7167
   51DOPE   H6S 6497   2.421   2.992  11.081 -0.6968  0.0438  1.1945
   51DOPE   C27 6498   2.551   2.896  11.208 -0.5802  0.6092 -0.4186
   51DOPE   H7R 6499   2.624   2.974  11.239 -0.6745  1.8195 -2.9636
   51DOPE   H7S 6500   2.606   2.800  11.209  0.2716  1.0829  0.7449
   51DOPE   C28 6501   2.437   2.887  11.314 -0.2246 -0.2575  0.4177
   51DOPE   H8R 6502   2.349   2.941  11.272  0.3460  0.0062 -0.4825
   51DOPE   H8S 6503   2.469   2.951  11.399  0.8182 -0.4863  0.2113
   51DOPE   C29 6504   2.400   2.752  11.366  0.1689 -0.4092  0.1307
   51DOPE   H9R 6505   2.395   2.670  11.294 -0.9561  0.3818 -0.7274
   51DOPE  C210 6506   2.394   2.720  11.495  0.5947 -0.0504  0.4724
   51DOPE  H10R 6507   2.355   2.618  11.510 -0.4682  0.2086 -0.3434
   51DOPE  C211 6508   2.415   2.818  11.611  0.5126  0.8558 -0.0689
   51DOPE  H11R 6509   2.327   2.879  11.637  0.8897  1.2686  0.2555
   51DOPE  H11S 6510   2.495   2.895  11.612  1.0197  0.3375  0.4024
   51DOPE  C212 6511   2.462   2.737  11.733  0.6658  0.0632  0.7102
   51DOPE  H12R 6512   2.551   2.674  11.710 -0.3731 -1.0638 -0.4071
   51DOPE  H12S 6513   2.386   2.664  11.770  2.8336 -2.5319  0.3429
   51DOPE  C213 6514   2.498   2.825  11.855 -0.8222  0.5591 -0.1162
   51DOPE  H13R 6515   2.586   2.887  11.830 -0.0854 -0.0259  0.9194
   51DOPE  H13S 6516   2.528   2.758  11.939 -0.0025  0.5372 -0.4160
   51DOPE  C214 6517   2.385   2.925  11.899  0.4308  0.1456 -0.2632
   51DOPE  H14R 6518   2.292   2.875  11.932  1.5422 -1.5625  0.4231
   51DOPE  H14S 6519   2.359   2.983  11.808 -0.8486 -0.0146 -0.0074
   51DOPE  C215 6520   2.442   3.019  12.008  0.4356 -0.5163  0.4304
   51DOPE  H15R 6521   2.529   3.073  11.965  1.3745 -1.6819  0.8324
   51DOPE  H15S 6522   2.486   2.951  12.083 -1.7920 -1.3344  1.0863
   51DOPE  C216 6523   2.339   3.110  12.085  0.2737 -0.3941  0.5057
   51DOPE  H16R 6524   2.284   3.181  12.019 -1.8368 -0.8862  1.6546
   51DOPE  H16S 6525   2.398   3.172  12.156  0.3372  1.3576 -0.9803
   51DOPE  C217 6526   2.245   3.030  12.173  0.6378 -0.1590 -0.1311
   51DOPE  H17R 6527   2.313   2.977  12.244  0.4904 -0.2764 -0.0767
   51DOPE  H17S 6528   2.198   2.944  12.121  1.2083 -0.0790 -0.7861
   51DOPE  C218 6529   2.138   3.105  12.255  0.8374 -0.1100  0.3042
   51DOPE  H18R 6530   2.184   3.160  12.340  0.1645  0.4649  0.3122
   51DOPE  H18S 6531   2.053   3.044  12.292  0.5421  0.0525 -0.0928
   51DOPE  H18T 6532   2.089   3.188  12.200  0.5472 -0.0581  0.6341
   51DOPE   C33 6533   2.883   3.420  10.912 -0.1017  0.6973  0.5147
   51DOPE   H3X 6534   2.804   3.497  10.920 -1.0561 -0.2901  0.8302
   51DOPE   H3Y 6535   2.965   3.468  10.855 -1.2195  2.5790  0.4136
   51DOPE   C34 6536   2.914   3.378  11.054  0.5833  0.6727  0.0586
   51DOPE   H4X 6537   2.941   3.270  11.059 -2.1210 -0.1202 -0.6710
   51DOPE   H4Y 6538   2.986   3.444  11.105  2.0708 -0.2255 -0.8128
   51DOPE   C35 6539   2.793   3.387  11.148  0.5283  0.9125 -0.3126
   51DOPE   H5X 6540   2.723   3.301  11.139  0.6381  0.6553  0.9976
   51DOPE   H5Y 6541   2.737   3.480  11.127  0.5457  1.5157  1.9860
   51DOPE   C36 6542   2.833   3.384  11.290 -0.3589 -0.3170  0.1116
   51DOPE   H6X 6543   2.865   3.484  11.327  0.6555  0.0377 -1.5926
   51DOPE   H6Y 6544   2.914   3.309  11.303  0.7240  0.3701 -2.0594
   51DOPE   C37 6545   2.718   3.334  11.381 -0.1692 -0.1449 -0.0104
   51DOPE   H7X 6546   2.639   3.412  11.389  1.5016  1.7837 -1.4515
   51DOPE   H7Y 6547   2.670   3.242  11.341  0.8730 -0.5389 -0.3885
   51DOPE   C38 6548   2.764   3.309  11.523  0.8502  0.6580  0.6365
   51DOPE   H8X 6549   2.803   3.405  11.563  1.3282  0.8766 -0.3411
   51DOPE   H8Y 6550   2.847   3.235  11.530  1.0263  0.8904  1.0516
   51DOPE   C39 6551   2.651   3.240  11.605  0.0688  0.2642  0.0795
   51DOPE   H9X 6552   2.635   3.137  11.569  0.4919  0.2218 -0.0019
   51DOPE  C310 6553   2.587   3.291  11.711 -0.5824  0.2444  0.0785
   51DOPE  H10X 6554   2.514   3.227  11.764  0.4595  1.2563  2.9349
   51DOPE  C311 6555   2.587   3.426  11.777 -0.9518  0.5305 -0.6268
   51DOPE  H11X 6556   2.639   3.502  11.715  1.2473 -0.1668  0.2745
   51DOPE  H11Y 6557   2.482   3.452  11.803 -0.6916  1.7096 -0.6619
   51DOPE  C312 6558   2.656   3.459  11.916 -0.3894 -0.6186 -0.2565
   51DOPE  H12X 6559   2.603   3.406  11.998 -0.5678  1.8895  1.3401
   51DOPE  H12Y 6560   2.650   3.568  11.932  2.0773 -0.3838 -0.5524
   51DOPE  C313 6561   2.811   3.424  11.931  0.0291 -0.5190 -0.3734
   51DOPE  H13X 6562   2.827   3.331  11.872  2.4338 -0.1955 -0.3072
   51DOPE  H13Y 6563   2.875   3.505  11.890  0.2490 -0.1171  0.7277
   51DOPE  C314 6564   2.850   3.396  12.080 -0.2969 -0.1461 -0.1385
   51DOPE  H14X 6565   2.812   3.296  12.112  0.2076 -0.0122  0.9393
   51DOPE  H14Y 6566   2.814   3.483  12.139  0.8689  0.8739 -0.8837
   51DOPE  C315 6567   3.003   3.382  12.098 -0.0753 -0.4192 -0.2850
   51DOPE  H15X 6568   3.053   3.470  12.053 -2.4989  1.7471  1.0210
   51DOPE  H15Y 6569   3.036   3.295  12.037 -1.2751 -0.3148 -1.1045
   51DOPE  C316 6570   3.058   3.358  12.241  0.1571 -0.0296  0.0913
   51DOPE  H16X 6571   3.001   3.279  12.295  1.3051 -0.8808  0.0846
   51DOPE  H16Y 6572   3.032   3.454  12.289  1.4419  0.1755  0.3895
   51DOPE  C317 6573   3.209   3.346  12.251 -0.9089 -0.4036  0.3385
   51DOPE  H17X 6574   3.249   3.269  12.181 -0.7047 -0.0277  0.0367
   51DOPE  H17Y 6575   3.243   3.446  12.219 -1.1173 -0.0793  1.1122
   51DOPE  C318 6576   3.248   3.332  12.398  0.7596  0.2498  0.0005
   51DOPE  H18X 6577   3.191   3.409  12.455  2.3167  2.4009 -1.1898
   51DOPE  H18Y 6578   3.217   3.231  12.431  0.1585 -0.4370 -2.4289
   51DOPE  H18Z 6579   3.359   3.333  12.400  0.7564  0.0521  0.3904
   52DOPE     N 6580   6.213   6.090   9.939  0.2454 -0.2205 -0.2527
   52DOPE   HN1 6581   6.234   6.024  10.016 -1.2455 -0.4077  0.0232
   52DOPE   HN2 6582   6.141   6.045   9.878 -0.1000  0.9256 -0.7085
   52DOPE   HN3 6583   6.300   6.100   9.884 -0.1051  4.9120 -0.3031
   52DOPE   C12 6584   6.171   6.226   9.987  0.0986  0.1109 -0.8738
   52DOPE  H12A 6585   6.258   6.290  10.011 -0.1597  0.4562 -0.8544
   52DOPE  H12B 6586   6.110   6.210  10.078  0.6719 -2.3042 -0.8409
   52DOPE   C11 6587   6.087   6.294   9.886  0.3022 -0.0054 -0.2213
   52DOPE  H11A 6588   6.060   6.397   9.920 -0.9354  0.4175 -2.3112
   52DOPE  H11B 6589   5.992   6.238   9.873 -1.0340  2.3408 -1.2249
   52DOPE     P 6590   6.130   6.420   9.657  0.0451  0.0175 -0.1750
   52DOPE   O13 6591   6.006   6.396   9.579 -0.1083 -0.4217 -0.0498
   52DOPE   O14 6592   6.247   6.449   9.565 -0.1426 -0.2885 -0.5779
   52DOPE   O11 6593   6.104   6.538   9.756  0.1548 -0.2786 -0.2563
   52DOPE   O12 6594   6.158   6.305   9.760 -0.0332 -0.8246 -0.2080
   52DOPE    C1 6595   6.153   6.673   9.732  0.0994  0.6056  0.0907
   52DOPE    HA 6596   6.072   6.749   9.732 -1.7624 -1.2929 -1.0810
   52DOPE    HB 6597   6.216   6.681   9.640  0.3191 -2.4312 -0.1132
   52DOPE    C2 6598   6.245   6.734   9.841  0.2030  0.2780 -0.7798
   52DOPE    HS 6599   6.341   6.677   9.850  0.3323  0.4876 -0.8344
   52DOPE   O21 6600   6.166   6.730   9.961  0.2300 -0.5447  0.0180
   52DOPE   C21 6601   6.193   6.623  10.038  0.1005 -0.3081 -0.3990
   52DOPE   O22 6602   6.274   6.535  10.017 -0.0823  0.0354 -0.4047
   52DOPE   C22 6603   6.112   6.643  10.165 -0.2518 -0.7400 -0.0503
   52DOPE   H2R 6604   6.017   6.697  10.145 -1.0298 -1.7119  0.8861
   52DOPE   H2S 6605   6.176   6.698  10.239 -0.4248  0.3362 -0.6826
   52DOPE    C3 6606   6.276   6.882   9.804 -0.0856 -0.4650  0.6480
   52DOPE    HX 6607   6.180   6.939   9.799  0.3782  0.2245 -2.2878
   52DOPE    HY 6608   6.310   6.873   9.698 -1.0806  0.2273  0.2544
   52DOPE   O31 6609   6.376   6.937   9.891  0.1955  0.0934  0.2994
   52DOPE   C31 6610   6.403   7.064   9.885  0.1982  0.0926  0.1650
   52DOPE   O32 6611   6.348   7.145   9.807  0.6123 -0.2832  0.2219
   52DOPE   C32 6612   6.505   7.120   9.987 -0.8992 -0.4669 -0.2273
   52DOPE   H2X 6613   6.606   7.099   9.945 -0.1397 -0.3977  1.5115
   52DOPE   H2Y 6614   6.507   7.230   9.969 -0.3870 -0.4009  0.2218
   52DOPE   C23 6615   6.080   6.508  10.227 -0.0577 -0.4650 -0.1692
   52DOPE   H3R 6616   6.176   6.459  10.254  0.0367 -0.3136 -0.2262
   52DOPE   H3S 6617   6.018   6.434  10.171 -1.3281  0.5026 -0.0695
   52DOPE   C24 6618   5.999   6.519  10.360  0.0951  0.3190 -0.0884
   52DOPE   H4R 6619   5.968   6.415  10.382  1.3678 -0.1337 -0.3399
   52DOPE   H4S 6620   5.903   6.574  10.350  0.2042  0.7886  1.1889
   52DOPE   C25 6621   6.087   6.563  10.481  1.0880  0.5987  0.1897
   52DOPE   H5R 6622   6.123   6.668  10.469 -0.4001  1.4444  2.4777
   52DOPE   H5S 6623   6.175   6.496  10.470 -0.8114 -1.8690 -0.8831
   52DOPE   C26 6624   6.014   6.542  10.616 -0.4595 -0.7446  0.5025
   52DOPE   H6R 6625   5.971   6.439  10.616  0.8441 -1.3508  2.7339
   52DOPE   H6S 6626   5.927   6.611  10.630  0.5045  0.2710  1.7153
   52DOPE   C27 6627   6.118   6.570  10.722 -0.6673  0.2479  0.2093
   52DOPE   H7R 6628   6.145   6.674  10.695  2.0050  0.2288  2.3682
   52DOPE   H7S 6629   6.204   6.500  10.721 -2.7838 -2.5972 -1.8320
   52DOPE   C28 6630   6.045   6.569  10.863  0.0678 -0.3392  0.4480
   52DOPE   H8R 6631   5.952   6.630  10.864  1.3861  1.7504  0.6062
   52DOPE   H8S 6632   6.120   6.611  10.933  1.4755 -2.1432  0.0885
   52DOPE   C29 6633   6.007   6.436  10.926  0.2333 -0.0627 -0.5168
   52DOPE   H9R 6634   6.038   6.348  10.867 -0.0141 -0.5136  0.0142
   52DOPE  C210 6635   5.932   6.422  11.039 -0.5161 -0.7298 -0.4273
   52DOPE  H10R 6636   5.923   6.318  11.074 -0.6952 -0.6135 -0.1209
   52DOPE  C211 6637   5.877   6.531  11.124  0.2992 -0.0154 -0.4247
   52DOPE  H11R 6638   5.767   6.520  11.137  0.4664 -1.2496  0.0560
   52DOPE  H11S 6639   5.891   6.638  11.096  0.2709  0.5012  1.4148
   52DOPE  C212 6640   5.952   6.498  11.255  0.6772 -0.4276 -0.1527
   52DOPE  H12R 6641   6.060   6.525  11.248  0.5574 -0.0886 -0.7927
   52DOPE  H12S 6642   5.937   6.391  11.282 -0.4232 -0.1403  0.4313
   52DOPE  C213 6643   5.905   6.578  11.373  0.7214 -0.6637  0.2227
   52DOPE  H13R 6644   5.795   6.566  11.384  0.0901  1.7926 -2.2334
   52DOPE  H13S 6645   5.908   6.686  11.347 -0.6471  0.1219  2.9893
   52DOPE  C214 6646   5.990   6.561  11.498  0.0302 -0.2025 -0.7930
   52DOPE  H14R 6647   6.095   6.593  11.484  1.2049 -1.0510  4.2594
   52DOPE  H14S 6648   5.986   6.455  11.532 -0.1742 -0.1680 -0.7110
   52DOPE  C215 6649   5.916   6.627  11.615 -0.3025 -0.1318  0.0254
   52DOPE  H15R 6650   5.809   6.598  11.616 -0.1782 -0.6945 -1.0220
   52DOPE  H15S 6651   5.910   6.734  11.587 -0.2721 -0.0013  0.5125
   52DOPE  C216 6652   5.992   6.605  11.746  0.1649 -0.2545  0.3291
   52DOPE  H16R 6653   6.095   6.644  11.733  0.8279 -1.4405  1.7436
   52DOPE  H16S 6654   5.996   6.495  11.765  1.6882 -0.2133  0.3710
   52DOPE  C217 6655   5.919   6.670  11.863 -0.1889 -0.5343  0.8496
   52DOPE  H17R 6656   5.935   6.608  11.954 -0.0042 -2.1804 -0.2497
   52DOPE  H17S 6657   5.812   6.680  11.835 -0.0559 -2.6448 -0.6436
   52DOPE  C218 6658   5.972   6.817  11.886 -0.1503 -0.3037 -0.3435
   52DOPE  H18R 6659   6.082   6.819  11.902  0.1860  1.0697 -2.4620
   52DOPE  H18S 6660   5.946   6.872  11.794 -2.1511  0.7301  0.7880
   52DOPE  H18T 6661   5.920   6.874  11.965  1.7046  1.8367 -0.5478
   52DOPE   C33 6662   6.489   7.081  10.134 -0.2892 -0.4758 -0.6078
   52DOPE   H3X 6663   6.380   7.088  10.153 -0.3100 -1.6481 -0.1760
   52DOPE   H3Y 6664   6.547   7.147  10.201  0.1671  0.4186 -1.8411
   52DOPE   C34 6665   6.522   6.932  10.177  0.3552  0.2410 -0.1434
   52DOPE   H4X 6666   6.472   6.867  10.102 -0.2762  0.2446  0.2641
   52DOPE   H4Y 6667   6.629   6.910  10.158  0.2525 -0.1007 -0.3465
   52DOPE   C35 6668   6.475   6.897  10.320  0.5474  0.2049 -0.1415
   52DOPE   H5X 6669   6.375   6.945  10.330 -0.8548 -1.6461 -3.5980
   52DOPE   H5Y 6670   6.538   6.942  10.399  0.5838 -2.3624  1.4369
   52DOPE   C36 6671   6.468   6.747  10.351  0.9348  0.1831  0.1537
   52DOPE   H6X 6672   6.568   6.703  10.334  0.8238 -0.4989  1.2043
   52DOPE   H6Y 6673   6.394   6.701  10.281  0.8624  1.7844 -0.8872
   52DOPE   C37 6674   6.411   6.701  10.485 -0.2820  0.4571 -0.4321
   52DOPE   H7X 6675   6.324   6.763  10.517 -2.2499 -1.0770 -2.4685
   52DOPE   H7Y 6676   6.383   6.593  10.478  2.1852 -0.2517 -0.1520
   52DOPE   C38 6677   6.521   6.694  10.601 -0.0518  0.5957  1.0028
   52DOPE   H8X 6678   6.604   6.630  10.565 -2.5705 -1.9639 -0.6909
   52DOPE   H8Y 6679   6.474   6.627  10.677  0.8081 -1.9029 -0.5593
   52DOPE   C39 6680   6.571   6.823  10.666 -0.2258  0.5406  0.2779
   52DOPE   H9X 6681   6.673   6.856  10.642 -0.0992 -0.0411  0.0056
   52DOPE  C310 6682   6.519   6.886  10.769 -0.2084  0.3108 -0.1205
   52DOPE  H10X 6683   6.558   6.985  10.798  0.1363  0.7194 -1.8651
   52DOPE  C311 6684   6.395   6.846  10.848 -0.1924 -0.4713  0.5970
   52DOPE  H11X 6685   6.338   6.941  10.850  1.4546  0.5769  0.1934
   52DOPE  H11Y 6686   6.331   6.775  10.792 -0.2899 -1.2269  1.6379
   52DOPE  C312 6687   6.415   6.783  10.992 -0.1079 -1.3746 -0.2858
   52DOPE  H12X 6688   6.520   6.747  10.991  0.3752 -0.1693 -2.9846
   52DOPE  H12Y 6689   6.342   6.699  10.994 -2.6557  0.7113 -0.3205
   52DOPE  C313 6690   6.394   6.877  11.114  0.2195  0.0863  0.6885
   52DOPE  H13X 6691   6.464   6.962  11.129 -0.1553  0.2950  1.2845
   52DOPE  H13Y 6692   6.290   6.916  11.114  0.3618  0.5261  2.0926
   52DOPE  C314 6693   6.396   6.797  11.247  0.1265 -0.3141  0.4251
   52DOPE  H14X 6694   6.480   6.725  11.249  1.1616  0.8705  0.5967
   52DOPE  H14Y 6695   6.301   6.738  11.244  1.4493 -2.5103 -1.3079
   52DOPE  C315 6696   6.397   6.878  11.382 -1.7815  0.3645  0.8103
   52DOPE  H15X 6697   6.497   6.927  11.377 -0.4117 -2.1113  2.2448
   52DOPE  H15Y 6698   6.392   6.810  11.469 -4.7141  0.6014  0.9326
   52DOPE  C316 6699   6.288   6.980  11.392 -0.2219  0.2546  0.1015
   52DOPE  H16X 6700   6.255   7.019  11.293 -0.5056  1.0517  0.5055
   52DOPE  H16Y 6701   6.326   7.055  11.464  2.5125 -0.8862 -0.0059
   52DOPE  C317 6702   6.161   6.924  11.460 -0.4660 -0.0796  0.3217
   52DOPE  H17X 6703   6.128   6.834  11.403  0.0284 -0.6287  0.8881
   52DOPE  H17Y 6704   6.196   6.891  11.560  1.3823  1.1065  0.1228
   52DOPE  C318 6705   6.041   7.014  11.488 -0.6454  0.1968  0.2002
   52DOPE  H18X 6706   5.990   7.053  11.397 -0.1217 -3.1818 -1.7305
   52DOPE  H18Y 6707   5.966   6.944  11.532 -3.5360  3.2460  0.5052
   52DOPE  H18Z 6708   6.061   7.091  11.566  1.5966 -0.7833  0.6585
   53DOPE     N 6709   3.711   2.546   9.864  0.2531 -0.0203  0.3976
   53DOPE   HN1 6710   3.794   2.507   9.816 -0.0473  0.3573 -0.4387
   53DOPE   HN2 6711   3.624   2.533   9.808  1.4557  0.2303 -1.5777
   53DOPE   HN3 6712   3.720   2.650   9.864 -1.0950  0.1724 -2.4456
   53DOPE   C12 6713   3.689   2.504  10.008  0.2933  0.0426  0.6065
   53DOPE  H12A 6714   3.687   2.393  10.017  1.1280  0.0429  0.8765
   53DOPE  H12B 6715   3.588   2.542  10.037  0.4396  0.8324  0.0948
   53DOPE   C11 6716   3.802   2.555  10.106  0.4394 -0.8955  0.7540
   53DOPE  H11A 6717   3.767   2.528  10.209 -0.9725  0.1908  0.5894
   53DOPE  H11B 6718   3.803   2.666  10.106  1.1558 -0.8911 -0.0373
   53DOPE     P 6719   4.007   2.392  10.152  0.0499  0.2251 -0.0245
   53DOPE   O13 6720   4.152   2.385  10.116  1.0931 -0.4166  0.1988
   53DOPE   O14 6721   3.928   2.270  10.148  0.5053 -0.3763 -0.3181
   53DOPE   O11 6722   3.996   2.440  10.299 -0.0902 -0.2547  0.6614
   53DOPE   O12 6723   3.927   2.505  10.072 -0.4139  0.4477 -0.2519
   53DOPE    C1 6724   4.058   2.551  10.351  0.4240 -0.1472  0.2238
   53DOPE    HA 6725   3.978   2.628  10.360 -0.4185 -0.6017 -2.5212
   53DOPE    HB 6726   4.129   2.595  10.278  0.9378 -0.4403  0.5431
   53DOPE    C2 6727   4.113   2.533  10.491 -0.1106  0.3770 -0.1450
   53DOPE    HS 6728   4.189   2.611  10.513  0.5775 -0.2001 -0.4384
   53DOPE   O21 6729   4.157   2.396  10.508  0.1395 -0.0642  0.7916
   53DOPE   C21 6730   4.250   2.363  10.426 -0.4753 -0.1504 -0.1062
   53DOPE   O22 6731   4.320   2.440  10.359  0.1974 -0.6359 -0.2295
   53DOPE   C22 6732   4.257   2.207  10.409  0.4777 -1.5204 -0.3276
   53DOPE   H2R 6733   4.229   2.186  10.304 -1.7767  0.9295 -0.3225
   53DOPE   H2S 6734   4.186   2.166  10.484  0.4892  0.0261  0.5772
   53DOPE    C3 6735   4.001   2.552  10.595  0.1379 -0.7203 -0.5579
   53DOPE    HX 6736   3.947   2.455  10.591  0.9139 -1.1438 -1.1975
   53DOPE    HY 6737   3.934   2.635  10.565  1.1096 -0.2321 -1.4617
   53DOPE   O31 6738   4.053   2.578  10.730  0.4591 -0.1408  0.2165
   53DOPE   C31 6739   4.001   2.679  10.795 -0.5365 -0.4011 -0.5705
   53DOPE   O32 6740   3.922   2.767  10.755 -0.5980 -0.4453  0.5413
   53DOPE   C32 6741   4.067   2.679  10.931 -0.4525  0.1027 -0.0595
   53DOPE   H2X 6742   4.081   2.574  10.966 -1.8392 -0.2775 -0.5650
   53DOPE   H2Y 6743   4.163   2.730  10.913 -1.6435  2.9381  1.0742
   53DOPE   C23 6744   4.401   2.160  10.441  1.0506 -0.4126  0.2412
   53DOPE   H3R 6745   4.484   2.210  10.386  1.4237 -1.1200  0.1565
   53DOPE   H3S 6746   4.410   2.051  10.425 -2.6942 -0.5618 -1.8251
   53DOPE   C24 6747   4.430   2.168  10.595 -0.7916 -0.1289 -0.2533
   53DOPE   H4R 6748   4.343   2.125  10.650 -0.1382 -0.8838  0.2115
   53DOPE   H4S 6749   4.432   2.275  10.626 -2.5183  0.1314 -0.9024
   53DOPE   C25 6750   4.556   2.087  10.619  0.5609  0.1523  0.7477
   53DOPE   H5R 6751   4.641   2.126  10.560  0.3976 -2.9322 -1.8243
   53DOPE   H5S 6752   4.536   1.988  10.573 -0.3059  1.3257 -1.5571
   53DOPE   C26 6753   4.579   2.076  10.770  0.2768 -0.3513 -0.2648
   53DOPE   H6R 6754   4.497   2.025  10.826  1.4798 -1.8727  0.1755
   53DOPE   H6S 6755   4.590   2.178  10.811  2.6305 -0.6218 -0.1084
   53DOPE   C27 6756   4.713   2.005  10.804 -0.1429  0.3090 -0.1080
   53DOPE   H7R 6757   4.781   2.038  10.723  1.5274  0.0274  1.1488
   53DOPE   H7S 6758   4.704   1.894  10.797  0.5806  0.3050 -1.3973
   53DOPE   C28 6759   4.784   2.044  10.935 -0.2322 -0.2580 -0.4168
   53DOPE   H8R 6760   4.735   1.991  11.019  0.5188 -0.4798 -0.1084
   53DOPE   H8S 6761   4.764   2.153  10.928 -1.0842 -0.5094 -3.2166
   53DOPE   C29 6762   4.932   2.024  10.935 -0.3665 -0.1396 -0.0461
   53DOPE   H9R 6763   4.982   1.970  10.853  2.5734 -0.5601  1.8805
   53DOPE  C210 6764   5.024   2.078  11.025  0.6151  0.3523  0.4322
   53DOPE  H10R 6765   5.131   2.068  11.002  1.1160 -0.8641  3.0116
   53DOPE  C211 6766   4.989   2.166  11.140 -0.1316 -0.1071 -0.5175
   53DOPE  H11R 6767   4.894   2.221  11.119  0.9440  1.6700 -0.9630
   53DOPE  H11S 6768   5.065   2.245  11.157  0.0475 -0.5647  0.8669
   53DOPE  C212 6769   4.964   2.086  11.264 -0.2574 -0.3011  0.6775
   53DOPE  H12R 6770   5.067   2.053  11.288  0.5493  2.5596  1.6021
   53DOPE  H12S 6771   4.878   2.016  11.251 -0.5144  0.0181  0.6420
   53DOPE  C213 6772   4.931   2.184  11.375  0.2777 -0.3389  0.2332
   53DOPE  H13R 6773   4.824   2.209  11.356  0.6351  0.5069 -0.8059
   53DOPE  H13S 6774   4.981   2.283  11.362 -2.5973  0.9321 -2.9826
   53DOPE  C214 6775   4.943   2.126  11.513 -0.6479 -0.0479  0.3305
   53DOPE  H14R 6776   5.047   2.096  11.537 -0.3376  0.8816  0.2006
   53DOPE  H14S 6777   4.894   2.027  11.520  0.6597 -1.1612 -3.6066
   53DOPE  C215 6778   4.877   2.218  11.615 -1.0455  0.1541 -0.9055
   53DOPE  H15R 6779   4.856   2.172  11.714 -2.7954  5.6462  1.6808
   53DOPE  H15S 6780   4.783   2.252  11.567 -1.0794  1.6450  0.1502
   53DOPE  C216 6781   4.951   2.353  11.646 -0.4173 -0.0363  0.3657
   53DOPE  H16R 6782   4.995   2.388  11.550  2.2682  0.0121  1.5373
   53DOPE  H16S 6783   5.044   2.333  11.703  0.3783  1.3149 -0.4185
   53DOPE  C217 6784   4.860   2.460  11.711  0.4668  0.4792  1.0067
   53DOPE  H17R 6785   4.763   2.451  11.657  1.4236  0.3113 -0.7462
   53DOPE  H17S 6786   4.894   2.564  11.692 -1.7988  0.9804 -0.6828
   53DOPE  C218 6787   4.826   2.451  11.858  0.2625  0.6509  0.1766
   53DOPE  H18R 6788   4.762   2.534  11.893  0.6220  1.0249 -0.0417
   53DOPE  H18S 6789   4.917   2.465  11.920  1.1825 -0.3335 -0.9025
   53DOPE  H18T 6790   4.771   2.356  11.875  1.7387 -0.4601 -0.9516
   53DOPE   C33 6791   3.982   2.750  11.035 -0.3143  0.1558 -0.2152
   53DOPE   H3X 6792   3.918   2.676  11.087  2.6125 -0.7935  2.3266
   53DOPE   H3Y 6793   3.915   2.826  10.988  0.8650  1.2693 -0.1526
   53DOPE   C34 6794   4.078   2.816  11.146  0.3358  0.2710 -0.2129
   53DOPE   H4X 6795   4.138   2.727  11.174 -2.1930 -1.6067 -0.4099
   53DOPE   H4Y 6796   4.143   2.893  11.099  0.2862  1.4074  1.5144
   53DOPE   C35 6797   4.002   2.882  11.263  0.2549 -0.2492  0.2347
   53DOPE   H5X 6798   3.917   2.818  11.295 -0.6104  1.0109  0.5198
   53DOPE   H5Y 6799   3.957   2.970  11.211 -0.2962 -0.4278  0.4005
   53DOPE   C36 6800   4.100   2.918  11.383  0.5085 -0.1956  0.1378
   53DOPE   H6X 6801   4.183   2.968  11.329 -1.0318 -1.3277 -3.6114
   53DOPE   H6Y 6802   4.137   2.821  11.423  1.5545  0.0330 -0.2565
   53DOPE   C37 6803   4.012   2.990  11.482 -0.4161  0.4304  0.1355
   53DOPE   H7X 6804   4.000   3.094  11.445 -0.4675 -0.1661 -1.6060
   53DOPE   H7Y 6805   3.909   2.952  11.469 -0.0095  0.2944 -3.8367
   53DOPE   C38 6806   4.054   2.981  11.632  0.1125 -0.1165  0.4547
   53DOPE   H8X 6807   4.105   2.886  11.659 -0.4820 -0.5883 -0.0565
   53DOPE   H8Y 6808   3.955   2.984  11.684 -1.3651  0.1188 -2.1749
   53DOPE   C39 6809   4.138   3.098  11.678 -0.5492  0.0540  0.8217
   53DOPE   H9X 6810   4.191   3.160  11.603 -0.2213  0.9575  1.7781
   53DOPE  C310 6811   4.159   3.133  11.804 -0.2294  0.0999  0.9263
   53DOPE  H10X 6812   4.228   3.217  11.820 -0.3769  0.1101  1.5212
   53DOPE  C311 6813   4.114   3.053  11.927  0.1476  0.0679  0.2849
   53DOPE  H11X 6814   4.013   3.007  11.911  0.2414 -0.4957  1.2628
   53DOPE  H11Y 6815   4.194   2.979  11.948  0.5558  0.3532 -0.2263
   53DOPE  C312 6816   4.120   3.140  12.059 -0.4622  0.4525 -0.1442
   53DOPE  H12X 6817   4.034   3.211  12.061  0.3970  1.5775 -1.5586
   53DOPE  H12Y 6818   4.215   3.197  12.054  0.0197 -0.1451  1.5596
   53DOPE  C313 6819   4.131   3.048  12.189  0.1159 -0.3870  0.4393
   53DOPE  H13X 6820   4.213   2.975  12.170  0.5971  0.3661 -0.4674
   53DOPE  H13Y 6821   4.170   3.110  12.273  1.3876  0.9090 -1.0452
   53DOPE  C314 6822   4.020   2.951  12.217  0.0875  0.4262 -0.3499
   53DOPE  H14X 6823   3.994   2.882  12.134  2.0205 -1.3515  0.4421
   53DOPE  H14Y 6824   3.925   3.002  12.248 -0.3938 -1.1535  0.8905
   53DOPE  C315 6825   4.062   2.861  12.336  0.0456  0.1517 -0.1990
   53DOPE  H15X 6826   4.108   2.921  12.418 -1.2623  1.3884 -0.3363
   53DOPE  H15Y 6827   4.133   2.785  12.298 -1.3972 -1.7938  0.7966
   53DOPE  C316 6828   3.950   2.773  12.386  0.1476 -0.2936  0.3855
   53DOPE  H16X 6829   4.000   2.689  12.439  0.5803  0.9329  2.0471
   53DOPE  H16Y 6830   3.886   2.726  12.309 -1.2362  3.2953 -0.8848
   53DOPE  C317 6831   3.864   2.847  12.494  0.1843  0.0096  0.4661
   53DOPE  H17X 6832   3.832   2.936  12.435  2.9850 -0.4223 -1.9242
   53DOPE  H17Y 6833   3.776   2.785  12.519 -0.8815  0.3397 -2.1804
   53DOPE  C318 6834   3.946   2.902  12.611 -0.2959  0.1235  0.0215
   53DOPE  H18X 6835   3.881   2.951  12.687 -1.2239  1.0352 -1.3201
   53DOPE  H18Y 6836   4.020   2.832  12.656  1.8816  1.1960 -1.7029
   53DOPE  H18Z 6837   4.002   2.991  12.574  1.8131 -1.0789  0.1471
   54DOPE     N 6838   6.633   5.311   9.602 -0.3117  0.4422 -0.6118
   54DOPE   HN1 6839   6.733   5.337   9.618 -0.1144  2.6011 -4.2244
   54DOPE   HN2 6840   6.619   5.208   9.602 -1.9430  0.6410 -0.7683
   54DOPE   HN3 6841   6.612   5.345   9.506 -0.3201  1.8160 -0.1403
   54DOPE   C12 6842   6.529   5.366   9.696 -0.1352  0.4505  0.0990
   54DOPE  H12A 6843   6.432   5.313   9.683 -0.4816  1.0354  0.2772
   54DOPE  H12B 6844   6.515   5.474   9.674 -2.7403 -0.0753 -1.2002
   54DOPE   C11 6845   6.588   5.360   9.841  0.4663 -0.5202 -0.7769
   54DOPE  H11A 6846   6.693   5.393   9.849 -0.3855  2.5509 -0.9222
   54DOPE  H11B 6847   6.589   5.260   9.888 -0.6018 -0.0232  0.3646
   54DOPE     P 6848   6.392   5.402  10.007  0.2272  0.1660 -0.0102
   54DOPE   O13 6849   6.316   5.304   9.927  0.0305 -0.5094  0.0967
   54DOPE   O14 6850   6.315   5.517  10.059 -0.8918 -0.2180 -0.3393
   54DOPE   O11 6851   6.452   5.321  10.129 -0.2118  0.5342  0.2611
   54DOPE   O12 6852   6.520   5.450   9.931  0.6104 -1.1886 -0.4366
   54DOPE    C1 6853   6.493   5.391  10.246 -0.4379  0.2795  0.5050
   54DOPE    HA 6854   6.541   5.490  10.230  0.5292 -0.4465 -1.3360
   54DOPE    HB 6855   6.574   5.328  10.289  0.4463 -0.3879 -1.9707
   54DOPE    C2 6856   6.382   5.390  10.358 -0.1822 -0.4178 -0.0837
   54DOPE    HS 6857   6.287   5.446  10.345  0.4460  1.1233  1.6270
   54DOPE   O21 6858   6.442   5.423  10.493 -0.2714  0.5402  0.1623
   54DOPE   C21 6859   6.480   5.552  10.494 -0.5086  0.1305  0.1880
   54DOPE   O22 6860   6.446   5.638  10.417 -0.2641 -0.3092  0.2458
   54DOPE   C22 6861   6.575   5.571  10.611  0.9526  0.4630 -0.3068
   54DOPE   H2R 6862   6.679   5.585  10.576  0.5305  0.2996 -1.7071
   54DOPE   H2S 6863   6.573   5.487  10.684  0.7606  0.2502 -0.5554
   54DOPE    C3 6864   6.330   5.247  10.377  0.9256 -0.2005 -0.0348
   54DOPE    HX 6865   6.417   5.179  10.386  0.3293 -1.1810 -1.4043
   54DOPE    HY 6866   6.275   5.209  10.288  0.1088  1.9326 -0.5169
   54DOPE   O31 6867   6.246   5.242  10.495 -0.4244  0.1689 -0.1284
   54DOPE   C31 6868   6.200   5.124  10.525 -0.1983  0.8826  0.2133
   54DOPE   O32 6869   6.214   5.020  10.463  0.2405 -0.0041 -0.4480
   54DOPE   C32 6870   6.126   5.139  10.659 -0.1156  0.1986  0.3099
   54DOPE   H2X 6871   6.033   5.198  10.648 -0.0284  0.2525 -0.1718
   54DOPE   H2Y 6872   6.101   5.037  10.694  3.0037 -0.0432  2.2812
   54DOPE   C23 6873   6.529   5.700  10.688 -0.0455 -0.2622 -0.1362
   54DOPE   H3R 6874   6.419   5.714  10.698  0.1332  0.7338  0.6715
   54DOPE   H3S 6875   6.571   5.787  10.632 -1.1978 -0.1755 -0.9039
   54DOPE   C24 6876   6.589   5.693  10.831 -0.0607  0.4187 -0.3016
   54DOPE   H4R 6877   6.696   5.667  10.815 -0.4997 -1.4053 -0.4511
   54DOPE   H4S 6878   6.540   5.612  10.890  1.1523  0.0561  0.2383
   54DOPE   C25 6879   6.587   5.831  10.907  0.0559  0.0067  0.0092
   54DOPE   H5R 6880   6.480   5.861  10.916 -0.1384 -0.7485  0.2318
   54DOPE   H5S 6881   6.641   5.890  10.830  0.1007 -2.6386 -2.1406
   54DOPE   C26 6882   6.676   5.833  11.036  0.1676 -0.4844 -0.4144
   54DOPE   H6R 6883   6.778   5.794  11.018  0.3472 -0.7536  1.0579
   54DOPE   H6S 6884   6.638   5.773  11.122 -2.1017  0.9183 -0.3489
   54DOPE   C27 6885   6.686   5.984  11.092 -0.1171  0.5190  0.0644
   54DOPE   H7R 6886   6.583   6.022  11.107  0.3131  1.4794  0.7515
   54DOPE   H7S 6887   6.739   6.046  11.017  1.8961 -2.3587 -1.0577
   54DOPE   C28 6888   6.746   5.985  11.237 -0.0475  0.4566 -0.6724
   54DOPE   H8R 6889   6.779   6.082  11.278 -0.4234  0.4089 -0.2611
   54DOPE   H8S 6890   6.837   5.922  11.226 -1.7092 -1.7798 -3.0603
   54DOPE   C29 6891   6.666   5.907  11.337 -0.0601 -0.3227 -0.1258
   54DOPE   H9R 6892   6.664   5.798  11.322  2.0397 -0.0920 -3.0542
   54DOPE  C210 6893   6.608   5.951  11.446 -1.0068  0.3122  0.5619
   54DOPE  H10R 6894   6.567   5.878  11.518  0.1404 -0.6145  0.3028
   54DOPE  C211 6895   6.602   6.091  11.494 -0.3902  0.8576  0.3228
   54DOPE  H11R 6896   6.499   6.132  11.508 -0.3945  0.2234  2.5287
   54DOPE  H11S 6897   6.649   6.170  11.431 -0.2716  1.1563  0.7780
   54DOPE  C212 6898   6.674   6.111  11.629  0.5320 -0.2712  0.2311
   54DOPE  H12R 6899   6.660   6.219  11.650 -1.5240 -0.4745  0.1433
   54DOPE  H12S 6900   6.777   6.070  11.640  0.1978 -0.5900  2.6947
   54DOPE  C213 6901   6.590   6.040  11.740  0.1418  0.2850 -0.7217
   54DOPE  H13R 6902   6.578   5.932  11.721 -1.0591 -0.1292  1.9408
   54DOPE  H13S 6903   6.488   6.081  11.754 -0.3342 -1.8449  4.4666
   54DOPE  C214 6904   6.649   6.048  11.882  0.4417  0.1872 -0.1880
   54DOPE  H14R 6905   6.648   6.151  11.923  1.1291 -0.5672  1.8873
   54DOPE  H14S 6906   6.757   6.019  11.881  0.6462  0.9363 -0.1435
   54DOPE  C215 6907   6.575   5.965  11.984  0.4563  1.1513 -0.2728
   54DOPE  H15R 6908   6.586   5.860  11.952  1.2200  0.7413  1.2478
   54DOPE  H15S 6909   6.466   5.986  11.989  0.2916  0.1806  0.3319
   54DOPE  C216 6910   6.636   5.988  12.129 -0.1451 -0.3079 -0.8313
   54DOPE  H16R 6911   6.610   6.094  12.150 -2.3747 -0.6845 -1.3833
   54DOPE  H16S 6912   6.746   5.975  12.133  0.0678  1.3697  2.2426
   54DOPE  C217 6913   6.570   5.890  12.231  0.8831  0.1302  0.4292
   54DOPE  H17R 6914   6.552   5.797  12.173  1.7775 -0.4270  1.0151
   54DOPE  H17S 6915   6.467   5.924  12.254  0.1248 -1.9277  0.2443
   54DOPE  C218 6916   6.646   5.858  12.355 -0.5464 -0.6697  0.3211
   54DOPE  H18R 6917   6.601   5.769  12.404  2.9715 -1.7949  1.8487
   54DOPE  H18S 6918   6.655   5.938  12.431  0.8517  0.2510 -0.7607
   54DOPE  H18T 6919   6.753   5.838  12.334  0.3113  1.1881  2.5012
   54DOPE   C33 6920   6.207   5.175  10.781 -0.2310  0.1944  0.0192
   54DOPE   H3X 6921   6.247   5.277  10.764  1.4003 -0.7296 -2.2034
   54DOPE   H3Y 6922   6.296   5.114  10.808  0.4292  1.0040 -0.2735
   54DOPE   C34 6923   6.119   5.191  10.903  0.1301  0.7139  0.1669
   54DOPE   H4X 6924   6.053   5.278  10.884 -3.6549 -1.6993  1.0136
   54DOPE   H4Y 6925   6.046   5.108  10.915  1.2965 -0.0566  2.5909
   54DOPE   C35 6926   6.197   5.185  11.033 -0.0706  0.4016  0.0765
   54DOPE   H5X 6927   6.273   5.265  11.044  2.7101 -1.8672 -1.2233
   54DOPE   H5Y 6928   6.243   5.083  11.027 -0.4851  0.1115  1.5396
   54DOPE   C36 6929   6.108   5.186  11.156  0.7495 -0.7588  0.2320
   54DOPE   H6X 6930   6.020   5.121  11.136 -0.2931  0.8215 -0.5762
   54DOPE   H6Y 6931   6.048   5.280  11.156  1.6327 -0.1526 -1.4484
   54DOPE   C37 6932   6.177   5.136  11.279  0.3190  0.2864  0.5542
   54DOPE   H7X 6933   6.200   5.028  11.265 -1.4350 -0.0176 -0.2422
   54DOPE   H7Y 6934   6.275   5.188  11.276  1.6997 -2.1275  1.3119
   54DOPE   C38 6935   6.109   5.154  11.412 -0.0361  0.2528 -0.3164
   54DOPE   H8X 6936   6.168   5.098  11.487  0.5245  0.2444 -0.7596
   54DOPE   H8Y 6937   6.009   5.105  11.419  0.9830 -1.7914  1.0277
   54DOPE   C39 6938   6.077   5.296  11.452  1.2656  0.0212 -0.1412
   54DOPE   H9X 6939   6.074   5.362  11.365 -0.6135  0.0199 -0.1264
   54DOPE  C310 6940   6.047   5.330  11.578 -0.2907  0.4137  0.0235
   54DOPE  H10X 6941   6.044   5.435  11.607  0.6947 -0.3643  3.2943
   54DOPE  C311 6942   6.031   5.230  11.686 -0.2458 -0.5219  0.2020
   54DOPE  H11X 6943   5.989   5.131  11.660  1.0519 -1.2436  0.7241
   54DOPE  H11Y 6944   6.128   5.213  11.738  0.0431  1.2356  0.3107
   54DOPE  C312 6945   5.938   5.281  11.794  0.1189 -0.3525  0.2998
   54DOPE  H12X 6946   5.833   5.264  11.762 -0.4819 -0.5945  2.2619
   54DOPE  H12Y 6947   5.939   5.390  11.815 -0.8183 -0.7506  2.8023
   54DOPE  C313 6948   5.956   5.214  11.933 -0.1823 -0.3932 -0.4474
   54DOPE  H13X 6949   5.963   5.104  11.918 -0.7372 -0.7064  1.4280
   54DOPE  H13Y 6950   6.058   5.243  11.965 -0.5932 -1.1909  1.7269
   54DOPE  C314 6951   5.837   5.253  12.028 -0.2109 -0.0585 -0.5890
   54DOPE  H14X 6952   5.745   5.198  12.002 -1.0871 -0.1143  2.2465
   54DOPE  H14Y 6953   5.820   5.363  12.019 -1.3804  0.0323  1.7268
   54DOPE  C315 6954   5.868   5.227  12.176  0.2560  0.1380  0.1448
   54DOPE  H15X 6955   5.956   5.293  12.195 -0.2233  0.5022  1.1378
   54DOPE  H15Y 6956   5.889   5.118  12.186 -0.9476  0.0106  1.6792
   54DOPE  C316 6957   5.756   5.274  12.262 -0.2287  0.3770 -0.0893
   54DOPE  H16X 6958   5.660   5.228  12.232 -0.5750 -0.3630  1.9913
   54DOPE  H16Y 6959   5.744   5.383  12.248 -1.3340  0.2709 -0.0468
   54DOPE  C317 6960   5.788   5.248  12.413  0.4736  0.5065 -0.3876
   54DOPE  H17X 6961   5.896   5.262  12.432  0.5706 -0.3626 -0.2149
   54DOPE  H17Y 6962   5.728   5.323  12.469 -0.6390 -0.5860 -0.0702
   54DOPE  C318 6963   5.753   5.115  12.474  0.0769  0.1132 -0.4134
   54DOPE  H18X 6964   5.799   5.102  12.575 -0.3496 -0.3540 -0.2768
   54DOPE  H18Y 6965   5.642   5.106  12.477  0.1082 -0.4508 -0.7842
   54DOPE  H18Z 6966   5.793   5.038  12.405  1.6453  2.1560 -1.8980
   55DOPE     N 6967   0.072   1.134   9.303  0.1938  0.3437 -0.4031
   55DOPE   HN1 6968  -0.023   1.115   9.341  0.0533  0.7178 -0.5687
   55DOPE   HN2 6969   0.070   1.173   9.207 -1.3033 -0.0879 -0.5632
   55DOPE   HN3 6970   0.114   1.039   9.294 -0.5364  0.0266 -0.5303
   55DOPE   C12 6971   0.145   1.217   9.400 -0.3199  0.0472 -0.4762
   55DOPE  H12A 6972   0.088   1.313   9.408 -1.2044 -0.3555 -1.6065
   55DOPE  H12B 6973   0.248   1.230   9.361 -0.1952 -0.8535 -0.4554
   55DOPE   C11 6974   0.151   1.154   9.536  0.2525  0.7465  0.0533
   55DOPE  H11A 6975   0.195   1.224   9.609 -1.3478  1.8012  0.0600
   55DOPE  H11B 6976   0.219   1.066   9.527  0.1693  0.7084 -0.2121
   55DOPE     P 6977  -0.040   0.980   9.592 -0.3825 -0.3598  0.0208
   55DOPE   O13 6978  -0.020   0.924   9.457  0.5598  0.0973 -0.3977
   55DOPE   O14 6979  -0.173   0.952   9.653  0.0214  0.3959 -0.3340
   55DOPE   O11 6980   0.065   0.900   9.676  0.5983 -0.0333 -0.3697
   55DOPE   O12 6981   0.017   1.121   9.590 -0.7782 -0.7438 -0.4411
   55DOPE    C1 6982   0.125   0.951   9.796  0.6674  0.1846 -0.1355
   55DOPE    HA 6983   0.150   1.059   9.796  2.9927 -0.2701  1.8955
   55DOPE    HB 6984   0.224   0.902   9.805 -0.3739 -1.7830  1.4571
   55DOPE    C2 6985   0.050   0.925   9.927 -0.9501 -0.5455 -0.4123
   55DOPE    HS 6986   0.018   0.818   9.927 -1.3099 -0.4485  0.6719
   55DOPE   O21 6987  -0.069   1.011   9.941  0.2177  0.1818  0.1209
   55DOPE   C21 6988  -0.185   0.945   9.943 -0.5681 -0.4561 -0.3269
   55DOPE   O22 6989  -0.209   0.825   9.943 -0.1112 -0.2691 -0.2930
   55DOPE   C22 6990  -0.291   1.051   9.934 -0.2426  0.4652  0.0565
   55DOPE   H2R 6991  -0.382   0.997   9.901  1.3451 -2.8876  0.6966
   55DOPE   H2S 6992  -0.245   1.116   9.856 -0.8230  0.6402 -0.1419
   55DOPE    C3 6993   0.151   0.951  10.049 -0.0385  0.0744  0.1307
   55DOPE    HX 6994   0.186   1.056  10.052 -0.1373  0.1310 -0.4874
   55DOPE    HY 6995   0.246   0.894  10.041  0.3090  0.7978 -1.2764
   55DOPE   O31 6996   0.087   0.935  10.178  0.0786 -0.5274 -0.5329
   55DOPE   C31 6997   0.113   0.818  10.244 -0.4030 -0.1262 -0.0886
   55DOPE   O32 6998   0.180   0.728  10.203  0.5620 -0.5966 -0.1148
   55DOPE   C32 6999   0.055   0.810  10.381 -0.1801 -0.3717 -0.3174
   55DOPE   H2X 7000  -0.055   0.817  10.367 -0.0865 -0.4407 -1.1737
   55DOPE   H2Y 7001   0.075   0.711  10.427  0.2122 -1.1517 -2.0685
   55DOPE   C23 7002  -0.293   1.126  10.069 -0.1217 -0.5577  0.7463
   55DOPE   H3R 7003  -0.385   1.190  10.068 -0.5172 -1.1260 -0.3681
   55DOPE   H3S 7004  -0.217   1.204  10.089  0.4044 -0.9150  0.1415
   55DOPE   C24 7005  -0.307   1.028  10.185 -0.8694  0.4081  0.4776
   55DOPE   H4R 7006  -0.204   0.998  10.213  0.1701  1.6945 -1.7070
   55DOPE   H4S 7007  -0.367   0.942  10.151 -0.6497  0.2580  0.4679
   55DOPE   C25 7008  -0.363   1.103  10.306  0.5546 -0.7281 -0.0374
   55DOPE   H5R 7009  -0.449   1.161  10.266  1.1400 -0.8570 -1.5259
   55DOPE   H5S 7010  -0.286   1.176  10.338  0.9442 -0.8610 -0.6635
   55DOPE   C26 7011  -0.407   1.022  10.429 -0.4339  0.8410  0.2868
   55DOPE   H6R 7012  -0.391   0.916  10.398  2.2018  1.5574 -1.0998
   55DOPE   H6S 7013  -0.513   1.033  10.457 -1.0827  0.0333 -1.6712
   55DOPE   C27 7014  -0.309   1.038  10.555 -0.2642  0.5326 -0.2133
   55DOPE   H7R 7015  -0.326   1.141  10.594  3.0838  1.7135 -1.5231
   55DOPE   H7S 7016  -0.210   1.035  10.506 -0.3698  3.2066 -0.7614
   55DOPE   C28 7017  -0.311   0.928  10.664 -0.3353 -0.5775 -0.2068
   55DOPE   H8R 7018  -0.238   0.958  10.742 -0.6356 -0.6600  0.1120
   55DOPE   H8S 7019  -0.281   0.831  10.621 -0.0563 -0.2926 -0.6632
   55DOPE   C29 7020  -0.453   0.928  10.716  0.0733 -0.0488 -0.9747
   55DOPE   H9R 7021  -0.528   0.899  10.642  0.8929 -0.6105 -1.6000
   55DOPE  C210 7022  -0.476   0.948  10.847  0.0773 -0.0260 -0.5468
   55DOPE  H10R 7023  -0.575   0.920  10.887 -0.6506  0.4296 -1.9800
   55DOPE  C211 7024  -0.379   0.982  10.963  0.1437 -0.0421  0.7534
   55DOPE  H11R 7025  -0.318   1.068  10.930  0.2813  0.2801  1.8141
   55DOPE  H11S 7026  -0.306   0.898  10.969  1.6440  1.0306 -1.2231
   55DOPE  C212 7027  -0.457   1.013  11.095 -0.1723 -0.4833  0.3708
   55DOPE  H12R 7028  -0.525   0.930  11.124 -0.3134 -0.0008  1.4931
   55DOPE  H12S 7029  -0.512   1.108  11.073  1.9714  1.0972  1.4639
   55DOPE  C213 7030  -0.355   1.029  11.211 -0.6564  0.4216 -0.1011
   55DOPE  H13R 7031  -0.284   1.109  11.182  1.6729 -1.7684 -0.7564
   55DOPE  H13S 7032  -0.284   0.946  11.228 -2.3852 -1.3649 -1.2299
   55DOPE  C214 7033  -0.423   1.058  11.348  0.2997  0.8412  0.5048
   55DOPE  H14R 7034  -0.501   0.982  11.369 -0.3979  1.5652  0.5819
   55DOPE  H14S 7035  -0.480   1.152  11.337 -2.5608 -0.9708 -1.7207
   55DOPE  C215 7036  -0.327   1.064  11.460 -0.3239 -0.4319  0.1073
   55DOPE  H15R 7037  -0.259   1.151  11.445 -1.6493  1.0586  2.3261
   55DOPE  H15S 7038  -0.256   0.980  11.474 -0.5706 -0.7458 -0.4648
   55DOPE  C216 7039  -0.397   1.095  11.586  0.5798 -0.7092  0.2356
   55DOPE  H16R 7040  -0.468   1.010  11.591  1.0384 -1.1219 -0.1354
   55DOPE  H16S 7041  -0.437   1.198  11.601  1.2434 -0.5316  0.8570
   55DOPE  C217 7042  -0.307   1.081  11.706 -0.3420  0.2690 -0.3279
   55DOPE  H17R 7043  -0.239   1.168  11.718 -1.1485  0.6600  1.9434
   55DOPE  H17S 7044  -0.234   1.000  11.684  0.6090  1.3356 -1.2344
   55DOPE  C218 7045  -0.369   1.040  11.843  0.1654 -0.2516  0.0095
   55DOPE  H18R 7046  -0.432   0.949  11.841 -0.4860  0.1242  1.8346
   55DOPE  H18S 7047  -0.443   1.112  11.883  0.9364  0.0715  0.9077
   55DOPE  H18T 7048  -0.303   1.016  11.929 -1.4874 -1.3848  1.0212
   55DOPE   C33 7049   0.115   0.912  10.483  0.1717  0.4907 -0.1000
   55DOPE   H3X 7050   0.042   0.995  10.490  0.7931  0.9035  3.3723
   55DOPE   H3Y 7051   0.212   0.958  10.451 -0.5643  2.3031  0.1645
   55DOPE   C34 7052   0.109   0.864  10.631 -0.2475 -0.1976  0.1331
   55DOPE   H4X 7053   0.013   0.809  10.636 -0.0814 -0.3780  2.8507
   55DOPE   H4Y 7054   0.191   0.790  10.642  0.3334  0.6171  1.5239
   55DOPE   C35 7055   0.115   0.974  10.741 -0.4202 -0.5577  0.1573
   55DOPE   H5X 7056   0.030   1.043  10.719  0.2716  0.1738 -0.2925
   55DOPE   H5Y 7057   0.203   1.040  10.721 -0.5724 -0.9681 -2.2116
   55DOPE   C36 7058   0.132   0.921  10.884 -0.0311 -0.1454 -0.0414
   55DOPE   H6X 7059   0.148   1.001  10.959 -1.0850  2.4759 -2.4256
   55DOPE   H6Y 7060   0.211   0.844  10.902 -1.5415 -1.5324  1.0213
   55DOPE   C37 7061   0.005   0.857  10.939  0.3233 -0.3279 -0.3189
   55DOPE   H7X 7062   0.008   0.852  11.050 -3.0225  1.3955 -0.0001
   55DOPE   H7Y 7063  -0.085   0.916  10.911 -0.6462 -2.5157 -2.0904
   55DOPE   C38 7064   0.016   0.710  10.914  0.6833  0.1909 -0.4775
   55DOPE   H8X 7065   0.094   0.660  10.976 -0.5500 -0.9326  0.2018
   55DOPE   H8Y 7066   0.033   0.696  10.805 -1.6553  0.5662 -0.9409
   55DOPE   C39 7067  -0.115   0.638  10.933  0.3238 -0.5421 -0.2533
   55DOPE   H9X 7068  -0.182   0.636  10.846  0.2392  0.8874 -0.2326
   55DOPE  C310 7069  -0.153   0.587  11.058  0.1995  0.8395  1.1480
   55DOPE  H10X 7070  -0.255   0.547  11.065 -0.0728  1.0358 -1.0183
   55DOPE  C311 7071  -0.071   0.595  11.185  0.0773  0.2712 -0.8809
   55DOPE  H11X 7072   0.035   0.563  11.171 -0.0738 -0.4949 -0.3111
   55DOPE  H11Y 7073  -0.072   0.698  11.227  3.4004 -0.4612  1.4033
   55DOPE  C312 7074  -0.147   0.514  11.296 -1.0585  0.3265  0.1026
   55DOPE  H12X 7075  -0.177   0.417  11.250 -0.5411  1.2743 -2.4055
   55DOPE  H12Y 7076  -0.234   0.577  11.323 -1.3852 -0.3104  0.5816
   55DOPE  C313 7077  -0.048   0.487  11.414 -0.4922 -0.1823  0.1007
   55DOPE  H13X 7078   0.042   0.431  11.380 -0.2206  1.2239 -1.6765
   55DOPE  H13Y 7079  -0.012   0.585  11.451 -0.2669  0.4819 -1.7781
   55DOPE  C314 7080  -0.118   0.406  11.522 -0.5243  0.1165  0.4821
   55DOPE  H14X 7081  -0.176   0.324  11.474 -3.2247  0.7596  2.3549
   55DOPE  H14Y 7082  -0.186   0.472  11.580 -1.9213  1.7949 -2.7781
   55DOPE  C315 7083  -0.024   0.325  11.620 -0.3000  0.3416  0.5053
   55DOPE  H15X 7084   0.023   0.388  11.698 -0.3470 -0.8348  1.5160
   55DOPE  H15Y 7085   0.043   0.269  11.552 -1.7687  1.6985 -2.2531
   55DOPE  C316 7086  -0.115   0.223  11.684  0.1429 -0.1453 -0.3947
   55DOPE  H16X 7087  -0.040   0.144  11.706 -1.3198 -1.4916 -0.0806
   55DOPE  H16Y 7088  -0.190   0.175  11.617  0.9680 -2.5748  0.3074
   55DOPE  C317 7089  -0.186   0.275  11.805  0.2146  0.3041 -0.4670
   55DOPE  H17X 7090  -0.111   0.329  11.866  3.1075 -2.1556 -1.6129
   55DOPE  H17Y 7091  -0.263   0.349  11.775  0.1273  0.1445 -0.6419
   55DOPE  C318 7092  -0.254   0.160  11.878  0.2310  0.1644  0.0394
   55DOPE  H18X 7093  -0.304   0.208  11.966  0.3290  0.0538  0.1533
   55DOPE  H18Y 7094  -0.329   0.106  11.818  1.3924 -1.7700  0.2657
   55DOPE  H18Z 7095  -0.174   0.088  11.905 -0.4377 -0.7165 -0.2863
   56DOPE     N 7096   0.069   1.431   9.856 -0.0390  0.0174 -0.7229
   56DOPE   HN1 7097   0.156   1.374   9.855 -0.1823 -0.2030 -0.5092
   56DOPE   HN2 7098   0.069   1.498   9.777 -0.8954 -0.4406 -1.1126
   56DOPE   HN3 7099   0.051   1.477   9.948  1.2900 -1.9789  0.6206
   56DOPE   C12 7100  -0.040   1.339   9.831  0.3772 -0.0035  0.0738
   56DOPE  H12A 7101  -0.040   1.249   9.895 -2.2142  0.3099  0.6543
   56DOPE  H12B 7102  -0.023   1.308   9.726  2.6934  4.8095 -1.2634
   56DOPE   C11 7103  -0.174   1.418   9.842 -0.0386  1.1581  0.4977
   56DOPE  H11A 7104  -0.195   1.431   9.951 -1.0820  1.2070  0.3061
   56DOPE  H11B 7105  -0.251   1.350   9.800  1.4215  0.6656 -1.5056
   56DOPE     P 7106  -0.286   1.587   9.676  0.1344 -0.2989  0.6106
   56DOPE   O13 7107  -0.315   1.483   9.571 -0.0313  0.0768 -0.2048
   56DOPE   O14 7108  -0.256   1.721   9.613 -0.0262  0.0953 -0.5431
   56DOPE   O11 7109  -0.402   1.615   9.770 -0.1496  0.4436 -0.2573
   56DOPE   O12 7110  -0.166   1.541   9.769  0.5644 -0.2043  0.5680
   56DOPE    C1 7111  -0.420   1.734   9.858 -1.1688 -0.3096  0.2892
   56DOPE    HA 7112  -0.525   1.748   9.891 -0.6899  2.0117  0.9898
   56DOPE    HB 7113  -0.384   1.821   9.801 -2.9728 -0.0738 -0.5679
   56DOPE    C2 7114  -0.358   1.720   9.998  0.5881  0.3359  0.8260
   56DOPE    HS 7115  -0.263   1.663   9.999  0.1604 -0.3773  1.6045
   56DOPE   O21 7116  -0.447   1.643  10.086 -0.3421 -0.2460  0.1532
   56DOPE   C21 7117  -0.386   1.574  10.180 -0.0240  0.0999 -0.9671
   56DOPE   O22 7118  -0.265   1.554  10.192  0.1141  0.1862 -0.2721
   56DOPE   C22 7119  -0.492   1.507  10.275 -0.1732  0.9477 -0.0613
   56DOPE   H2R 7120  -0.516   1.407  10.233  1.2484  0.2401  0.7428
   56DOPE   H2S 7121  -0.584   1.567  10.261 -1.0031 -0.6823 -2.2831
   56DOPE    C3 7122  -0.337   1.865  10.054  0.3627 -0.4371 -0.3650
   56DOPE    HX 7123  -0.437   1.909  10.035  0.4641  0.0271  0.1413
   56DOPE    HY 7124  -0.260   1.926  10.002  1.9003 -1.4398  0.6274
   56DOPE   O31 7125  -0.305   1.879  10.191  0.9179  0.2251  0.0315
   56DOPE   C31 7126  -0.180   1.846  10.230 -0.4176 -0.8315 -0.0754
   56DOPE   O32 7127  -0.098   1.806  10.153 -0.7622 -0.1446  0.4180
   56DOPE   C32 7128  -0.167   1.863  10.385 -0.2934 -0.2740  0.1771
   56DOPE   H2X 7129  -0.065   1.834  10.420 -1.1140 -1.1663  1.9873
   56DOPE   H2Y 7130  -0.191   1.968  10.410  1.9031 -0.1543  2.2027
   56DOPE   C23 7131  -0.467   1.499  10.426  0.3966 -0.3354  0.6395
   56DOPE   H3R 7132  -0.478   1.602  10.466  0.9815  0.9587 -2.2875
   56DOPE   H3S 7133  -0.361   1.470  10.444 -0.3861 -2.3326  2.5276
   56DOPE   C24 7134  -0.564   1.390  10.485  0.1826 -0.3539 -0.9751
   56DOPE   H4R 7135  -0.508   1.329  10.559  0.3382  0.5167 -0.3463
   56DOPE   H4S 7136  -0.592   1.320  10.404  0.1092  1.2577 -2.4009
   56DOPE   C25 7137  -0.693   1.459  10.534 -0.6713 -0.2180  0.4049
   56DOPE   H5R 7138  -0.744   1.494  10.442 -1.1347 -1.1651  0.2959
   56DOPE   H5S 7139  -0.652   1.552  10.579  0.1815  0.2572 -1.3076
   56DOPE   C26 7140  -0.790   1.376  10.613  0.0743 -0.5869 -0.5243
   56DOPE   H6R 7141  -0.810   1.284  10.554  1.4807 -1.5441  0.4167
   56DOPE   H6S 7142  -0.881   1.438  10.629  0.3979 -0.3861  0.6161
   56DOPE   C27 7143  -0.732   1.328  10.746  0.0310 -0.1368 -0.2902
   56DOPE   H7R 7144  -0.699   1.419  10.800  3.1237 -0.3676 -1.5594
   56DOPE   H7S 7145  -0.636   1.276  10.724  0.6455 -0.7959  3.3626
   56DOPE   C28 7146  -0.812   1.224  10.831  0.3454  0.0641 -0.1469
   56DOPE   H8R 7147  -0.739   1.167  10.893 -1.9968 -1.8511  1.0298
   56DOPE   H8S 7148  -0.857   1.147  10.765  1.2919 -0.2477 -0.4459
   56DOPE   C29 7149  -0.907   1.313  10.906 -0.2805 -0.3357 -0.3999
   56DOPE   H9R 7150  -0.964   1.380  10.840  1.3603  4.3673  2.4503
   56DOPE  C210 7151  -0.907   1.329  11.042  0.4354  0.2072 -0.8845
   56DOPE  H10R 7152  -0.968   1.411  11.084  1.7631  0.6251  0.3002
   56DOPE  C211 7153  -0.830   1.248  11.145 -0.3405  0.2197 -0.3854
   56DOPE  H11R 7154  -0.743   1.309  11.176 -0.5485  0.2214  0.2015
   56DOPE  H11S 7155  -0.794   1.150  11.108 -1.7215  0.3362 -2.1955
   56DOPE  C212 7156  -0.927   1.224  11.261  0.3655 -0.7475  0.3888
   56DOPE  H12R 7157  -1.015   1.161  11.236 -0.1701  0.0136  0.3427
   56DOPE  H12S 7158  -0.964   1.321  11.300 -1.2334 -1.3080  0.3055
   56DOPE  C213 7159  -0.850   1.155  11.379  0.2001  0.6139 -0.2596
   56DOPE  H13R 7160  -0.790   1.235  11.427 -1.6418  0.0906  3.2588
   56DOPE  H13S 7161  -0.796   1.066  11.341 -2.4086 -0.4009 -1.8311
   56DOPE  C214 7162  -0.953   1.105  11.485 -0.0824  0.3104  0.5829
   56DOPE  H14R 7163  -1.014   1.031  11.428  1.9546  0.8438 -2.5615
   56DOPE  H14S 7164  -1.018   1.189  11.516 -0.3256  0.9152 -1.4117
   56DOPE  C215 7165  -0.892   1.033  11.603  0.3593 -0.2789  0.7677
   56DOPE  H15R 7166  -0.829   0.954  11.555 -0.0560  0.6283 -1.3850
   56DOPE  H15S 7167  -0.968   0.979  11.663 -2.8897  0.5274 -2.2793
   56DOPE  C216 7168  -0.819   1.114  11.706  0.3647 -0.7759  0.1378
   56DOPE  H16R 7169  -0.904   1.168  11.753 -0.2251 -1.2641 -0.3512
   56DOPE  H16S 7170  -0.747   1.188  11.665 -0.8324 -0.7849 -2.1095
   56DOPE  C217 7171  -0.745   1.033  11.805  0.1189  0.1356 -0.1129
   56DOPE  H17R 7172  -0.726   1.104  11.888 -0.3099  1.6623 -1.2820
   56DOPE  H17S 7173  -0.647   1.000  11.764  0.2136  0.1615  0.0859
   56DOPE  C218 7174  -0.805   0.904  11.858  0.0118 -0.4324 -0.1577
   56DOPE  H18R 7175  -0.827   0.830  11.778  0.0063 -1.8962  1.1511
   56DOPE  H18S 7176  -0.900   0.926  11.911  0.5422 -0.5823  0.8963
   56DOPE  H18T 7177  -0.736   0.851  11.927  0.5452  0.0923 -0.2800
   56DOPE   C33 7178  -0.267   1.787  10.462  0.2359  0.4307 -0.3242
   56DOPE   H3X 7179  -0.249   1.678  10.462  0.2390  0.4320 -0.9173
   56DOPE   H3Y 7180  -0.372   1.805  10.429  0.4560 -2.6051 -3.2405
   56DOPE   C34 7181  -0.266   1.829  10.608  0.2679 -0.5530 -0.2858
   56DOPE   H4X 7182  -0.161   1.837  10.645  0.0393  0.9258  0.1178
   56DOPE   H4Y 7183  -0.301   1.934  10.623  1.5279 -0.0069 -1.0150
   56DOPE   C35 7184  -0.369   1.758  10.694  0.2469  0.0464 -0.4973
   56DOPE   H5X 7185  -0.360   1.653  10.658  0.3784  0.1754 -0.8470
   56DOPE   H5Y 7186  -0.476   1.788  10.687 -0.0621 -0.5546  1.2258
   56DOPE   C36 7187  -0.317   1.766  10.837  1.1836  0.1487 -0.5202
   56DOPE   H6X 7188  -0.330   1.875  10.856  1.1536 -0.2788  2.4874
   56DOPE   H6Y 7189  -0.210   1.741  10.849  1.5082  1.0422 -1.4714
   56DOPE   C37 7190  -0.420   1.693  10.927  0.3060  0.5330 -0.2004
   56DOPE   H7X 7191  -0.416   1.743  11.026  1.1648 -3.4876  1.9680
   56DOPE   H7Y 7192  -0.515   1.726  10.879  0.9071  0.8303 -1.2131
   56DOPE   C38 7193  -0.399   1.541  10.943 -0.5596 -0.0431 -0.0774
   56DOPE   H8X 7194  -0.304   1.526  10.998 -0.9037 -1.5646  0.1548
   56DOPE   H8Y 7195  -0.398   1.496  10.842  1.1813 -0.5072  0.1252
   56DOPE   C39 7196  -0.513   1.500  11.033  0.0081 -0.1708 -0.0514
   56DOPE   H9X 7197  -0.602   1.471  10.974  1.4001 -3.5657 -0.7107
   56DOPE  C310 7198  -0.513   1.515  11.168  0.5416 -0.1817  0.1485
   56DOPE  H10X 7199  -0.605   1.481  11.218  0.3471  0.4747  0.2495
   56DOPE  C311 7200  -0.410   1.567  11.269  0.3746  0.1303 -0.5346
   56DOPE  H11X 7201  -0.348   1.652  11.231  1.1028  1.1971  2.7326
   56DOPE  H11Y 7202  -0.465   1.615  11.353 -1.6115 -1.3776 -0.9021
   56DOPE  C312 7203  -0.306   1.472  11.311  0.4334 -0.1610  0.2953
   56DOPE  H12X 7204  -0.230   1.477  11.230 -1.2182  0.5195 -1.2819
   56DOPE  H12Y 7205  -0.329   1.365  11.327 -1.2188  0.2460  0.7454
   56DOPE  C313 7206  -0.240   1.510  11.444  0.6679  0.1066 -0.1486
   56DOPE  H13X 7207  -0.150   1.446  11.454 -0.0574 -1.8141 -3.9097
   56DOPE  H13Y 7208  -0.201   1.613  11.441  0.3808  0.3360  2.2727
   56DOPE  C314 7209  -0.318   1.480  11.569 -0.1126  0.4793 -0.9275
   56DOPE  H14X 7210  -0.343   1.372  11.557 -0.8732  0.4124  0.9661
   56DOPE  H14Y 7211  -0.409   1.541  11.587  0.4662  1.0372  0.2000
   56DOPE  C315 7212  -0.230   1.489  11.697  0.0579 -0.4092  0.6185
   56DOPE  H15X 7213  -0.211   1.597  11.711 -1.3397  0.0914 -0.9836
   56DOPE  H15Y 7214  -0.134   1.440  11.670  0.0469  0.4722 -1.2083
   56DOPE  C316 7215  -0.282   1.445  11.830 -0.0565 -0.2368  0.5702
   56DOPE  H16X 7216  -0.323   1.342  11.820  0.8522 -0.4328 -1.4326
   56DOPE  H16Y 7217  -0.365   1.511  11.865 -0.7557 -1.4393  1.2772
   56DOPE  C317 7218  -0.175   1.436  11.941  0.1656  0.2433  0.3267
   56DOPE  H17X 7219  -0.130   1.537  11.931  1.0791 -0.3117 -1.4565
   56DOPE  H17Y 7220  -0.216   1.429  12.044  2.0154 -0.5882  1.0565
   56DOPE  C318 7221  -0.058   1.335  11.919  0.0632  0.3133  0.0949
   56DOPE  H18X 7222  -0.000   1.346  11.825 -1.0155  1.6095 -0.4501
   56DOPE  H18Y 7223   0.016   1.346  12.001  1.6776 -1.0850 -1.1049
   56DOPE  H18Z 7224  -0.084   1.227  11.930 -0.3756  0.6177  2.6755
   57DOPE     N 7225   0.402   5.473  10.017  0.0600 -0.2631 -0.1210
   57DOPE   HN1 7226   0.495   5.513  10.044  2.1152 -5.3874  1.7602
   57DOPE   HN2 7227   0.330   5.547  10.013  1.9332  1.8014  1.6888
   57DOPE   HN3 7228   0.379   5.401  10.089 -0.9810 -0.4430 -0.6180
   57DOPE   C12 7229   0.410   5.402   9.886 -0.6819 -0.5308  0.9638
   57DOPE  H12A 7230   0.507   5.348   9.891 -0.9933 -0.9877  2.2466
   57DOPE  H12B 7231   0.399   5.475   9.803  0.7601 -2.7169 -1.3084
   57DOPE   C11 7232   0.295   5.300   9.888  0.1754  0.5117 -0.1092
   57DOPE  H11A 7233   0.317   5.219   9.815  0.3432  0.2506  0.2256
   57DOPE  H11B 7234   0.196   5.332   9.850  0.1858 -0.4867 -1.0391
   57DOPE     P 7235   0.196   5.130  10.072  0.1112 -0.2784  0.6738
   57DOPE   O13 7236   0.262   5.071  10.187 -0.5660 -0.3793 -0.3561
   57DOPE   O14 7237   0.171   5.039   9.957 -0.7387 -0.5052  0.0062
   57DOPE   O11 7238   0.062   5.200  10.109 -0.6628 -0.3521  0.0325
   57DOPE   O12 7239   0.286   5.243  10.020  0.3834 -0.1976  0.6039
   57DOPE    C1 7240   0.060   5.325  10.176 -0.0696 -0.1329 -0.7923
   57DOPE    HA 7241  -0.041   5.373  10.175 -1.0829 -1.8735  2.5647
   57DOPE    HB 7242   0.119   5.399  10.119 -0.3448 -0.6172 -1.7288
   57DOPE    C2 7243   0.106   5.311  10.323  0.8702 -0.5885 -0.2158
   57DOPE    HS 7244   0.211   5.275  10.326  1.4759  1.0148 -1.2509
   57DOPE   O21 7245   0.014   5.221  10.394 -0.3407 -0.6467 -0.3106
   57DOPE   C21 7246   0.071   5.146  10.496  0.1451  0.1555  0.5293
   57DOPE   O22 7247   0.192   5.148  10.520  0.6701  0.0930 -0.1096
   57DOPE   C22 7248  -0.043   5.062  10.559 -0.1769 -0.4138 -0.0891
   57DOPE   H2R 7249  -0.013   4.956  10.542  2.0110  0.0857  0.3712
   57DOPE   H2S 7250  -0.134   5.081  10.499 -0.3145  1.7879  0.7466
   57DOPE    C3 7251   0.090   5.456  10.387  0.4151 -0.5486  0.3560
   57DOPE    HX 7252  -0.011   5.490  10.355  1.5548  1.2469 -1.5506
   57DOPE    HY 7253   0.151   5.535  10.339 -2.5456  1.7077  0.0065
   57DOPE   O31 7254   0.109   5.456  10.524 -0.0171 -0.4393 -0.0909
   57DOPE   C31 7255   0.236   5.445  10.565  0.1531 -0.4373  0.1862
   57DOPE   O32 7256   0.334   5.434  10.493 -0.5965  0.4438  0.2269
   57DOPE   C32 7257   0.247   5.472  10.718 -0.3189  0.1086  0.0596
   57DOPE   H2X 7258   0.283   5.576  10.730  0.4237 -0.3634  2.3979
   57DOPE   H2Y 7259   0.143   5.459  10.754 -0.4256  1.3387  0.2137
   57DOPE   C23 7260  -0.056   5.085  10.708  0.0106 -0.4005 -0.2759
   57DOPE   H3R 7261   0.035   5.048  10.761 -1.1999 -0.6187  1.7686
   57DOPE   H3S 7262  -0.144   5.029  10.746 -0.8401  1.2770  0.3129
   57DOPE   C24 7263  -0.104   5.226  10.748 -0.5221  0.3011  0.0664
   57DOPE   H4R 7264  -0.212   5.230  10.722 -0.1008  0.3024 -1.8424
   57DOPE   H4S 7265  -0.063   5.300  10.676 -1.5176  0.3242 -0.4928
   57DOPE   C25 7266  -0.067   5.276  10.890  0.2390  0.2816  0.9123
   57DOPE   H5R 7267  -0.075   5.387  10.887 -1.0918  0.2354 -3.2384
   57DOPE   H5S 7268   0.036   5.249  10.921  0.7642 -0.2296 -1.1438
   57DOPE   C26 7269  -0.160   5.217  10.991  0.1836  0.6815 -0.8691
   57DOPE   H6R 7270  -0.141   5.108  11.001  0.6398  0.9267  1.7707
   57DOPE   H6S 7271  -0.259   5.239  10.948 -1.8140 -0.1097  2.8706
   57DOPE   C27 7272  -0.164   5.270  11.140  0.0849 -0.2809 -0.2351
   57DOPE   H7R 7273  -0.077   5.220  11.189  0.0484 -0.8237 -0.7115
   57DOPE   H7S 7274  -0.260   5.235  11.183 -1.2683  2.4604 -0.8674
   57DOPE   C28 7275  -0.160   5.425  11.160 -0.2413  0.5669  0.0526
   57DOPE   H8R 7276  -0.250   5.468  11.112 -0.0944 -0.7025 -1.4085
   57DOPE   H8S 7277  -0.079   5.484  11.112 -0.1781  1.5626  1.3139
   57DOPE   C29 7278  -0.137   5.466  11.303 -0.0049 -0.7401  0.5081
   57DOPE   H9R 7279  -0.063   5.548  11.298  0.4902 -1.2109 -0.0343
   57DOPE  C210 7280  -0.194   5.425  11.419  0.0871  1.1969  0.1410
   57DOPE  H10R 7281  -0.177   5.481  11.512 -0.4966  1.4034  0.1298
   57DOPE  C211 7282  -0.292   5.310  11.437 -0.8040 -0.2082  0.1701
   57DOPE  H11R 7283  -0.338   5.280  11.341 -1.2117 -0.9503  0.5804
   57DOPE  H11S 7284  -0.374   5.328  11.510  0.7871 -0.1459  2.0214
   57DOPE  C212 7285  -0.223   5.196  11.505 -0.4310  0.0873  0.0234
   57DOPE  H12R 7286  -0.129   5.173  11.450  0.8994  0.7409  1.8837
   57DOPE  H12S 7287  -0.277   5.099  11.498 -0.2843 -0.0967  1.1414
   57DOPE  C213 7288  -0.181   5.228  11.653  0.4952  0.0376 -0.0462
   57DOPE  H13R 7289  -0.131   5.327  11.646 -1.5615  1.3128  1.9226
   57DOPE  H13S 7290  -0.107   5.156  11.693  0.4840  0.2237  0.3120
   57DOPE  C214 7291  -0.298   5.229  11.751  0.2427  0.2142 -0.0956
   57DOPE  H14R 7292  -0.327   5.123  11.768  0.0521  0.3458  0.4064
   57DOPE  H14S 7293  -0.390   5.281  11.715  0.9191  2.8611  1.7231
   57DOPE  C215 7294  -0.271   5.297  11.889 -0.2253 -0.2474  0.9338
   57DOPE  H15R 7295  -0.235   5.401  11.871  0.8290 -1.0716 -2.4049
   57DOPE  H15S 7296  -0.195   5.235  11.940  0.2008 -1.6657 -1.2771
   57DOPE  C216 7297  -0.394   5.304  11.973  0.5975  0.1330 -0.2182
   57DOPE  H16R 7298  -0.442   5.205  11.988  0.2448  0.3051 -0.1987
   57DOPE  H16S 7299  -0.474   5.361  11.921 -1.2195 -0.0299  2.2575
   57DOPE  C217 7300  -0.366   5.376  12.106  0.2306  0.5382  0.0891
   57DOPE  H17R 7301  -0.313   5.473  12.097  0.4801  0.2664 -1.6508
   57DOPE  H17S 7302  -0.309   5.308  12.173 -1.6457  0.8405  2.1214
   57DOPE  C218 7303  -0.492   5.405  12.184 -0.1659  0.5532 -0.4817
   57DOPE  H18R 7304  -0.538   5.315  12.230  1.2520 -1.2819 -2.3942
   57DOPE  H18S 7305  -0.568   5.439  12.111  0.6436  0.7214 -1.2684
   57DOPE  H18T 7306  -0.471   5.488  12.255 -0.9521  2.1226 -2.0037
   57DOPE   C33 7307   0.339   5.377  10.795 -0.3675  0.3052  0.4333
   57DOPE   H3X 7308   0.421   5.341  10.728  0.1840  0.5422  0.9721
   57DOPE   H3Y 7309   0.277   5.290  10.823  1.0971 -1.1444 -0.6603
   57DOPE   C34 7310   0.397   5.441  10.924 -0.4493 -0.0808  1.0340
   57DOPE   H4X 7311   0.449   5.365  10.986 -0.1587  0.7311  1.8015
   57DOPE   H4Y 7312   0.464   5.526  10.902  0.0997 -0.8729 -0.5065
   57DOPE   C35 7313   0.290   5.501  11.020  0.2352 -0.1436 -0.3728
   57DOPE   H5X 7314   0.224   5.417  11.052  1.1689  0.0763  2.4370
   57DOPE   H5Y 7315   0.238   5.583  10.966 -0.6362  0.4748  1.3278
   57DOPE   C36 7316   0.359   5.572  11.148 -0.0373  0.4302 -0.2565
   57DOPE   H6X 7317   0.452   5.624  11.117 -1.0026  2.2507 -0.2514
   57DOPE   H6Y 7318   0.390   5.490  11.216 -3.0266 -0.5931  0.0466
   57DOPE   C37 7319   0.273   5.665  11.231 -0.5787  0.1159 -0.1577
   57DOPE   H7X 7320   0.271   5.765  11.183  2.0564 -0.4873 -1.7529
   57DOPE   H7Y 7321   0.166   5.638  11.231 -0.3472 -1.3054  2.7427
   57DOPE   C38 7322   0.311   5.677  11.374  0.4121  0.1926  0.3118
   57DOPE   H8X 7323   0.421   5.696  11.379  0.5009  0.6187 -2.0044
   57DOPE   H8Y 7324   0.286   5.576  11.414  1.0143  0.5062  1.5123
   57DOPE   C39 7325   0.249   5.787  11.459 -0.3173  0.5649  0.5195
   57DOPE   H9X 7326   0.304   5.882  11.452 -1.6358  1.4922  2.0073
   57DOPE  C310 7327   0.146   5.778  11.544  0.1663 -0.4321 -0.1057
   57DOPE  H10X 7328   0.111   5.872  11.588  2.5487 -0.4778  2.1358
   57DOPE  C311 7329   0.055   5.664  11.574 -0.0252  0.3520  0.7013
   57DOPE  H11X 7330  -0.050   5.698  11.561  0.5363  1.9464  0.0475
   57DOPE  H11Y 7331   0.073   5.580  11.503 -0.0550  0.5032  0.5140
   57DOPE  C312 7332   0.067   5.600  11.719  0.5627  0.2092 -0.5464
   57DOPE  H12X 7333   0.162   5.543  11.728 -0.7011 -1.7197  1.5424
   57DOPE  H12Y 7334  -0.010   5.520  11.725  1.2904 -0.4081  1.3780
   57DOPE  C313 7335   0.049   5.685  11.850  0.4646 -0.4249 -0.4663
   57DOPE  H13X 7336   0.126   5.763  11.829 -0.2335  0.8316  1.3175
   57DOPE  H13Y 7337  -0.050   5.731  11.867 -1.0896 -3.7047  0.0904
   57DOPE  C314 7338   0.109   5.626  11.977 -0.0976 -1.2863  0.0851
   57DOPE  H14X 7339   0.194   5.558  11.957  0.9351 -0.2607  0.8011
   57DOPE  H14Y 7340   0.040   5.555  12.027 -0.3250  0.9798  3.4059
   57DOPE  C315 7341   0.150   5.745  12.067 -0.1929  0.1305  0.6268
   57DOPE  H15X 7342   0.142   5.708  12.171  0.0037  1.5710  1.1754
   57DOPE  H15Y 7343   0.076   5.827  12.056  0.1041  0.7462  2.7589
   57DOPE  C316 7344   0.290   5.796  12.048 -0.3028 -0.2598 -0.8491
   57DOPE  H16X 7345   0.296   5.843  11.947  1.0164  1.9657  0.1965
   57DOPE  H16Y 7346   0.364   5.713  12.043  0.1294  0.1490 -1.4030
   57DOPE  C317 7347   0.337   5.898  12.151 -0.0294 -0.1317 -0.1936
   57DOPE  H17X 7348   0.271   5.988  12.148  1.2062  0.7736 -2.2135
   57DOPE  H17Y 7349   0.326   5.862  12.256 -0.5871 -0.5394 -0.3858
   57DOPE  C318 7350   0.481   5.948  12.138 -0.3729  0.6809 -0.9641
   57DOPE  H18X 7351   0.545   5.857  12.133 -1.4323 -0.3233  1.7432
   57DOPE  H18Y 7352   0.502   6.013  12.051  0.3117  1.8594  0.0495
   57DOPE  H18Z 7353   0.502   6.014  12.225 -1.8699  1.2849 -1.0312
   58DOPE     N 7354   5.341   0.874   9.012  0.0165  0.4686  0.2300
   58DOPE   HN1 7355   5.311   0.775   9.002 -2.0634  1.2007 -1.4386
   58DOPE   HN2 7356   5.299   0.935   8.940  0.7383  0.4245 -0.2390
   58DOPE   HN3 7357   5.442   0.890   8.992 -0.3531  2.7817 -0.1111
   58DOPE   C12 7358   5.308   0.915   9.151 -0.1672 -0.4981  0.6865
   58DOPE  H12A 7359   5.206   0.877   9.174 -0.0470 -0.8598  0.6340
   58DOPE  H12B 7360   5.302   1.025   9.154 -0.9389 -0.4423 -1.3363
   58DOPE   C11 7361   5.400   0.848   9.255  0.6019  0.3982  0.8596
   58DOPE  H11A 7362   5.380   0.739   9.252  1.9758  0.1338  0.7948
   58DOPE  H11B 7363   5.369   0.890   9.353 -2.3194  0.4119  0.0291
   58DOPE     P 7364   5.605   0.999   9.263  0.1560  0.3210 -0.2074
   58DOPE   O13 7365   5.536   1.119   9.215  0.2994 -0.0833 -0.3588
   58DOPE   O14 7366   5.751   0.990   9.233 -0.1711  0.7046  0.1998
   58DOPE   O11 7367   5.582   0.986   9.418  0.1849  0.1114  1.1261
   58DOPE   O12 7368   5.536   0.865   9.206  0.1159 -0.0380 -0.5537
   58DOPE    C1 7369   5.653   1.057   9.514 -0.5712  0.2994 -0.5067
   58DOPE    HA 7370   5.643   1.166   9.497 -0.9666  0.5950  1.3960
   58DOPE    HB 7371   5.760   1.027   9.509  0.0134  2.0467  0.7961
   58DOPE    C2 7372   5.613   1.006   9.660  0.0439 -0.0628 -0.1160
   58DOPE    HS 7373   5.629   1.100   9.718  0.4628  1.5888 -2.7225
   58DOPE   O21 7374   5.691   0.892   9.710 -0.9693  0.6371  0.1486
   58DOPE   C21 7375   5.736   0.911   9.837 -0.1446  0.6299  0.5074
   58DOPE   O22 7376   5.686   0.987   9.912 -0.2700 -0.2275  0.0200
   58DOPE   C22 7377   5.835   0.790   9.870  0.0342  0.0218  0.1817
   58DOPE   H2R 7378   5.854   0.726   9.780  0.2086  0.1965  0.0933
   58DOPE   H2S 7379   5.783   0.723   9.942  0.0384 -0.4214 -0.2186
   58DOPE    C3 7380   5.464   0.980   9.664 -0.1971 -0.2717 -0.8280
   58DOPE    HX 7381   5.438   0.897   9.595 -1.1476 -1.8076  1.2730
   58DOPE    HY 7382   5.411   1.066   9.618 -1.9211 -1.0570 -0.4073
   58DOPE   O31 7383   5.406   0.948   9.794  0.2015  0.3296  0.4443
   58DOPE   C31 7384   5.373   1.056   9.868 -0.9109 -0.4972 -0.2576
   58DOPE   O32 7385   5.383   1.174   9.831  0.1084 -0.1169 -0.0153
   58DOPE   C32 7386   5.309   0.998  10.000 -0.1133 -0.6641  0.0151
   58DOPE   H2X 7387   5.202   0.992   9.973 -0.4857  2.3490  0.4091
   58DOPE   H2Y 7388   5.356   0.900  10.021  2.1573  0.2261 -0.5401
   58DOPE   C23 7389   5.965   0.835   9.931  0.0441 -0.6593 -0.6944
   58DOPE   H3R 7390   5.949   0.903  10.017  2.5744 -2.4293  1.3339
   58DOPE   H3S 7391   6.029   0.891   9.860 -1.8244  1.0142 -1.1120
   58DOPE   C24 7392   6.045   0.723  10.002 -0.1267  0.4899  0.0236
   58DOPE   H4R 7393   6.072   0.656   9.917 -1.5727 -0.3832  0.2119
   58DOPE   H4S 7394   5.976   0.664  10.067  0.1255 -0.7430 -0.7858
   58DOPE   C25 7395   6.173   0.750  10.085 -0.1304  0.3550  0.2051
   58DOPE   H5R 7396   6.158   0.840  10.149  1.2682  0.1087  0.9339
   58DOPE   H5S 7397   6.255   0.788  10.020  0.0144 -1.8378 -0.9760
   58DOPE   C26 7398   6.210   0.623  10.168  0.2244 -0.1668 -0.5068
   58DOPE   H6R 7399   6.253   0.548  10.098 -0.3186  0.9004 -2.0155
   58DOPE   H6S 7400   6.119   0.581  10.215  0.1513  1.6507  1.1278
   58DOPE   C27 7401   6.297   0.663  10.284  0.3572 -0.4548 -0.0962
   58DOPE   H7R 7402   6.254   0.745  10.345 -0.0460  1.2840 -2.5459
   58DOPE   H7S 7403   6.395   0.698  10.245  1.5074 -0.3578  2.6322
   58DOPE   C28 7404   6.337   0.546  10.372 -0.5279 -0.1550 -0.0400
   58DOPE   H8R 7405   6.419   0.487  10.326  1.7207  0.9838  2.2015
   58DOPE   H8S 7406   6.249   0.480  10.382 -0.1750 -0.7978 -1.0216
   58DOPE   C29 7407   6.380   0.582  10.518 -0.1020 -0.4412  0.0258
   58DOPE   H9R 7408   6.306   0.642  10.573 -0.6560 -1.0065 -0.0883
   58DOPE  C210 7409   6.497   0.551  10.571 -0.1996 -0.1247 -0.9453
   58DOPE  H10R 7410   6.530   0.594  10.667 -0.0459 -0.0490 -1.0310
   58DOPE  C211 7411   6.608   0.484  10.492  0.0477 -0.2897  0.6608
   58DOPE  H11R 7412   6.616   0.540  10.396 -1.1040 -0.2685  0.5651
   58DOPE  H11S 7413   6.583   0.377  10.471 -0.4411 -0.0200 -0.1771
   58DOPE  C212 7414   6.744   0.479  10.561 -0.5327  0.5778  0.0705
   58DOPE  H12R 7415   6.777   0.582  10.587 -0.1977  0.8823 -1.4552
   58DOPE  H12S 7416   6.829   0.448  10.497 -0.7650 -1.4146  0.6717
   58DOPE  C213 7417   6.757   0.385  10.685  0.3154 -0.2545  0.0574
   58DOPE  H13R 7418   6.716   0.290  10.646 -0.8096 -0.2306  1.1274
   58DOPE  H13S 7419   6.679   0.405  10.762  1.1414  0.0035  0.8513
   58DOPE  C214 7420   6.893   0.372  10.755 -0.0030  0.6841  0.0045
   58DOPE  H14R 7421   6.915   0.471  10.799 -0.9859  1.8856 -2.0722
   58DOPE  H14S 7422   6.966   0.346  10.676  1.4645  0.8605  1.2638
   58DOPE  C215 7423   6.892   0.250  10.853  0.1015  0.2787  0.3954
   58DOPE  H15R 7424   6.999   0.220  10.864 -0.6531 -2.4867  0.9586
   58DOPE  H15S 7425   6.834   0.168  10.807  1.6286 -1.1496  0.9009
   58DOPE  C216 7426   6.855   0.262  11.001  0.0347  0.1840 -0.4569
   58DOPE  H16R 7427   6.745   0.270  11.004 -0.3990 -3.6735 -0.7629
   58DOPE  H16S 7428   6.897   0.354  11.048  2.1407 -1.3136  0.7763
   58DOPE  C217 7429   6.894   0.151  11.092  0.5624  0.0269 -0.4953
   58DOPE  H17R 7430   7.004   0.150  11.108  0.7169  0.1573 -1.5189
   58DOPE  H17S 7431   6.862   0.055  11.046 -1.0785 -0.5929  1.7409
   58DOPE  C218 7432   6.814   0.136  11.225 -0.1249  0.4382  0.0955
   58DOPE  H18R 7433   6.707   0.135  11.196 -0.0216  1.3215 -0.3602
   58DOPE  H18S 7434   6.821   0.231  11.283 -2.1812  0.3401  0.6003
   58DOPE  H18T 7435   6.838   0.046  11.286  0.0466  0.7662  0.5179
   58DOPE   C33 7436   5.315   1.089  10.124 -0.1652 -0.2730  0.2790
   58DOPE   H3X 7437   5.265   1.048  10.215 -2.9593 -1.3222 -1.6007
   58DOPE   H3Y 7438   5.266   1.186  10.100 -0.7435 -0.1921  1.6797
   58DOPE   C34 7439   5.464   1.114  10.162  0.2967  0.1676 -0.1859
   58DOPE   H4X 7440   5.524   1.021  10.163 -0.0622 -0.0615  0.8625
   58DOPE   H4Y 7441   5.514   1.177  10.085 -1.0308  0.9180 -0.4686
   58DOPE   C35 7442   5.479   1.197  10.292  0.0522 -0.1456  0.0659
   58DOPE   H5X 7443   5.409   1.283  10.299  0.6053  0.3441 -0.3206
   58DOPE   H5Y 7444   5.579   1.244  10.300 -0.3778  0.4534  2.7041
   58DOPE   C36 7445   5.477   1.122  10.417  0.3113 -0.4205  0.5907
   58DOPE   H6X 7446   5.569   1.063  10.438  0.9076  0.2788  0.0206
   58DOPE   H6Y 7447   5.398   1.046  10.400  1.4268 -1.4803 -0.0729
   58DOPE   C37 7448   5.421   1.205  10.538 -0.0613  0.3553  1.0050
   58DOPE   H7X 7449   5.498   1.285  10.540  2.1411 -1.6147  0.2472
   58DOPE   H7Y 7450   5.330   1.258  10.505  0.7117  2.1888  1.7072
   58DOPE   C38 7451   5.403   1.127  10.666  0.0768  0.3360 -0.3057
   58DOPE   H8X 7452   5.325   1.049  10.655 -1.0391  1.5160 -1.1105
   58DOPE   H8Y 7453   5.352   1.197  10.735 -1.3428  0.3125 -1.2912
   58DOPE   C39 7454   5.539   1.088  10.713 -0.7798 -0.0627  0.2692
   58DOPE   H9X 7455   5.624   1.077  10.644 -1.7410 -3.4973 -0.5466
   58DOPE  C310 7456   5.560   1.074  10.847 -0.1298 -0.8691  0.2904
   58DOPE  H10X 7457   5.667   1.071  10.872 -0.2634  1.3179  1.3937
   58DOPE  C311 7458   5.461   1.060  10.957  0.7310 -0.1286  0.0988
   58DOPE  H11X 7459   5.433   1.159  11.000  0.4270 -0.2224  0.1242
   58DOPE  H11Y 7460   5.358   1.039  10.919 -0.8116  0.7546  3.3758
   58DOPE  C312 7461   5.491   0.973  11.085 -0.2330  0.3786 -0.3517
   58DOPE  H12X 7462   5.596   0.996  11.114 -0.9994  1.9238  1.4171
   58DOPE  H12Y 7463   5.474   0.869  11.051 -2.0898  0.3251  0.6079
   58DOPE  C313 7464   5.401   1.014  11.201  1.1947  0.0708  0.3410
   58DOPE  H13X 7465   5.394   1.121  11.231 -0.3648  0.9125 -2.6813
   58DOPE  H13Y 7466   5.300   0.983  11.170 -0.3138  1.0128  3.7792
   58DOPE  C314 7467   5.425   0.939  11.330  0.1668 -0.6918 -0.0059
   58DOPE  H14X 7468   5.530   0.964  11.358  0.9660 -2.5700 -1.1128
   58DOPE  H14Y 7469   5.433   0.830  11.310  0.1808 -0.2511 -2.8164
   58DOPE  C315 7470   5.332   0.968  11.449  0.4266  0.4846  0.3052
   58DOPE  H15X 7471   5.227   0.936  11.432 -0.2553  2.7554 -0.1581
   58DOPE  H15Y 7472   5.313   1.076  11.470 -1.4076  0.0687  0.9769
   58DOPE  C316 7473   5.397   0.922  11.583  0.7144  0.6541 -0.6206
   58DOPE  H16X 7474   5.461   0.832  11.575  0.3742 -0.2093  3.8490
   58DOPE  H16Y 7475   5.322   0.896  11.661  0.0381 -0.7541 -1.7054
   58DOPE  C317 7476   5.492   1.022  11.647  0.2090  0.0958  0.0681
   58DOPE  H17X 7477   5.573   1.026  11.571 -0.8064  2.0338 -0.9665
   58DOPE  H17Y 7478   5.431   1.114  11.656  0.8128  0.3946  1.3707
   58DOPE  C318 7479   5.548   0.996  11.788 -0.7080  0.2238  0.4677
   58DOPE  H18X 7480   5.465   1.014  11.860 -0.6901 -1.0353  0.8287
   58DOPE  H18Y 7481   5.579   0.889  11.793 -0.1955  0.3894  0.9860
   58DOPE  H18Z 7482   5.635   1.061  11.810  0.3224 -0.2927 -1.8931
   59DOPE     N 7483   6.083   3.458  10.046  0.0676 -0.1958  0.1762
   59DOPE   HN1 7484   6.120   3.388   9.979 -1.2300  0.3841 -1.1914
   59DOPE   HN2 7485   6.011   3.517  10.001  1.6037  2.4162  0.8924
   59DOPE   HN3 7486   6.166   3.520  10.059 -1.2906  1.9935 -0.9516
   59DOPE   C12 7487   6.046   3.399  10.185 -0.2962 -0.4896  0.4733
   59DOPE  H12A 7488   5.962   3.329  10.162  1.4702 -3.3097  1.9689
   59DOPE  H12B 7489   6.018   3.485  10.249 -2.8041 -0.4091 -0.6475
   59DOPE   C11 7490   6.165   3.325  10.240 -0.7262 -0.2164  0.4788
   59DOPE  H11A 7491   6.185   3.242  10.169 -0.6736  1.1659 -1.1943
   59DOPE  H11B 7492   6.137   3.284  10.339 -5.1429 -1.8315 -1.1864
   59DOPE     P 7493   6.344   3.457  10.373 -0.5213 -0.1176 -0.3465
   59DOPE   O13 7494   6.444   3.563  10.348 -0.2921  0.5982 -0.0853
   59DOPE   O14 7495   6.396   3.350  10.460 -0.3651 -0.5535  0.0446
   59DOPE   O11 7496   6.223   3.522  10.447 -0.0155  0.4450  0.1138
   59DOPE   O12 7497   6.282   3.406  10.234 -0.6030  0.0929  0.0868
   59DOPE    C1 7498   6.184   3.656  10.409  0.2257 -0.0233  0.0024
   59DOPE    HA 7499   6.075   3.663  10.430 -0.1874  2.6521 -2.4813
   59DOPE    HB 7500   6.202   3.674  10.301  0.1397 -1.7197 -0.3354
   59DOPE    C2 7501   6.262   3.755  10.496 -0.1315  0.8871 -0.5296
   59DOPE    HS 7502   6.368   3.733  10.471 -0.6826  0.5521 -2.8482
   59DOPE   O21 7503   6.214   3.745  10.633 -0.6318 -0.0008 -0.0657
   59DOPE   C21 7504   6.308   3.775  10.726  0.2543 -0.2720 -0.5199
   59DOPE   O22 7505   6.429   3.784  10.706  0.0785  0.4393 -0.3941
   59DOPE   C22 7506   6.237   3.801  10.862  0.0224  0.0162  0.2725
   59DOPE   H2R 7507   6.147   3.737  10.877  0.0569 -0.1487 -0.2002
   59DOPE   H2S 7508   6.204   3.907  10.874 -1.3510 -0.4336  0.6775
   59DOPE    C3 7509   6.248   3.903  10.449  0.3699 -0.7027 -0.5574
   59DOPE    HX 7510   6.139   3.920  10.461  0.7409 -0.2647  3.4799
   59DOPE    HY 7511   6.277   3.915  10.343 -0.6374  0.1292 -0.7569
   59DOPE   O31 7512   6.307   4.004  10.530 -0.5131  0.9699 -0.0140
   59DOPE   C31 7513   6.431   4.035  10.496 -0.5788  0.5613  0.1871
   59DOPE   O32 7514   6.501   3.983  10.410  0.3887 -0.4625  0.4425
   59DOPE   C32 7515   6.491   4.137  10.596  0.1526  0.0290  0.2550
   59DOPE   H2X 7516   6.540   4.075  10.674 -0.8128 -0.3642  0.5635
   59DOPE   H2Y 7517   6.566   4.200  10.544 -1.2288  2.2078  0.8105
   59DOPE   C23 7518   6.333   3.781  10.983  0.5347 -0.1530  0.2152
   59DOPE   H3R 7519   6.412   3.856  10.961  0.4576 -0.0584  0.2600
   59DOPE   H3S 7520   6.388   3.684  10.983 -1.2046 -1.1666  0.6286
   59DOPE   C24 7521   6.271   3.812  11.124  0.3441  0.4295  0.1452
   59DOPE   H4R 7522   6.176   3.757  11.135  0.1884  0.3212 -1.5873
   59DOPE   H4S 7523   6.234   3.915  11.141 -3.2214 -1.0769  2.6333
   59DOPE   C25 7524   6.372   3.778  11.239  0.2259  0.0053  0.3758
   59DOPE   H5R 7525   6.459   3.847  11.243 -0.2014  0.6019 -0.3556
   59DOPE   H5S 7526   6.409   3.673  11.227 -0.3474  0.0069 -1.9179
   59DOPE   C26 7527   6.301   3.790  11.376  0.0306 -0.1029 -0.0003
   59DOPE   H6R 7528   6.198   3.752  11.367  0.4622 -1.3972  0.3638
   59DOPE   H6S 7529   6.286   3.898  11.398 -0.9160 -0.0746 -0.7282
   59DOPE   C27 7530   6.385   3.736  11.489 -0.8236  0.0350  0.4016
   59DOPE   H7R 7531   6.486   3.759  11.448 -1.2030  0.2413 -0.4455
   59DOPE   H7S 7532   6.380   3.626  11.503  0.4609 -0.1121 -0.0669
   59DOPE   C28 7533   6.358   3.809  11.618  0.3797 -0.7745 -0.3930
   59DOPE   H8R 7534   6.364   3.917  11.595  0.2593 -0.7149 -0.1451
   59DOPE   H8S 7535   6.437   3.791  11.695  2.1545  0.8676 -1.7358
   59DOPE   C29 7536   6.215   3.785  11.670 -0.7182 -0.5479  1.1252
   59DOPE   H9R 7537   6.153   3.728  11.599  0.1100  0.2727 -0.3051
   59DOPE  C210 7538   6.166   3.840  11.778  1.3188 -0.7423 -0.3622
   59DOPE  H10R 7539   6.066   3.805  11.808  1.4249  1.1873  2.5977
   59DOPE  C211 7540   6.243   3.934  11.866  0.5646  0.3316 -0.2964
   59DOPE  H11R 7541   6.198   4.035  11.850  2.5367  0.9972 -2.1917
   59DOPE  H11S 7542   6.351   3.935  11.840  0.3679  0.3951 -1.1599
   59DOPE  C212 7543   6.210   3.909  12.011 -0.5586 -0.8606 -0.0907
   59DOPE  H12R 7544   6.102   3.915  12.035 -0.3427 -1.3776  1.1042
   59DOPE  H12S 7545   6.254   3.980  12.084 -1.9202  0.0193 -0.1092
   59DOPE  C213 7546   6.256   3.772  12.054  0.2157 -0.0303  0.3484
   59DOPE  H13R 7547   6.184   3.697  12.017  0.1039  0.1708  0.1602
   59DOPE  H13S 7548   6.242   3.760  12.164  1.2260 -0.4476  0.4461
   59DOPE  C214 7549   6.402   3.732  12.030  0.9911 -0.4656 -0.5743
   59DOPE  H14R 7550   6.481   3.801  12.064 -0.7291  0.7845  1.0841
   59DOPE  H14S 7551   6.419   3.734  11.920  1.5328  1.2641 -0.4842
   59DOPE  C215 7552   6.428   3.589  12.075  0.1843 -0.0373 -0.2958
   59DOPE  H15R 7553   6.517   3.548  12.023 -1.1817 -0.8037 -2.1128
   59DOPE  H15S 7554   6.341   3.523  12.053 -1.1585  1.4687  0.3232
   59DOPE  C216 7555   6.446   3.581  12.234  0.2010 -0.2456 -0.2140
   59DOPE  H16R 7556   6.357   3.630  12.278 -0.3124 -1.1066 -0.2600
   59DOPE  H16S 7557   6.531   3.649  12.255  1.4757 -1.7121 -0.4628
   59DOPE  C217 7558   6.479   3.441  12.287 -0.4300 -0.3030  0.2360
   59DOPE  H17R 7559   6.525   3.455  12.387 -1.2855  0.0154  0.6003
   59DOPE  H17S 7560   6.550   3.384  12.223  0.7051 -1.4987  2.4385
   59DOPE  C218 7561   6.360   3.352  12.306  0.6018 -0.3102 -0.5079
   59DOPE  H18R 7562   6.291   3.353  12.218 -0.8072 -0.7417  0.5590
   59DOPE  H18S 7563   6.295   3.382  12.391  0.8682 -0.7501 -0.1428
   59DOPE  H18T 7564   6.386   3.245  12.315  0.7064 -0.4235 -1.8841
   59DOPE   C33 7565   6.393   4.239  10.668 -0.4913  0.7495  0.4526
   59DOPE   H3X 7566   6.315   4.175  10.714  0.0776  0.5194  1.1309
   59DOPE   H3Y 7567   6.355   4.302  10.585  0.1305  0.8351  0.2254
   59DOPE   C34 7568   6.465   4.332  10.777 -0.2959  0.0872  0.0760
   59DOPE   H4X 7569   6.526   4.252  10.824 -0.0644 -1.9548 -3.3358
   59DOPE   H4Y 7570   6.535   4.405  10.733  1.4515 -1.2691  0.4982
   59DOPE   C35 7571   6.379   4.403  10.880  0.1952 -0.4080  0.1952
   59DOPE   H5X 7572   6.305   4.474  10.837  1.0451  0.4280  0.0896
   59DOPE   H5Y 7573   6.450   4.457  10.946 -2.7612  0.7391  2.7081
   59DOPE   C36 7574   6.298   4.303  10.968  0.6365  0.0909  0.4699
   59DOPE   H6X 7575   6.374   4.221  10.975  1.0825  0.4901  0.3025
   59DOPE   H6Y 7576   6.205   4.262  10.924  0.5166 -4.4110  4.0842
   59DOPE   C37 7577   6.270   4.343  11.115 -0.3070 -0.1593 -0.1667
   59DOPE   H7X 7578   6.360   4.392  11.158 -1.2024  0.2726  1.3044
   59DOPE   H7Y 7579   6.192   4.421  11.105  0.3845  0.6178  0.3482
   59DOPE   C38 7580   6.227   4.230  11.200 -0.0900 -0.5595  0.0369
   59DOPE   H8X 7581   6.259   4.139  11.146 -0.6273 -1.0508  0.5335
   59DOPE   H8Y 7582   6.117   4.217  11.193  0.1147 -2.3470 -0.4059
   59DOPE   C39 7583   6.262   4.229  11.350 -0.1713  0.1065 -0.1949
   59DOPE   H9X 7584   6.369   4.234  11.373 -0.0477 -0.2522 -0.6627
   59DOPE  C310 7585   6.172   4.234  11.452  0.0004 -0.1544  0.4585
   59DOPE  H10X 7586   6.209   4.221  11.554 -1.9082 -1.6895  1.0232
   59DOPE  C311 7587   6.020   4.238  11.440  0.2429  0.2059  0.3130
   59DOPE  H11X 7588   5.976   4.224  11.338 -1.0471 -0.5377  0.9524
   59DOPE  H11Y 7589   5.976   4.158  11.502 -2.4665  0.8643 -0.6308
   59DOPE  C312 7590   5.959   4.363  11.502  0.6641  0.2809  0.4252
   59DOPE  H12X 7591   5.857   4.359  11.458  1.3994 -2.5776 -1.2800
   59DOPE  H12Y 7592   6.008   4.457  11.469 -1.6239  1.3151 -0.2478
   59DOPE  C313 7593   5.940   4.369  11.655  0.4960  0.1978  0.0637
   59DOPE  H13X 7594   5.856   4.441  11.666 -1.4423 -1.3469 -3.2310
   59DOPE  H13Y 7595   5.897   4.270  11.680 -1.2632  0.4784 -1.5913
   59DOPE  C314 7596   6.064   4.414  11.734 -0.3793 -0.0935 -0.0311
   59DOPE  H14X 7597   6.091   4.511  11.687  1.5146 -1.1734 -1.2973
   59DOPE  H14Y 7598   6.149   4.343  11.726 -3.3356 -3.8695 -1.0211
   59DOPE  C315 7599   6.030   4.450  11.884 -0.6125  0.9580 -0.0489
   59DOPE  H15X 7600   5.925   4.486  11.877 -1.5309 -1.5839 -0.5670
   59DOPE  H15Y 7601   6.099   4.532  11.913 -1.7664  2.1885 -0.6482
   59DOPE  C316 7602   6.053   4.326  11.974  0.0925  0.1424 -0.4327
   59DOPE  H16X 7603   6.156   4.286  11.966  0.2087  0.3329  0.0886
   59DOPE  H16Y 7604   5.980   4.247  11.946  1.6145 -2.4933  2.3917
   59DOPE  C317 7605   6.016   4.356  12.125  0.0580  0.8123  0.0079
   59DOPE  H17X 7606   6.019   4.252  12.164  0.7111  0.9128  0.2455
   59DOPE  H17Y 7607   6.105   4.411  12.162  0.4645  0.5764 -0.6072
   59DOPE  C318 7608   5.883   4.422  12.149  0.6644  0.0340 -0.6208
   59DOPE  H18X 7609   5.890   4.525  12.109  0.2640  0.8138  1.2086
   59DOPE  H18Y 7610   5.794   4.376  12.099  0.3300  1.9628 -1.9008
   59DOPE  H18Z 7611   5.854   4.424  12.256  2.4340  1.3482 -0.1282
   60DOPE     N 7612   5.476   2.149   9.602  0.0028  0.1195 -0.9412
   60DOPE   HN1 7613   5.545   2.179   9.531 -1.9798 -1.6211 -3.7860
   60DOPE   HN2 7614   5.455   2.049   9.584  1.2835 -0.5856  1.1370
   60DOPE   HN3 7615   5.391   2.204   9.577 -2.1420 -1.4549  2.1501
   60DOPE   C12 7616   5.531   2.184   9.741 -0.2687 -0.3937  0.0641
   60DOPE  H12A 7617   5.464   2.129   9.810 -0.4926  0.3127  0.4241
   60DOPE  H12B 7618   5.518   2.292   9.762  1.1015 -0.2257  0.1320
   60DOPE   C11 7619   5.667   2.130   9.761  0.0212  0.1232 -0.1709
   60DOPE  H11A 7620   5.704   2.146   9.864  0.5798 -0.2025 -0.3145
   60DOPE  H11B 7621   5.739   2.181   9.693  2.4534 -2.8963 -0.1263
   60DOPE     P 7622   5.629   1.867   9.815  0.3007 -0.0619  0.0764
   60DOPE   O13 7623   5.699   1.745   9.773 -0.0568  0.2440 -0.0850
   60DOPE   O14 7624   5.485   1.857   9.824  0.2911 -0.0386 -0.0871
   60DOPE   O11 7625   5.679   1.900   9.962  0.3020  0.1231  1.0037
   60DOPE   O12 7626   5.664   1.990   9.725 -0.0646  0.1692  0.2682
   60DOPE    C1 7627   5.819   1.926   9.990  0.5793  0.3389  0.2427
   60DOPE    HA 7628   5.828   2.019  10.050 -0.7634  1.6627 -1.5133
   60DOPE    HB 7629   5.886   1.951   9.906 -0.4478  0.7899 -0.4618
   60DOPE    C2 7630   5.873   1.823  10.094  0.7487  0.0407 -0.0835
   60DOPE    HS 7631   5.833   1.724  10.062  0.1424  0.8090 -1.8134
   60DOPE   O21 7632   5.819   1.865  10.221 -0.0277 -0.4669 -0.2090
   60DOPE   C21 7633   5.823   1.768  10.309  0.2401  0.6314 -0.5420
   60DOPE   O22 7634   5.842   1.650  10.281  0.3315 -0.3667  0.3548
   60DOPE   C22 7635   5.784   1.815  10.448 -0.1477 -0.2828 -0.0249
   60DOPE   H2R 7636   5.677   1.797  10.469 -0.0125  0.7355  1.7346
   60DOPE   H2S 7637   5.811   1.922  10.462  1.9919 -0.5578 -1.4874
   60DOPE    C3 7638   6.026   1.804  10.106 -0.2518  0.3986  0.1144
   60DOPE    HX 7639   6.063   1.776  10.005  0.3773 -0.1396  0.4926
   60DOPE    HY 7640   6.043   1.713  10.167  1.0757 -1.8678 -3.3503
   60DOPE   O31 7641   6.085   1.925  10.144  0.2558  0.3520  0.2167
   60DOPE   C31 7642   6.143   1.923  10.269 -0.1234 -0.5719  0.2205
   60DOPE   O32 7643   6.158   1.819  10.334 -0.1723  0.1521 -0.0620
   60DOPE   C32 7644   6.192   2.064  10.309 -0.1150  0.0562  0.3978
   60DOPE   H2X 7645   6.302   2.058  10.317  0.4043 -2.7211 -4.7104
   60DOPE   H2Y 7646   6.173   2.123  10.217  0.1925 -2.9827 -1.7580
   60DOPE   C23 7647   5.856   1.745  10.564  0.4268  0.0403  0.0338
   60DOPE   H3R 7648   5.966   1.743  10.555  0.3134 -0.0664 -1.5506
   60DOPE   H3S 7649   5.826   1.638  10.565 -0.0611  0.1727  0.1020
   60DOPE   C24 7650   5.818   1.802  10.704 -0.1218 -0.1375  1.0624
   60DOPE   H4R 7651   5.713   1.792  10.737 -0.3722 -1.2807  0.0324
   60DOPE   H4S 7652   5.844   1.908  10.684  2.0280 -0.7358  0.2751
   60DOPE   C25 7653   5.915   1.734  10.806 -0.6350  0.3564  0.1461
   60DOPE   H5R 7654   6.021   1.747  10.776 -1.2147  0.3100 -2.1058
   60DOPE   H5S 7655   5.891   1.626  10.810  0.6390  0.0656  0.2412
   60DOPE   C26 7656   5.879   1.787  10.943 -0.6400 -0.3258  0.2976
   60DOPE   H6R 7657   5.774   1.765  10.971 -1.5637 -0.5971 -3.0134
   60DOPE   H6S 7658   5.899   1.896  10.938  0.1516 -0.4877 -0.1628
   60DOPE   C27 7659   5.975   1.737  11.063  0.2287 -0.3034 -0.6753
   60DOPE   H7R 7660   6.079   1.742  11.023  0.1480 -2.7254 -1.3807
   60DOPE   H7S 7661   5.951   1.630  11.082 -2.2540  0.2086 -0.6175
   60DOPE   C28 7662   5.964   1.828  11.188  0.4282 -0.6932  0.6111
   60DOPE   H8R 7663   5.957   1.936  11.166 -0.5851 -0.4838  1.8715
   60DOPE   H8S 7664   6.059   1.825  11.245  0.2233  2.6603  1.2770
   60DOPE   C29 7665   5.847   1.783  11.269  0.2850  0.6166 -0.2886
   60DOPE   H9R 7666   5.756   1.807  11.212 -0.2059 -0.7153 -0.0991
   60DOPE  C210 7667   5.848   1.687  11.361 -0.6712  0.6493 -0.5585
   60DOPE  H10R 7668   5.753   1.667  11.413  0.0344 -1.0095  0.1648
   60DOPE  C211 7669   5.963   1.615  11.428 -0.3746 -0.0115 -0.1692
   60DOPE  H11R 7670   6.064   1.641  11.389  0.1385  0.8108  1.5842
   60DOPE  H11S 7671   5.956   1.509  11.396 -1.8169  0.1438 -0.4183
   60DOPE  C212 7672   5.945   1.630  11.582  1.2647 -0.4605 -0.6238
   60DOPE  H12R 7673   5.846   1.584  11.602  1.8202 -1.3968  0.0768
   60DOPE  H12S 7674   5.939   1.738  11.609  0.6528 -0.3563 -1.1489
   60DOPE  C213 7675   6.050   1.548  11.653  0.3525  0.1724 -0.1561
   60DOPE  H13R 7676   6.147   1.602  11.645  0.1827  0.6851  0.9956
   60DOPE  H13S 7677   6.070   1.448  11.607 -2.7307  0.6477 -2.8872
   60DOPE  C214 7678   6.008   1.534  11.803 -0.1902  0.7450 -0.2763
   60DOPE  H14R 7679   5.927   1.458  11.810 -0.0008  0.6137  0.5277
   60DOPE  H14S 7680   5.970   1.632  11.837 -0.2448  0.3345  0.8680
   60DOPE  C215 7681   6.116   1.472  11.884  0.2720 -0.3327 -0.1241
   60DOPE  H15R 7682   6.204   1.539  11.870  1.2776 -1.7041 -0.5303
   60DOPE  H15S 7683   6.138   1.370  11.845  1.1980 -0.3872  0.5120
   60DOPE  C216 7684   6.090   1.472  12.029  0.0643  0.4491 -0.8423
   60DOPE  H16R 7685   5.990   1.431  12.056  0.1450  1.7009  1.6699
   60DOPE  H16S 7686   6.105   1.576  12.065 -0.2755 -0.0281  0.7763
   60DOPE  C217 7687   6.202   1.407  12.116 -0.0275 -0.6212  0.5300
   60DOPE  H17R 7688   6.194   1.451  12.217  0.8659  1.1885 -0.1344
   60DOPE  H17S 7689   6.302   1.437  12.078 -0.0985  0.1463  0.9251
   60DOPE  C218 7690   6.193   1.250  12.116 -0.2145 -0.0922 -0.3876
   60DOPE  H18R 7691   6.107   1.211  12.174  1.0180  0.0118  1.6276
   60DOPE  H18S 7692   6.290   1.204  12.145  1.3393  0.5424 -4.0931
   60DOPE  H18T 7693   6.189   1.215  12.011 -1.0367  2.9942 -1.4735
   60DOPE   C33 7694   6.116   2.113  10.433  0.1339 -0.0314  0.5991
   60DOPE   H3X 7695   6.005   2.109  10.426  0.2102 -0.8647 -0.2746
   60DOPE   H3Y 7696   6.147   2.219  10.445  0.7397 -0.3200  1.8320
   60DOPE   C34 7697   6.168   2.050  10.568  0.3466 -0.7706 -0.0667
   60DOPE   H4X 7698   6.149   1.941  10.570 -0.4600 -0.6458 -0.7026
   60DOPE   H4Y 7699   6.279   2.063  10.568  0.1709  1.0475  0.9392
   60DOPE   C35 7700   6.110   2.112  10.684 -0.1198 -0.4423 -0.9559
   60DOPE   H5X 7701   6.002   2.093  10.698 -0.1127 -1.0576 -1.6628
   60DOPE   H5Y 7702   6.117   2.223  10.674 -2.0767 -0.1817  0.0643
   60DOPE   C36 7703   6.181   2.060  10.815 -0.1887  0.8641 -0.0102
   60DOPE   H6X 7704   6.288   2.088  10.806 -0.1417  1.5624  2.3007
   60DOPE   H6Y 7705   6.176   1.950  10.801  2.7202  0.8367 -1.3907
   60DOPE   C37 7706   6.136   2.115  10.950  0.1205  0.5652  0.9692
   60DOPE   H7X 7707   6.145   2.225  10.960  2.5026  0.4726  0.5892
   60DOPE   H7Y 7708   6.028   2.090  10.955  0.2624 -0.1158  0.7820
   60DOPE   C38 7709   6.222   2.053  11.070  0.2666 -0.8051 -0.5201
   60DOPE   H8X 7710   6.235   1.943  11.077  0.4824 -0.7518 -0.0447
   60DOPE   H8Y 7711   6.154   2.080  11.154 -1.4035  0.7111 -2.2571
   60DOPE   C39 7712   6.351   2.128  11.091  0.2984 -0.2720 -0.3844
   60DOPE   H9X 7713   6.364   2.218  11.029 -0.6018  0.2770  0.2022
   60DOPE  C310 7714   6.451   2.108  11.177 -0.1330 -0.2908  0.3041
   60DOPE  H10X 7715   6.546   2.162  11.165  1.9264 -3.1539  2.2273
   60DOPE  C311 7716   6.455   2.004  11.289 -0.2217 -0.3806  0.5295
   60DOPE  H11X 7717   6.489   1.908  11.245  0.5629 -0.1094  0.5366
   60DOPE  H11Y 7718   6.535   2.025  11.363  2.5931 -1.4412 -2.0161
   60DOPE  C312 7719   6.328   1.963  11.368 -0.2394 -0.7481  0.4886
   60DOPE  H12X 7720   6.256   1.902  11.308 -1.5671  1.0452  0.1653
   60DOPE  H12Y 7721   6.272   2.053  11.400 -3.3910 -2.1164 -0.6845
   60DOPE  C313 7722   6.346   1.877  11.496  0.1596  0.1081 -0.3319
   60DOPE  H13X 7723   6.276   1.793  11.516  0.6891  0.0611  1.4435
   60DOPE  H13Y 7724   6.438   1.820  11.471  1.0889  1.2752  0.3334
   60DOPE  C314 7725   6.383   1.958  11.625  0.0515 -0.1596 -0.0358
   60DOPE  H14X 7726   6.298   2.026  11.649  0.0848 -0.6557  1.6263
   60DOPE  H14Y 7727   6.466   2.027  11.598  1.1839 -1.2416  0.5906
   60DOPE  C315 7728   6.402   1.870  11.759 -0.4473  0.2546  0.0461
   60DOPE  H15X 7729   6.482   1.794  11.746 -1.1799 -0.7123  1.0565
   60DOPE  H15Y 7730   6.313   1.805  11.772 -0.1793  0.0459  0.8515
   60DOPE  C316 7731   6.424   1.948  11.891  0.3476  0.2938  0.6314
   60DOPE  H16X 7732   6.340   2.020  11.907  0.4024 -0.0636  2.7919
   60DOPE  H16Y 7733   6.520   2.004  11.898  0.4527  0.1849  0.0921
   60DOPE  C317 7734   6.427   1.843  12.007  0.3743  0.8155 -0.3512
   60DOPE  H17X 7735   6.359   1.759  11.983 -1.0592  2.0482 -0.7334
   60DOPE  H17Y 7736   6.526   1.793  12.000 -0.4711 -0.7391 -2.3985
   60DOPE  C318 7737   6.400   1.901  12.152 -0.4851 -0.4599  0.0984
   60DOPE  H18X 7738   6.486   1.957  12.195 -0.5419  0.2686 -0.7165
   60DOPE  H18Y 7739   6.308   1.960  12.133 -0.1443 -0.0314 -0.2402
   60DOPE  H18Z 7740   6.373   1.819  12.222 -0.9089  0.7624  1.4029
   6123SM     N 7741   2.404   6.675  14.496 -0.3055  0.3983 -0.0839
   6123SM   C15 7742   2.432   6.568  14.602  0.2000  0.4725  0.4845
   6123SM  H15A 7743   2.449   6.473  14.556  1.9720 -0.0919  2.1866
   6123SM  H15B 7744   2.344   6.564  14.666  1.6688  2.4327  2.8406
   6123SM  H15C 7745   2.513   6.601  14.666  0.9654  0.2261 -0.3544
   6123SM   C14 7746   2.400   6.811  14.558 -0.1632  0.3222  0.1537
   6123SM  H14A 7747   2.337   6.816  14.646  0.9381  1.0226  0.9414
   6123SM  H14B 7748   2.382   6.886  14.483 -0.6045  0.2014  0.1345
   6123SM  H14C 7749   2.501   6.825  14.595  0.4262 -1.7464 -0.5145
   6123SM   C13 7750   2.515   6.668  14.402 -0.1653  0.4131  0.3808
   6123SM  H13A 7751   2.529   6.746  14.329  0.1774 -0.7007 -0.7775
   6123SM  H13B 7752   2.524   6.569  14.359 -1.6033  0.4589 -0.0762
   6123SM  H13C 7753   2.611   6.677  14.451 -0.3202  0.9109  0.6020
   6123SM   C12 7754   2.267   6.658  14.420  0.0974 -0.3256 -0.7738
   6123SM  H12A 7755   2.265   6.567  14.361  0.7338 -1.0850  0.3302
   6123SM  H12B 7756   2.254   6.736  14.347  1.7697  0.6269 -0.1031
   6123SM   C11 7757   2.130   6.657  14.501 -0.7704  0.0148 -0.0183
   6123SM  H11A 7758   2.039   6.643  14.440 -0.6564  0.9521 -0.4159
   6123SM  H11B 7759   2.131   6.755  14.554  2.6667  0.4591 -0.6209
   6123SM     P 7760   2.091   6.409  14.569 -0.2124  0.1848  0.0239
   6123SM   O13 7761   2.193   6.314  14.619  0.0806  0.8981  0.2604
   6123SM   O14 7762   1.957   6.397  14.629 -0.3179 -0.1532 -0.1242
   6123SM   O11 7763   2.082   6.412  14.410 -0.2594 -0.4213  0.0963
   6123SM   O12 7764   2.134   6.554  14.599  0.1745 -0.2747 -0.0135
   6123SM   C1S 7765   2.009   6.309  14.344 -0.5257 -0.3061 -0.9398
   6123SM   H1S 7766   1.903   6.301  14.375 -0.3199 -0.3339 -0.2352
   6123SM   H1T 7767   2.061   6.219  14.381 -0.3432  1.3930  3.4395
   6123SM    NF 7768   1.939   6.198  14.138 -0.4203  0.7356  0.1741
   6123SM   HNF 7769   1.984   6.132  14.078  0.8503  0.5308  1.3022
   6123SM   C2S 7770   2.018   6.311  14.191  0.4855  0.0298 -0.7800
   6123SM   H2S 7771   1.970   6.400  14.145 -1.4685 -0.9542 -0.7592
   6123SM   C3S 7772   2.167   6.303  14.153 -0.9611  0.3152  0.4420
   6123SM   H3S 7773   2.198   6.207  14.199 -0.8850  0.7257  1.2799
   6123SM    O3 7774   2.251   6.403  14.215  0.0367  0.4121  0.9168
   6123SM   HO3 7775   2.196   6.432  14.287  0.4299 -0.0148  1.3995
   6123SM   C4S 7776   2.189   6.301  13.998  0.0877 -0.1307  0.7289
   6123SM   H4S 7777   2.211   6.398  13.950  0.0647 -0.6228 -0.2933
   6123SM   C5S 7778   2.219   6.193  13.927 -0.5144  1.2709  0.6178
   6123SM   H5S 7779   2.237   6.096  13.975 -0.7178 -0.3860 -2.4264
   6123SM   C6S 7780   2.265   6.214  13.784  0.2180  0.1280  0.2957
   6123SM   H6S 7781   2.342   6.141  13.751 -0.1477  0.9029 -2.6083
   6123SM   H6T 7782   2.307   6.314  13.758  0.9557 -0.3724 -0.4805
   6123SM   C7S 7783   2.148   6.204  13.686  0.5232 -0.2191 -0.3971
   6123SM   H7S 7784   2.073   6.282  13.708 -0.2314 -1.1188  0.2823
   6123SM   H7T 7785   2.085   6.114  13.700 -1.0827  1.2176  2.2663
   6123SM   C8S 7786   2.197   6.206  13.544  0.0264  0.0588  0.7510
   6123SM   H8S 7787   2.260   6.115  13.544 -0.6542 -0.4252  1.6311
   6123SM   H8T 7788   2.268   6.291  13.529  1.9723 -1.3779  1.3713
   6123SM   C9S 7789   2.085   6.202  13.445  0.4784  0.4900 -0.5654
   6123SM   H9S 7790   2.032   6.298  13.459 -1.6071 -0.7029  0.0780
   6123SM   H9T 7791   2.021   6.115  13.470  1.9632 -0.5268 -0.1844
   6123SM  C10S 7792   2.133   6.175  13.303  0.6727  0.1601  0.0903
   6123SM  H10S 7793   2.058   6.122  13.242  0.8372  0.6841 -0.5843
   6123SM  H10T 7794   2.220   6.106  13.306  1.2779  0.9385  1.4138
   6123SM  C11S 7795   2.184   6.297  13.222  0.1716  0.0380  0.7779
   6123SM  H11S 7796   2.271   6.343  13.273  1.1515  1.4592 -1.9823
   6123SM  H11T 7797   2.111   6.380  13.209 -0.3365 -0.4068  0.7609
   6123SM  C12S 7798   2.246   6.249  13.083 -0.0683 -0.9474 -0.1630
   6123SM  H12S 7799   2.291   6.148  13.083 -0.0068 -0.9207 -0.5371
   6123SM  H12T 7800   2.326   6.321  13.055  0.3350 -0.7316  1.4322
   6123SM  C13S 7801   2.123   6.248  12.986 -0.1636 -0.4360 -0.0256
   6123SM  H13S 7802   2.067   6.344  12.983 -0.1702 -0.3843  1.4162
   6123SM  H13T 7803   2.043   6.179  13.022  0.4009 -0.8901  0.3719
   6123SM  C14S 7804   2.165   6.203  12.841  0.0562  0.2440 -0.3324
   6123SM  H14S 7805   2.086   6.136  12.801  0.1339 -0.7786  1.1618
   6123SM  H14T 7806   2.262   6.151  12.846  0.6397  1.4160  1.3945
   6123SM  C15S 7807   2.180   6.318  12.749 -0.1540 -0.4380 -0.6094
   6123SM  H15S 7808   2.277   6.367  12.773  0.5788 -0.6733 -2.8485
   6123SM  H15T 7809   2.106   6.397  12.772  0.3336 -0.0916 -0.2179
   6123SM  C16S 7810   2.204   6.279  12.598  0.0208 -0.7036  0.3482
   6123SM  H16S 7811   2.104   6.263  12.552  0.4421  2.6282 -2.1527
   6123SM  H16T 7812   2.255   6.181  12.587  0.8832 -0.3822  1.3243
   6123SM  C17S 7813   2.273   6.394  12.517 -0.2839 -0.2372  0.6987
   6123SM  H17S 7814   2.249   6.493  12.562  1.8473  0.2338  0.9194
   6123SM  H17T 7815   2.224   6.390  12.418  0.0625  2.2725  0.3580
   6123SM  C18S 7816   2.424   6.364  12.499  0.3902 -0.1732 -0.1545
   6123SM  H18S 7817   2.468   6.379  12.600 -1.2760  0.8161  0.4784
   6123SM  H18T 7818   2.469   6.426  12.419 -0.9189 -0.3437 -1.0686
   6123SM  H18U 7819   2.437   6.256  12.474 -0.7491 -1.0466  2.5756
   6123SM   C1F 7820   1.809   6.186  14.156  0.1008 -0.2413 -0.2459
   6123SM    OF 7821   1.742   6.283  14.192 -0.2310 -0.1581  0.3022
   6123SM   C2F 7822   1.741   6.061  14.120  0.1678  0.3384  0.2553
   6123SM   H2F 7823   1.683   6.023  14.206 -0.3307 -1.6302 -0.8797
   6123SM   H2G 7824   1.813   5.978  14.101 -0.2288 -0.4409  2.0268
   6123SM   C3F 7825   1.663   6.087  13.993  0.6731  0.5913  0.5061
   6123SM   H3F 7826   1.595   6.173  14.012  1.5965  1.6584 -0.7957
   6123SM   H3G 7827   1.601   5.997  13.978 -0.1526  1.0239  1.1882
   6123SM   C4F 7828   1.739   6.120  13.864 -0.2322  0.2952 -0.1989
   6123SM   H4F 7829   1.781   6.019  13.843 -0.0169 -0.0112  1.5413
   6123SM   H4G 7830   1.824   6.190  13.879 -0.4660  0.6041 -0.3230
   6123SM   C5F 7831   1.645   6.146  13.737 -0.1640 -0.1242  0.4335
   6123SM   H5F 7832   1.586   6.240  13.749  1.8794  1.3866 -0.6715
   6123SM   H5G 7833   1.570   6.066  13.718  0.9402 -1.3743  1.1667
   6123SM   C6F 7834   1.741   6.155  13.613  0.1218  0.6165  0.0439
   6123SM   H6F 7835   1.786   6.055  13.594  1.1936  1.1427 -0.2768
   6123SM   H6G 7836   1.828   6.221  13.629 -0.1118  0.9647 -0.1110
   6123SM   C7F 7837   1.664   6.187  13.479 -0.0795  0.3272 -0.0312
   6123SM   H7F 7838   1.624   6.287  13.505  1.4387  0.7899  0.6692
   6123SM   H7G 7839   1.588   6.108  13.466  1.3533 -1.1807  0.3851
   6123SM   C8F 7840   1.759   6.205  13.358 -0.3735 -0.4729  0.3087
   6123SM   H8F 7841   1.827   6.118  13.345  1.5407  1.2417 -2.1391
   6123SM   H8G 7842   1.829   6.290  13.375 -2.2880  1.1198  0.6189
   6123SM   C9F 7843   1.679   6.215  13.227 -0.4952  0.6974 -0.0754
   6123SM   H9F 7844   1.612   6.302  13.235 -1.9470 -0.2835 -1.0992
   6123SM   H9G 7845   1.612   6.128  13.208 -0.9587  0.8095  1.0138
   6123SM  C10F 7846   1.775   6.210  13.103  0.3702  1.0365  0.4983
   6123SM  H10F 7847   1.833   6.116  13.113 -2.9100 -1.4055 -1.4244
   6123SM  H10G 7848   1.840   6.300  13.101  0.3166  1.0662 -0.1484
   6123SM  C11F 7849   1.693   6.196  12.976  0.1429 -0.0868 -0.2634
   6123SM  H11F 7850   1.620   6.279  12.961 -1.7521 -1.6291  0.0570
   6123SM  H11G 7851   1.633   6.103  12.968  0.6492 -0.3541 -1.1128
   6123SM  C12F 7852   1.776   6.207  12.851 -0.1620  0.2922  0.0237
   6123SM  H12F 7853   1.862   6.137  12.856  0.5155  0.8528 -2.3171
   6123SM  H12G 7854   1.818   6.310  12.852  2.1941 -0.6049  0.4599
   6123SM  C13F 7855   1.692   6.184  12.727 -0.0023 -0.8891 -0.5005
   6123SM  H13F 7856   1.603   6.248  12.744  0.0025 -1.4538  2.1237
   6123SM  H13G 7857   1.658   6.078  12.720  0.3604 -1.0952  0.6177
   6123SM  C14F 7858   1.773   6.220  12.605  0.9245  0.5140  0.2919
   6123SM  H14F 7859   1.857   6.148  12.592  1.4852  1.0498  0.8533
   6123SM  H14G 7860   1.816   6.322  12.615  0.8373  0.4820  0.9978
   6123SM  C15F 7861   1.694   6.214  12.466  0.1580 -0.0616  0.1620
   6123SM  H15F 7862   1.745   6.275  12.389  0.0258  0.7305  0.6929
   6123SM  H15G 7863   1.591   6.254  12.480  0.4744  0.1869  2.0894
   6123SM  C16F 7864   1.674   6.062  12.421 -0.6859 -0.6882  0.4208
   6123SM  H16F 7865   1.567   6.042  12.399 -0.2859 -1.0799 -1.3378
   6123SM  H16G 7866   1.698   5.993  12.505 -1.9224 -1.6920 -0.0205
   6123SM  C17F 7867   1.761   6.017  12.296 -0.2504 -0.6677 -0.5212
   6123SM  H17F 7868   1.736   6.074  12.204  1.3626 -0.8886 -1.1398
   6123SM  H17G 7869   1.740   5.910  12.273 -4.7022 -0.0231 -0.3613
   6123SM  C18F 7870   1.914   6.021  12.332 -0.0996  0.0387 -0.3736
   6123SM  H18F 7871   1.918   5.938  12.406 -1.0566  0.8251  0.6024
   6123SM  H18G 7872   1.954   6.109  12.386  2.5570 -0.3406 -1.5484
   6123SM  C19F 7873   1.995   5.989  12.200 -1.0904  0.0079  0.3402
   6123SM  H19F 7874   1.977   6.074  12.131 -0.1218  0.4443  0.6076
   6123SM  H19G 7875   1.941   5.901  12.159 -0.2787  0.7614 -2.5803
   6123SM  C20F 7876   2.136   5.953  12.227  1.0321 -0.7620 -0.6566
   6123SM  H20F 7877   2.140   5.887  12.317  0.6081  0.8129  0.5747
   6123SM  H20G 7878   2.189   6.050  12.236 -1.1875  0.7658 -2.7207
   6123SM  C21F 7879   2.188   5.873  12.103  0.4584 -0.1673  0.2844
   6123SM  H21F 7880   2.175   5.936  12.012 -2.1196  0.0868  0.7425
   6123SM  H21G 7881   2.120   5.787  12.086 -1.3670  0.8482  1.9376
   6123SM  C22F 7882   2.330   5.827  12.113  0.2950  0.1028  0.5419
   6123SM  H22F 7883   2.396   5.916  12.122 -2.0092  2.1343 -1.3776
   6123SM  H22G 7884   2.355   5.770  12.022  0.9266  1.4477 -0.1593
   6123SM  C23F 7885   2.356   5.728  12.225 -0.1473 -0.3280 -0.0665
   6123SM  H23F 7886   2.291   5.641  12.203 -0.7077  0.1816 -0.4598
   6123SM  H23G 7887   2.325   5.771  12.323 -1.8889 -2.5755  0.4356
   6123SM  H23H 7888   2.462   5.695  12.220 -0.5168 -1.4463 -0.6430
   6223SM     N 7889   2.179   4.890  15.246  0.4990  0.2042 -0.6091
   6223SM   C15 7890   2.102   4.920  15.375  0.0786  0.1813  0.3323
   6223SM  H15A 7891   2.146   4.868  15.459 -0.8209 -0.8996  0.1540
   6223SM  H15B 7892   2.000   4.894  15.352  0.0446  1.0218 -0.5386
   6223SM  H15C 7893   2.101   5.028  15.384 -1.0190  0.4552 -2.1862
   6223SM   C14 7894   2.315   4.944  15.253  0.6557 -0.2261  0.4697
   6223SM  H14A 7895   2.372   4.910  15.338 -1.1312 -1.1830  1.3140
   6223SM  H14B 7896   2.311   5.051  15.269  4.6713  0.1975 -0.2215
   6223SM  H14C 7897   2.376   4.926  15.165  0.5325  1.6532 -0.0598
   6223SM   C13 7898   2.190   4.742  15.248 -0.1771 -0.5669 -0.5149
   6223SM  H13A 7899   2.233   4.710  15.342 -1.1402  1.2762  0.6032
   6223SM  H13B 7900   2.249   4.695  15.170 -2.1996 -2.3770 -1.0560
   6223SM  H13C 7901   2.092   4.699  15.238 -0.4502  0.1167 -0.8296
   6223SM   C12 7902   2.094   4.932  15.131  0.1050  0.1268  0.1018
   6223SM  H12A 7903   2.063   5.035  15.130  2.3849  0.9630  2.9073
   6223SM  H12B 7904   2.004   4.873  15.145  0.3195  0.1916  1.9919
   6223SM   C11 7905   2.148   4.885  14.993  0.0787  0.0791 -0.0061
   6223SM  H11A 7906   2.070   4.895  14.915 -0.2330  0.1763  0.3160
   6223SM  H11B 7907   2.160   4.774  14.997 -0.5824 -0.0104 -0.3857
   6223SM     P 7908   2.345   4.882  14.837 -0.0458 -0.1898  0.1871
   6223SM   O13 7909   2.464   4.960  14.814  0.1917 -0.0430  0.0370
   6223SM   O14 7910   2.358   4.739  14.867 -0.0676  0.4999  0.0161
   6223SM   O11 7911   2.244   4.885  14.715  0.5631 -0.3547  0.0741
   6223SM   O12 7912   2.273   4.950  14.959  0.5955  0.3717 -0.4783
   6223SM   C1S 7913   2.180   5.002  14.663  0.7231  0.6972 -0.0002
   6223SM   H1S 7914   2.245   5.090  14.685  1.4572  0.6649 -1.8464
   6223SM   H1T 7915   2.079   5.021  14.705 -0.0638 -0.3064 -1.3763
   6223SM    NF 7916   2.129   5.139  14.466 -0.4414 -0.4495 -0.8154
   6223SM   HNF 7917   2.033   5.167  14.458 -0.8370 -0.9681  1.3850
   6223SM   C2S 7918   2.163   5.005  14.509 -0.1376 -0.3017  0.2815
   6223SM   H2S 7919   2.256   4.979  14.455  0.3777 -1.2512  1.5709
   6223SM   C3S 7920   2.065   4.894  14.461 -0.3026  0.3844 -0.0715
   6223SM   H3S 7921   1.959   4.906  14.495 -0.8298 -0.0604 -1.5103
   6223SM    O3 7922   2.101   4.767  14.509  0.1715  0.0134  0.1173
   6223SM   HO3 7923   2.189   4.773  14.547  0.0673  1.8658  0.1246
   6223SM   C4S 7924   2.047   4.893  14.310 -0.0288  0.4660 -0.7548
   6223SM   H4S 7925   2.142   4.903  14.254  0.9291 -1.1943  0.4851
   6223SM   C5S 7926   1.938   4.862  14.244 -0.1195  0.1325 -0.1815
   6223SM   H5S 7927   1.848   4.820  14.292 -1.3418 -0.1634 -2.5603
   6223SM   C6S 7928   1.928   4.862  14.091 -0.2217 -0.0853  0.2695
   6223SM   H6S 7929   1.910   4.965  14.056 -0.4575  0.2774  1.4215
   6223SM   H6T 7930   1.843   4.793  14.072 -0.4608 -0.0048  1.0039
   6223SM   C7S 7931   2.047   4.800  14.025 -0.1478 -0.3891  0.0107
   6223SM   H7S 7932   2.047   4.695  14.062  0.1453 -0.9840 -1.5913
   6223SM   H7T 7933   2.143   4.849  14.052 -0.3043  0.2554 -0.5640
   6223SM   C8S 7934   2.029   4.778  13.873  0.3249  0.7812  0.2835
   6223SM   H8S 7935   1.925   4.749  13.845  0.6233 -0.1362  0.0889
   6223SM   H8T 7936   2.102   4.701  13.840 -1.3156 -0.7642  0.0690
   6223SM   C9S 7937   2.066   4.890  13.778  0.7104 -0.4584 -0.3217
   6223SM   H9S 7938   2.165   4.925  13.813  0.6034 -0.5919  0.1106
   6223SM   H9T 7939   1.996   4.976  13.773 -0.0970 -1.0032  1.1476
   6223SM  C10S 7940   2.087   4.840  13.632 -0.3531  0.5064  0.4833
   6223SM  H10S 7941   1.990   4.806  13.588 -0.5478  1.1507  0.4013
   6223SM  H10T 7942   2.162   4.759  13.622 -0.6346  0.4915 -2.4159
   6223SM  C11S 7943   2.134   4.944  13.532  0.2077  0.0303 -0.1169
   6223SM  H11S 7944   2.235   4.984  13.558  0.8969 -0.1684 -2.2455
   6223SM  H11T 7945   2.063   5.029  13.540  1.4375  0.9573  1.4938
   6223SM  C12S 7946   2.149   4.882  13.393  0.3569  0.6938 -0.3411
   6223SM  H12S 7947   2.057   4.827  13.363  0.7088  0.2200 -0.5642
   6223SM  H12T 7948   2.223   4.799  13.399 -1.1037 -0.6465 -0.2802
   6223SM  C13S 7949   2.188   4.987  13.289 -0.2278 -0.3703  0.4180
   6223SM  H13S 7950   2.273   5.049  13.325  0.9183 -0.5522 -1.8281
   6223SM  H13T 7951   2.102   5.056  13.273  0.4365  0.4494  0.2889
   6223SM  C14S 7952   2.232   4.927  13.156  0.5604  0.5141  0.0777
   6223SM  H14S 7953   2.160   4.844  13.142  1.2981  0.0001 -0.7624
   6223SM  H14T 7954   2.336   4.890  13.165  0.0075 -0.8035  1.5704
   6223SM  C15S 7955   2.231   5.028  13.046 -0.2079 -0.1237  0.5012
   6223SM  H15S 7956   2.278   5.117  13.093  0.2464 -0.5579  0.8756
   6223SM  H15T 7957   2.125   5.045  13.017  0.6332  0.1937 -2.8412
   6223SM  C16S 7958   2.300   4.981  12.914 -0.0183 -0.3756 -0.9001
   6223SM  H16S 7959   2.292   5.068  12.845  1.9501  0.4293 -0.1692
   6223SM  H16T 7960   2.251   4.892  12.870 -2.1960 -0.1526  0.8915
   6223SM  C17S 7961   2.455   4.963  12.919  0.3103 -0.2692  0.0069
   6223SM  H17S 7962   2.492   4.940  12.817  1.7489 -0.2673  0.5024
   6223SM  H17T 7963   2.476   4.880  12.989 -2.3559 -1.7008 -0.7522
   6223SM  C18S 7964   2.521   5.094  12.965 -0.1035  0.3868  0.3692
   6223SM  H18S 7965   2.632   5.090  12.952 -0.3434  1.3992 -2.8823
   6223SM  H18T 7966   2.499   5.114  13.072  0.1423 -1.9272  0.8986
   6223SM  H18U 7967   2.490   5.173  12.894  0.1328 -0.0587 -0.2461
   6223SM   C1F 7968   2.221   5.233  14.462 -0.0605  0.3151 -0.1519
   6223SM    OF 7969   2.336   5.212  14.507 -0.0752 -0.2105  0.1271
   6223SM   C2F 7970   2.178   5.360  14.402 -0.2714 -0.5723  0.1933
   6223SM   H2F 7971   2.171   5.434  14.485  0.7765  0.4710 -0.6147
   6223SM   H2G 7972   2.076   5.364  14.359  0.5895  0.6560 -1.8463
   6223SM   C3F 7973   2.277   5.410  14.299 -0.3984 -0.1638  0.2698
   6223SM   H3F 7974   2.366   5.442  14.356 -0.7724  0.8980  0.2785
   6223SM   H3G 7975   2.224   5.495  14.251 -1.3787  0.1592  1.8357
   6223SM   C4F 7976   2.317   5.291  14.200 -0.2496 -0.3705  0.0669
   6223SM   H4F 7977   2.381   5.216  14.251  1.7446  0.3500 -1.2367
   6223SM   H4G 7978   2.385   5.340  14.127  0.1796  0.7263  1.1481
   6223SM   C5F 7979   2.198   5.221  14.130  0.5051  0.2761 -0.3488
   6223SM   H5F 7980   2.120   5.290  14.091 -0.5268 -0.2868  0.6698
   6223SM   H5G 7981   2.153   5.143  14.195 -1.9842  0.1744 -2.0733
   6223SM   C6F 7982   2.249   5.143  14.008 -0.3861  0.0086  0.4787
   6223SM   H6F 7983   2.166   5.074  13.980 -0.7100  1.0353 -1.2504
   6223SM   H6G 7984   2.323   5.067  14.042 -0.7575 -0.9421 -0.7693
   6223SM   C7F 7985   2.280   5.233  13.889 -0.1353 -0.2929  0.3989
   6223SM   H7F 7986   2.322   5.168  13.809 -0.8266 -0.1457 -0.0870
   6223SM   H7G 7987   2.350   5.317  13.908 -2.0409  1.5622 -0.4446
   6223SM   C8F 7988   2.153   5.297  13.830 -0.6520  0.3584  0.0214
   6223SM   H8F 7989   2.134   5.376  13.906 -3.5185  0.5065 -0.7354
   6223SM   H8G 7990   2.069   5.227  13.846 -0.8619  0.6405  0.1707
   6223SM   C9F 7991   2.154   5.342  13.691 -0.5390  0.0517 -0.2014
   6223SM   H9F 7992   2.229   5.288  13.630  1.1239  0.6457  1.2417
   6223SM   H9G 7993   2.181   5.449  13.682 -0.6781 -0.0957 -3.3944
   6223SM  C10F 7994   2.024   5.323  13.617  0.0710  0.4011 -0.0352
   6223SM  H10F 7995   1.950   5.403  13.637 -0.2819  0.1752 -0.4264
   6223SM  H10G 7996   1.978   5.229  13.653  0.1447  0.4767  0.2613
   6223SM  C11F 7997   2.053   5.317  13.468  0.2332 -0.2219 -0.6026
   6223SM  H11F 7998   2.107   5.226  13.435 -0.8491 -0.4244 -1.8923
   6223SM  H11G 7999   2.118   5.402  13.437 -1.6153  0.7417 -2.0008
   6223SM  C12F 8000   1.919   5.317  13.390 -0.0138 -0.0526 -0.3592
   6223SM  H12F 8001   1.847   5.383  13.443  2.1690  1.9310  0.3193
   6223SM  H12G 8002   1.880   5.214  13.376  1.0650 -0.4602 -0.5196
   6223SM  C13F 8003   1.937   5.390  13.255 -0.7598 -0.0314  0.3289
   6223SM  H13F 8004   1.995   5.483  13.274  0.3317 -0.7087  0.4565
   6223SM  H13G 8005   1.841   5.416  13.206  0.3199  0.3254 -1.7603
   6223SM  C14F 8006   2.005   5.311  13.142 -0.8076  0.1441  0.9685
   6223SM  H14F 8007   1.955   5.212  13.143 -0.4239 -0.1368 -1.3330
   6223SM  H14G 8008   2.107   5.285  13.179 -1.1485 -0.6290  1.3968
   6223SM  C15F 8009   2.010   5.374  13.002 -0.2652  0.4413 -1.2416
   6223SM  H15F 8010   2.076   5.464  13.004  2.5068 -1.4982  0.3509
   6223SM  H15G 8011   1.911   5.412  12.969 -0.2121  0.6647 -1.1463
   6223SM  C16F 8012   2.044   5.281  12.889 -0.0814  0.1718 -0.5378
   6223SM  H16F 8013   1.987   5.186  12.880 -0.5236  0.4597 -0.8174
   6223SM  H16G 8014   2.146   5.243  12.914 -1.0812 -1.4095  1.3890
   6223SM  C17F 8015   2.048   5.350  12.751  0.1464 -0.1849 -0.0644
   6223SM  H17F 8016   2.110   5.439  12.774  0.2191 -0.6746  1.8902
   6223SM  H17G 8017   1.946   5.385  12.724  0.6487  0.8354 -0.6590
   6223SM  C18F 8018   2.118   5.261  12.641 -0.6467 -0.2604 -0.0795
   6223SM  H18F 8019   2.052   5.245  12.553 -1.0823  0.0839  0.1762
   6223SM  H18G 8020   2.116   5.159  12.683 -0.8876 -0.4629 -0.5700
   6223SM  C19F 8021   2.264   5.307  12.615  0.4994 -0.6288  0.2178
   6223SM  H19F 8022   2.311   5.307  12.715 -2.0327 -2.8489  1.5460
   6223SM  H19G 8023   2.252   5.407  12.568  0.2063 -0.5101  0.5452
   6223SM  C20F 8024   2.337   5.224  12.505  0.6446  0.0275 -0.2581
   6223SM  H20F 8025   2.439   5.258  12.477  0.3524 -1.1022 -3.0748
   6223SM  H20G 8026   2.279   5.224  12.410 -0.1966  0.0645  0.2412
   6223SM  C21F 8027   2.334   5.068  12.533 -0.1371  0.1707 -0.2953
   6223SM  H21F 8028   2.226   5.045  12.541 -0.4534  0.4753 -2.8585
   6223SM  H21G 8029   2.388   5.029  12.622  0.9745 -0.2245 -1.1174
   6223SM  C22F 8030   2.399   5.000  12.412 -0.3822  1.4213  0.3140
   6223SM  H22F 8031   2.509   5.009  12.427 -0.0588  1.9864 -1.9805
   6223SM  H22G 8032   2.372   5.039  12.312 -1.5526  1.8709  0.7917
   6223SM  C23F 8033   2.351   4.852  12.408 -0.6272 -0.4182  0.9643
   6223SM  H23F 8034   2.395   4.797  12.321 -1.1093  1.5421 -0.5911
   6223SM  H23G 8035   2.241   4.835  12.407 -0.3591 -2.4583 -0.2156
   6223SM  H23H 8036   2.384   4.798  12.499  0.9854  1.6330  1.6738
   6323SM     N 8037   1.801   0.511  14.566  0.2965  0.2694 -0.3658
   6323SM   C15 8038   1.726   0.464  14.687 -0.0221  0.1562  0.1764
   6323SM  H15A 8039   1.793   0.424  14.762 -0.2005  1.3489  0.9987
   6323SM  H15B 8040   1.652   0.389  14.661 -1.9389  1.7399  0.8179
   6323SM  H15C 8041   1.665   0.540  14.733  0.4981  0.9776 -0.4552
   6323SM   C14 8042   1.703   0.579  14.469 -0.1245  0.9620  0.2992
   6323SM  H14A 8043   1.748   0.611  14.376  0.0689  1.5913  0.6087
   6323SM  H14B 8044   1.647   0.661  14.511 -1.1129  0.7476 -0.5476
   6323SM  H14C 8045   1.630   0.504  14.441  1.3208 -0.9475  1.3827
   6323SM   C13 8046   1.901   0.608  14.615  0.4273 -0.4326  0.4825
   6323SM  H13A 8047   1.901   0.695  14.551  0.3872 -0.8263 -0.0616
   6323SM  H13B 8048   2.002   0.572  14.608  1.0882  1.0289  1.8690
   6323SM  H13C 8049   1.882   0.644  14.715  1.1356 -1.4938  1.0189
   6323SM   C12 8050   1.864   0.399  14.495  0.2088  0.2031 -0.3527
   6323SM  H12A 8051   1.924   0.437  14.415  2.0961 -1.9683 -0.0851
   6323SM  H12B 8052   1.784   0.334  14.461 -1.5432  1.0776  1.8522
   6323SM   C11 8053   1.961   0.318  14.587 -0.1146  0.1865 -0.3152
   6323SM  H11A 8054   1.989   0.227  14.529  0.9442 -0.8428  1.6930
   6323SM  H11B 8055   1.902   0.278  14.673  1.1194 -0.2494  0.3510
   6323SM     P 8056   2.218   0.347  14.641 -0.0202 -0.5065  0.4259
   6323SM   O13 8057   2.304   0.459  14.691 -0.1866  0.2840 -0.1047
   6323SM   O14 8058   2.215   0.230  14.732 -0.3284 -0.8485  0.1384
   6323SM   O11 8059   2.258   0.294  14.493  0.3623  0.4972 -0.6863
   6323SM   O12 8060   2.074   0.391  14.624 -0.6370 -0.4976  0.1770
   6323SM   C1S 8061   2.274   0.379  14.385 -0.4002 -0.6522  0.5540
   6323SM   H1S 8062   2.371   0.431  14.399 -0.9980  0.7576 -0.3268
   6323SM   H1T 8063   2.195   0.458  14.388 -0.9447 -0.9720 -2.4911
   6323SM    NF 8064   2.320   0.385  14.144 -0.1394  0.0526  0.8928
   6323SM   HNF 8065   2.253   0.412  14.076 -0.7580 -1.3301  0.9193
   6323SM   C2S 8066   2.266   0.293  14.253 -0.1059 -1.3034  0.0163
   6323SM   H2S 8067   2.344   0.214  14.261  2.0860  0.8646  1.5850
   6323SM   C3S 8068   2.127   0.234  14.226 -0.4443 -0.2616 -0.0904
   6323SM   H3S 8069   2.049   0.311  14.212 -2.5128 -2.6761 -3.0474
   6323SM    O3 8070   2.082   0.153  14.329  0.0698  0.1407 -0.9305
   6323SM   HO3 8071   2.132   0.185  14.405 -1.2517  0.2512 -0.0852
   6323SM   C4S 8072   2.118   0.150  14.098  0.1260 -0.1892 -0.1122
   6323SM   H4S 8073   2.150   0.203  14.007  0.9347 -0.8678 -0.2312
   6323SM   C5S 8074   2.096   0.017  14.080  0.3449 -0.2747 -0.2721
   6323SM   H5S 8075   2.064  -0.039  14.169  1.2050  1.8754  1.4932
   6323SM   C6S 8076   2.097  -0.063  13.946 -0.1647  0.1817  0.2497
   6323SM   H6S 8077   2.168  -0.147  13.955 -0.2703  0.2033  1.4708
   6323SM   H6T 8078   2.133  -0.008  13.857 -0.3633  2.3454  1.4348
   6323SM   C7S 8079   1.952  -0.117  13.917 -0.5550  0.0171 -0.4456
   6323SM   H7S 8080   1.890  -0.031  13.883  1.4070  1.9934  0.6888
   6323SM   H7T 8081   1.902  -0.170  14.001  0.4853  0.3684  0.4150
   6323SM   C8S 8082   1.965  -0.194  13.782  0.9896 -0.0125  0.1801
   6323SM   H8S 8083   1.866  -0.237  13.756  0.2215  0.9988  1.2942
   6323SM   H8T 8084   2.029  -0.283  13.795 -0.5125 -0.9180  1.8445
   6323SM   C9S 8085   2.006  -0.105  13.662 -0.5966  0.4965  1.1839
   6323SM   H9S 8086   2.109  -0.065  13.674  0.7194 -2.7907  1.9249
   6323SM   H9T 8087   1.935  -0.020  13.669  0.9184  2.0331 -0.9513
   6323SM  C10S 8088   2.003  -0.166  13.528  0.3550  0.3100  0.5523
   6323SM  H10S 8089   1.914  -0.224  13.495  0.8782 -0.7487  0.9815
   6323SM  H10T 8090   2.084  -0.241  13.527  1.1812  1.0792  3.0351
   6323SM  C11S 8091   2.018  -0.062  13.417 -0.3356 -0.1198 -0.2761
   6323SM  H11S 8092   2.105   0.004  13.437 -0.9546  0.7001 -0.2761
   6323SM  H11T 8093   1.927   0.000  13.408 -2.1786 -2.6633 -0.3951
   6323SM  C12S 8094   2.034  -0.124  13.278 -0.5530 -0.1259  0.2318
   6323SM  H12S 8095   1.957  -0.203  13.266 -0.9314  0.0410  1.4280
   6323SM  H12T 8096   2.137  -0.163  13.263  0.4333  1.9423  1.2371
   6323SM  C13S 8097   2.007  -0.022  13.168 -0.1841  0.0237  0.1225
   6323SM  H13S 8098   2.078   0.063  13.168 -1.2925  0.9954  1.3447
   6323SM  H13T 8099   1.919   0.036  13.202  1.4055  3.0322 -0.5596
   6323SM  C14S 8100   2.001  -0.080  13.024 -0.2852 -0.2206  0.6904
   6323SM  H14S 8101   1.897  -0.113  13.006 -0.1845  0.1390 -0.6539
   6323SM  H14T 8102   2.062  -0.169  12.997  0.2568  0.6110 -0.9669
   6323SM  C15S 8103   2.026   0.022  12.910 -0.3071  0.2058 -0.1620
   6323SM  H15S 8104   2.111   0.090  12.931 -2.7491  3.2543  0.5923
   6323SM  H15T 8105   1.940   0.092  12.897 -0.5181 -0.6448 -5.8815
   6323SM  C16S 8106   2.061  -0.046  12.774  0.4663  0.1240 -0.2809
   6323SM  H16S 8107   2.153  -0.107  12.780 -0.4880 -1.4387 -0.6877
   6323SM  H16T 8108   2.068   0.032  12.695 -1.0594 -1.0361 -1.6487
   6323SM  C17S 8109   1.945  -0.132  12.711 -0.3246 -0.0300  0.0692
   6323SM  H17S 8110   1.905  -0.202  12.787 -3.6994  0.4418 -1.1161
   6323SM  H17T 8111   1.991  -0.191  12.629 -1.1516 -0.1859 -0.2974
   6323SM  C18S 8112   1.825  -0.043  12.661 -0.0734 -0.0473 -0.5278
   6323SM  H18S 8113   1.779  -0.005  12.755  1.8791  1.8272 -0.2403
   6323SM  H18T 8114   1.755  -0.114  12.613 -0.0207 -1.1239  0.9330
   6323SM  H18U 8115   1.851   0.038  12.590 -2.3907  2.1259  0.9257
   6323SM   C1F 8116   2.453   0.423  14.137 -0.2921  0.6455 -0.1845
   6323SM    OF 8117   2.529   0.406  14.232 -0.2520 -0.0428  0.0143
   6323SM   C2F 8118   2.502   0.478  14.002  0.7182  0.2539  0.3989
   6323SM   H2F 8119   2.609   0.491  14.027  0.9262 -0.4190 -0.1002
   6323SM   H2G 8120   2.443   0.572  14.001  2.2786  1.2696  0.3878
   6323SM   C3F 8121   2.474   0.379  13.883 -0.0701 -0.3719 -0.0892
   6323SM   H3F 8122   2.371   0.338  13.888  0.0736 -1.0065 -1.8057
   6323SM   H3G 8123   2.530   0.284  13.896 -1.6449 -1.2412  0.6324
   6323SM   C4F 8124   2.498   0.436  13.747  0.3365 -0.3724 -0.0365
   6323SM   H4F 8125   2.599   0.480  13.735 -0.3591  1.1972 -0.3284
   6323SM   H4G 8126   2.429   0.522  13.738  0.1148 -0.5122  0.3081
   6323SM   C5F 8127   2.459   0.336  13.646 -0.6755  1.0609  0.3534
   6323SM   H5F 8128   2.362   0.288  13.667  0.0312 -0.9516 -0.7267
   6323SM   H5G 8129   2.531   0.252  13.637 -0.5474  1.2643 -0.6365
   6323SM   C6F 8130   2.468   0.411  13.513  0.1489 -0.0914  0.3886
   6323SM   H6F 8131   2.572   0.448  13.515 -0.4557  1.6848  3.1446
   6323SM   H6G 8132   2.401   0.496  13.535 -1.5603 -1.8380  2.4794
   6323SM   C7F 8133   2.411   0.345  13.381  0.2962  0.2006  0.1152
   6323SM   H7F 8134   2.312   0.303  13.410  1.2388 -0.8504  1.9702
   6323SM   H7G 8135   2.482   0.267  13.348  1.7829  0.3608  2.6935
   6323SM   C8F 8136   2.380   0.445  13.272 -0.2375  0.2796  0.0808
   6323SM   H8F 8137   2.471   0.497  13.234 -1.1957  1.5042 -0.5845
   6323SM   H8G 8138   2.311   0.521  13.312 -0.5592  0.3179 -0.5300
   6323SM   C9F 8139   2.296   0.381  13.152  0.1968 -0.0842 -0.1169
   6323SM   H9F 8140   2.200   0.345  13.195  0.2416  0.6209  0.6026
   6323SM   H9G 8141   2.353   0.300  13.104 -0.9651 -0.4161 -0.9938
   6323SM  C10F 8142   2.266   0.482  13.040  1.0306 -0.1830 -0.3914
   6323SM  H10F 8143   2.358   0.544  13.044  0.1935  1.0547  0.7708
   6323SM  H10G 8144   2.189   0.556  13.072  1.4204 -0.0594  0.2851
   6323SM  C11F 8145   2.232   0.404  12.909 -0.0962  0.1536  0.0996
   6323SM  H11F 8146   2.138   0.345  12.915  0.6141 -1.3390 -2.3105
   6323SM  H11G 8147   2.316   0.333  12.898  1.0837  1.2951  1.2304
   6323SM  C12F 8148   2.209   0.506  12.795 -0.1482  0.2148  0.2133
   6323SM  H12F 8149   2.306   0.553  12.766  0.4411 -0.8305  0.4433
   6323SM  H12G 8150   2.129   0.582  12.811  0.1948  0.8018 -0.8132
   6323SM  C13F 8151   2.170   0.432  12.665  0.7702 -0.3356 -0.1856
   6323SM  H13F 8152   2.113   0.515  12.618 -1.9226 -0.6071  2.3034
   6323SM  H13G 8153   2.096   0.352  12.689  0.8511 -0.0603  1.0492
   6323SM  C14F 8154   2.279   0.379  12.574  0.3073 -1.0081 -0.5196
   6323SM  H14F 8155   2.329   0.293  12.624 -1.5862 -1.9254 -0.1216
   6323SM  H14G 8156   2.361   0.454  12.567 -0.5043  0.3328  2.6855
   6323SM  C15F 8157   2.227   0.338  12.437  0.4089  0.0815  0.2372
   6323SM  H15F 8158   2.311   0.339  12.364  1.5973 -0.0220  1.5474
   6323SM  H15G 8159   2.151   0.413  12.408 -1.7853 -1.7857  0.8466
   6323SM  C16F 8160   2.146   0.205  12.436  0.0571 -0.4307 -0.0209
   6323SM  H16F 8161   2.099   0.193  12.336  2.3136 -1.1730 -1.0709
   6323SM  H16G 8162   2.075   0.210  12.520  1.4400  3.6111  1.1230
   6323SM  C17F 8163   2.231   0.082  12.455  0.1945 -0.9616 -0.2400
   6323SM  H17F 8164   2.153   0.003  12.467  0.6782 -1.5637 -0.9429
   6323SM  H17G 8165   2.278   0.094  12.555  2.2078  1.9522 -1.4010
   6323SM  C18F 8166   2.328   0.050  12.346 -0.2536 -0.3102 -0.4711
   6323SM  H18F 8167   2.364  -0.051  12.374 -1.0627 -0.5143 -0.1345
   6323SM  H18G 8168   2.415   0.118  12.355  0.3446 -0.7622 -2.4675
   6323SM  C19F 8169   2.271   0.054  12.206 -0.6414 -0.3060  0.3755
   6323SM  H19F 8170   2.271   0.156  12.163  0.0747 -0.1981  0.6176
   6323SM  H19G 8171   2.168   0.013  12.216 -1.5140  1.7112  0.1555
   6323SM  C20F 8172   2.347  -0.029  12.097  1.3216 -0.2271 -0.7372
   6323SM  H20F 8173   2.287  -0.064  12.010 -0.3439 -2.7897  1.2907
   6323SM  H20G 8174   2.376  -0.119  12.156  1.2215 -0.4985 -1.1009
   6323SM  C21F 8175   2.480   0.029  12.042 -0.5207 -0.1757  0.3762
   6323SM  H21F 8176   2.532   0.061  12.134 -0.8311 -3.4365  1.8127
   6323SM  H21G 8177   2.461   0.108  11.966 -0.1438  1.3170  1.7886
   6323SM  C22F 8178   2.564  -0.068  11.953 -0.3215  0.1485 -0.0611
   6323SM  H22F 8179   2.501  -0.095  11.866  0.0219  1.1025 -0.6073
   6323SM  H22G 8180   2.582  -0.162  12.010 -1.0894 -0.2797 -0.5097
   6323SM  C23F 8181   2.700  -0.023  11.903  0.3889  0.2161 -0.6715
   6323SM  H23F 8182   2.779  -0.029  11.981  3.5800 -0.6308 -3.7161
   6323SM  H23G 8183   2.691   0.083  11.871  0.8985  0.7774  0.9045
   6323SM  H23H 8184   2.738  -0.100  11.833  0.5064 -0.2402 -0.1107
   6423SM     N 8185   3.607   5.518  14.647 -0.0637  0.6938 -0.0458
   6423SM   C15 8186   3.508   5.625  14.614 -0.2003  0.7894  0.0411
   6423SM  H15A 8187   3.481   5.682  14.702  2.2622  2.5944 -0.2575
   6423SM  H15B 8188   3.435   5.576  14.552 -0.0351 -1.0374  1.2184
   6423SM  H15C 8189   3.557   5.702  14.556 -0.1361  0.5089 -0.2833
   6423SM   C14 8190   3.669   5.453  14.525 -0.0301  0.5169 -0.7505
   6423SM  H14A 8191   3.749   5.388  14.559 -0.8711 -0.5809 -0.8010
   6423SM  H14B 8192   3.725   5.523  14.464  2.0803 -0.8516 -0.5094
   6423SM  H14C 8193   3.596   5.397  14.469 -1.0336  3.4452 -2.5730
   6423SM   C13 8194   3.715   5.582  14.732 -0.0615  0.5975  0.8305
   6423SM  H13A 8195   3.772   5.508  14.786  0.5921  0.1297 -0.4652
   6423SM  H13B 8196   3.674   5.636  14.817 -1.0016  1.4246 -0.1251
   6423SM  H13C 8197   3.789   5.637  14.675 -0.1976 -0.3134 -0.2504
   6423SM   C12 8198   3.527   5.416  14.733  0.2038  0.5233 -0.0331
   6423SM  H12A 8199   3.469   5.357  14.664  1.7197 -1.0151 -0.0617
   6423SM  H12B 8200   3.452   5.454  14.800 -0.8769 -1.7357  0.1522
   6423SM   C11 8201   3.617   5.311  14.808  0.0020 -0.0288  0.5384
   6423SM  H11A 8202   3.542   5.231  14.828 -0.9897  0.4864 -0.9451
   6423SM  H11B 8203   3.654   5.372  14.893 -0.6600  1.3868 -0.1520
   6423SM     P 8204   3.788   5.124  14.750  0.0818  0.1167  0.3757
   6423SM   O13 8205   3.919   5.118  14.680  0.4111 -0.9155 -0.3781
   6423SM   O14 8206   3.788   5.087  14.897 -0.0398 -0.4622  0.4124
   6423SM   O11 8207   3.689   5.033  14.674 -0.1145 -0.4132 -0.4640
   6423SM   O12 8208   3.734   5.272  14.730  0.2927 -0.1194  0.5913
   6423SM   C1S 8209   3.639   5.051  14.545 -0.4308 -0.3062  0.5518
   6423SM   H1S 8210   3.614   5.158  14.526 -2.0382 -0.4330  1.7523
   6423SM   H1T 8211   3.537   5.006  14.536 -0.8467  0.7771 -0.4615
   6423SM    NF 8212   3.668   5.017  14.304 -0.2514 -0.0505 -0.4550
   6423SM   HNF 8213   3.595   4.954  14.278 -0.0914 -1.2775  1.8339
   6423SM   C2S 8214   3.727   4.981  14.433 -0.5416  0.4605 -0.1500
   6423SM   H2S 8215   3.834   5.013  14.434  0.1796 -1.7773  0.1499
   6423SM   C3S 8216   3.737   4.833  14.459  0.0452  1.1061 -0.3898
   6423SM   H3S 8217   3.641   4.788  14.492  0.4405  0.5031 -0.0458
   6423SM    O3 8218   3.823   4.799  14.570  0.3415 -0.2602  0.0665
   6423SM   HO3 8219   3.820   4.877  14.626 -2.6742 -0.0771 -0.1462
   6423SM   C4S 8220   3.785   4.750  14.337  0.3366  0.1065 -0.4665
   6423SM   H4S 8221   3.707   4.727  14.263  0.4327 -0.1698 -0.4801
   6423SM   C5S 8222   3.908   4.715  14.303  0.7743  0.0396 -0.5243
   6423SM   H5S 8223   3.994   4.740  14.367  1.4035 -0.6013 -1.0915
   6423SM   C6S 8224   3.945   4.640  14.182  0.4861  1.1870 -0.5193
   6423SM   H6S 8225   3.906   4.537  14.174  0.4708  1.0963  0.5868
   6423SM   H6T 8226   4.053   4.616  14.190  0.0739 -0.4196  0.5902
   6423SM   C7S 8227   3.910   4.718  14.053 -0.0132 -0.1888 -0.5065
   6423SM   H7S 8228   3.938   4.825  14.069  1.4931 -0.4126 -1.4270
   6423SM   H7T 8229   3.801   4.702  14.042  0.3603 -2.6174 -1.1541
   6423SM   C8S 8230   3.980   4.667  13.926  0.0666 -0.0405  0.2955
   6423SM   H8S 8231   4.006   4.563  13.955 -0.7036 -0.2532  0.2445
   6423SM   H8T 8232   4.073   4.724  13.904 -0.4155  0.5261 -0.2958
   6423SM   C9S 8233   3.879   4.658  13.807  0.0706 -0.2207  0.4889
   6423SM   H9S 8234   3.855   4.762  13.775  0.8875 -0.4044 -0.7822
   6423SM   H9T 8235   3.787   4.605  13.840  1.1166 -0.6712  2.9000
   6423SM  C10S 8236   3.935   4.575  13.688  0.4921  0.2003 -0.1665
   6423SM  H10S 8237   3.854   4.568  13.612 -0.8153  0.1159  1.1834
   6423SM  H10T 8238   3.965   4.478  13.732 -2.1966  0.6256  2.9830
   6423SM  C11S 8239   4.052   4.649  13.622 -0.0202 -0.6499  0.4203
   6423SM  H11S 8240   4.141   4.656  13.688  0.6774 -0.7514 -0.4781
   6423SM  H11T 8241   4.020   4.752  13.595 -1.1969 -1.3290 -0.9238
   6423SM  C12S 8242   4.078   4.576  13.485  0.0157  0.4089  0.3496
   6423SM  H12S 8243   4.083   4.466  13.506 -1.6856  0.5988  2.0242
   6423SM  H12T 8244   4.168   4.612  13.432  0.9366  1.1811  2.3405
   6423SM  C13S 8245   3.971   4.605  13.380 -0.0826 -0.4246  0.1560
   6423SM  H13S 8246   3.958   4.714  13.361 -1.7630 -1.0595 -3.0730
   6423SM  H13T 8247   3.871   4.563  13.403  0.5502 -1.1140  1.7960
   6423SM  C14S 8248   4.007   4.553  13.243 -0.5726  0.2400  0.5194
   6423SM  H14S 8249   4.039   4.447  13.250 -0.6902 -0.4516 -4.9176
   6423SM  H14T 8250   4.093   4.602  13.193 -0.6032 -2.7072 -2.8350
   6423SM  C15S 8251   3.879   4.553  13.144 -0.5399 -0.5793 -0.1792
   6423SM  H15S 8252   3.841   4.657  13.140 -0.8240 -0.6633  0.2839
   6423SM  H15T 8253   3.795   4.488  13.175 -0.9418 -0.0799 -0.2211
   6423SM  C16S 8254   3.921   4.522  12.998  0.7536 -0.4666  0.0909
   6423SM  H16S 8255   3.943   4.413  12.985 -1.1045 -0.6918 -1.6804
   6423SM  H16T 8256   4.017   4.574  12.977  1.0932 -2.0789 -2.9662
   6423SM  C17S 8257   3.817   4.563  12.892  0.0099 -0.2328 -0.8904
   6423SM  H17S 8258   3.810   4.674  12.894  2.5256 -0.0043  1.0933
   6423SM  H17T 8259   3.718   4.515  12.908  0.4271 -0.3524  1.8272
   6423SM  C18S 8260   3.853   4.529  12.752 -0.1969 -0.2666 -0.4946
   6423SM  H18S 8261   3.960   4.553  12.732  0.1052 -0.2887  0.9905
   6423SM  H18T 8262   3.784   4.587  12.688 -1.6732 -0.7442  0.6080
   6423SM  H18U 8263   3.838   4.420  12.742 -2.5590 -0.0421  0.0439
   6423SM   C1F 8264   3.684   5.142  14.253 -0.6146 -0.4054 -1.2520
   6423SM    OF 8265   3.755   5.227  14.312 -0.1025  0.3798 -0.4504
   6423SM   C2F 8266   3.612   5.169  14.123  0.1063  0.2230  0.0916
   6423SM   H2F 8267   3.516   5.216  14.152  0.0750  0.0280  0.3154
   6423SM   H2G 8268   3.590   5.069  14.079 -1.8613  0.2674  0.8760
   6423SM   C3F 8269   3.693   5.264  14.028  0.1128  0.3583  0.1977
   6423SM   H3F 8270   3.783   5.205  14.001 -0.8816 -0.8982 -0.5469
   6423SM   H3G 8271   3.724   5.358  14.078 -1.0675  0.6365  0.4527
   6423SM   C4F 8272   3.626   5.309  13.893 -0.5725 -0.1444  0.4980
   6423SM   H4F 8273   3.549   5.387  13.913  1.5856  1.9559  1.1086
   6423SM   H4G 8274   3.577   5.221  13.846 -0.0557  0.3178 -0.9712
   6423SM   C5F 8275   3.719   5.374  13.792 -0.5330 -0.1563  0.8991
   6423SM   H5F 8276   3.763   5.464  13.840  0.6993 -0.3151  0.0988
   6423SM   H5G 8277   3.670   5.403  13.697  0.4029  0.0110  0.4592
   6423SM   C6F 8278   3.829   5.273  13.746  0.6384 -0.4116 -0.7508
   6423SM   H6F 8279   3.888   5.231  13.830  1.6586 -2.0029 -2.1842
   6423SM   H6G 8280   3.895   5.314  13.666  0.4425 -2.0635 -1.8110
   6423SM   C7F 8281   3.766   5.147  13.677 -0.1287 -0.0569 -0.2270
   6423SM   H7F 8282   3.678   5.180  13.619 -0.9631 -0.7762  0.6032
   6423SM   H7G 8283   3.732   5.080  13.759  1.2541  0.3783  0.7532
   6423SM   C8F 8284   3.868   5.062  13.598  0.6568  0.1565 -0.9278
   6423SM   H8F 8285   3.838   4.955  13.593  3.2956 -0.9636  2.5042
   6423SM   H8G 8286   3.960   5.049  13.660 -0.9166  0.9499  1.7488
   6423SM   C9F 8287   3.888   5.118  13.462  0.2274  0.3739  0.2452
   6423SM   H9F 8288   3.962   5.201  13.469  2.0061 -1.3061  3.3699
   6423SM   H9G 8289   3.792   5.146  13.414  0.1489 -0.5069 -0.1132
   6423SM  C10F 8290   3.932   5.011  13.358 -0.9057 -0.1882  0.1216
   6423SM  H10F 8291   3.853   4.935  13.334 -0.1389 -0.2551 -2.5830
   6423SM  H10G 8292   4.027   4.963  13.388  0.3030  1.5110 -0.8159
   6423SM  C11F 8293   3.971   5.087  13.238 -0.1118 -0.1214 -0.5451
   6423SM  H11F 8294   4.059   5.154  13.253 -0.7092  0.9806 -1.7705
   6423SM  H11G 8295   3.886   5.149  13.204 -0.4703 -0.9897 -1.2592
   6423SM  C12F 8296   4.010   4.992  13.123 -0.4677 -0.1833 -0.3666
   6423SM  H12F 8297   3.923   4.931  13.092 -1.3923  0.7991  0.2220
   6423SM  H12G 8298   4.092   4.925  13.156  0.3265  2.4803  3.7599
   6423SM  C13F 8299   4.055   5.075  13.001  0.0072  0.7156  0.0552
   6423SM  H13F 8300   4.161   5.103  13.020  1.0393 -2.0936 -1.0051
   6423SM  H13G 8301   3.993   5.165  12.981  0.6771  1.1564 -0.0789
   6423SM  C14F 8302   4.051   4.981  12.884 -0.4494  0.0135  0.1065
   6423SM  H14F 8303   3.945   4.965  12.855 -0.2876  0.4332 -0.7279
   6423SM  H14G 8304   4.088   4.886  12.930 -2.4195 -0.9109 -0.0885
   6423SM  C15F 8305   4.130   5.019  12.762 -0.8955 -0.2919  0.1122
   6423SM  H15F 8306   4.235   4.995  12.787 -0.5052 -0.9069 -1.9558
   6423SM  H15G 8307   4.114   5.129  12.755 -2.3228 -0.4379  0.5993
   6423SM  C16F 8308   4.095   4.950  12.626 -0.0844  0.1062 -0.5693
   6423SM  H16F 8309   4.106   4.840  12.639  1.2001  0.1334 -1.2179
   6423SM  H16G 8310   4.163   4.982  12.544 -0.8206 -0.5376 -1.4486
   6423SM  C17F 8311   3.946   4.965  12.576 -0.2775 -0.1016  0.1935
   6423SM  H17F 8312   3.924   5.073  12.576  0.1487 -0.0112 -0.0304
   6423SM  H17G 8313   3.883   4.913  12.652 -1.3134 -0.7202 -1.0478
   6423SM  C18F 8314   3.926   4.901  12.437  0.8980 -0.3304 -0.3286
   6423SM  H18F 8315   4.001   4.940  12.365 -1.6807 -0.8941 -3.5518
   6423SM  H18G 8316   3.830   4.929  12.390  0.6807 -0.8001 -0.1741
   6423SM  C19F 8317   3.947   4.749  12.431  0.0988 -0.0972  0.0386
   6423SM  H19F 8318   3.868   4.690  12.481  1.5184 -1.2023  1.0691
   6423SM  H19G 8319   4.044   4.709  12.468 -0.6965  1.2127  3.9809
   6423SM  C20F 8320   3.941   4.706  12.280  0.2972 -0.3046  0.3152
   6423SM  H20F 8321   3.986   4.773  12.205 -1.3248 -0.9577 -1.3163
   6423SM  H20G 8322   3.837   4.684  12.247  0.2370  1.5647 -0.8652
   6423SM  C21F 8323   4.020   4.575  12.255 -0.3032  0.6064  0.7132
   6423SM  H21F 8324   3.960   4.495  12.305  1.4737 -0.5873  1.0028
   6423SM  H21G 8325   4.118   4.584  12.305  0.8766  0.6017 -1.4782
   6423SM  C22F 8326   4.029   4.538  12.103 -0.9230  0.3644  0.3645
   6423SM  H22F 8327   4.072   4.633  12.065  4.0464 -0.5759  2.7778
   6423SM  H22G 8328   3.927   4.510  12.067  0.0541 -2.4545 -0.4811
   6423SM  C23F 8329   4.130   4.422  12.062  0.3592 -0.4083 -1.4029
   6423SM  H23F 8330   4.236   4.440  12.087 -0.4269 -0.9941  3.1503
   6423SM  H23G 8331   4.125   4.404  11.952  0.7706 -0.6330 -1.3869
   6423SM  H23H 8332   4.089   4.325  12.097  0.2091 -0.7086 -2.3702
   6523SM     N 8333   3.203   0.048  14.807  0.5285  0.0054  0.4180
   6523SM   C15 8334   3.345   0.063  14.853  0.5949  0.0688 -0.8481
   6523SM  H15A 8335   3.396  -0.032  14.860  0.3364  0.0311  0.9874
   6523SM  H15B 8336   3.337   0.109  14.950  2.0451  0.0086 -0.6806
   6523SM  H15C 8337   3.415   0.127  14.802 -0.2645  0.4694 -1.5538
   6523SM   C14 8338   3.143   0.185  14.805 -0.0909  0.1436  0.2447
   6523SM  H14A 8339   3.197   0.234  14.726  1.4600 -2.4697 -0.4223
   6523SM  H14B 8340   3.167   0.233  14.899 -0.6096 -2.9219  2.1022
   6523SM  H14C 8341   3.039   0.197  14.780  0.4956  1.0379 -1.9555
   6523SM   C13 8342   3.202   0.006  14.661 -0.5156 -0.3071  0.3801
   6523SM  H13A 8343   3.266   0.059  14.592  1.4996 -4.2223 -1.0675
   6523SM  H13B 8344   3.099   0.008  14.630 -1.8922  1.3133  4.4451
   6523SM  H13C 8345   3.235  -0.096  14.648  0.7396  0.3862 -3.2473
   6523SM   C12 8346   3.130  -0.046  14.902  0.0224 -1.0414  0.2880
   6523SM  H12A 8347   3.029  -0.052  14.863 -0.9860  2.0388  2.0784
   6523SM  H12B 8348   3.115   0.009  14.994  0.3312 -3.8626  2.1892
   6523SM   C11 8349   3.189  -0.187  14.935 -0.2230 -0.2091 -0.2809
   6523SM  H11A 8350   3.118  -0.258  14.982  1.1265 -1.0749  0.5069
   6523SM  H11B 8351   3.261  -0.167  15.017 -2.2792 -0.3624  1.6562
   6523SM     P 8352   3.380  -0.329  14.825 -0.2749 -0.4451 -0.0455
   6523SM   O13 8353   3.483  -0.257  14.900 -0.5070 -0.6525  0.0525
   6523SM   O14 8354   3.344  -0.467  14.877  0.1706  0.3827  0.0792
   6523SM   O11 8355   3.430  -0.328  14.677 -0.0683 -0.5946  0.4116
   6523SM   O12 8356   3.245  -0.247  14.813 -0.3101 -0.2259  0.1503
   6523SM   C1S 8357   3.430  -0.444  14.595  0.4507  0.2198 -0.4488
   6523SM   H1S 8358   3.332  -0.498  14.600  1.6879 -2.1067  0.0288
   6523SM   H1T 8359   3.502  -0.521  14.629 -0.0994  0.6713  1.9097
   6523SM    NF 8360   3.404  -0.517  14.352  0.0166  0.1346 -0.0500
   6523SM   HNF 8361   3.476  -0.586  14.345 -2.1053 -2.1600 -0.7088
   6523SM   C2S 8362   3.444  -0.408  14.440 -0.1127  0.1168  0.0639
   6523SM   H2S 8363   3.372  -0.325  14.422  0.1232  0.6175  1.3417
   6523SM   C3S 8364   3.587  -0.344  14.406  0.6114 -0.3711 -0.5207
   6523SM   H3S 8365   3.661  -0.427  14.409 -1.2054 -2.0143  0.6010
   6523SM    O3 8366   3.629  -0.243  14.498  0.1913  0.6409 -0.0627
   6523SM   HO3 8367   3.560  -0.243  14.564  0.3741 -0.3827  0.1406
   6523SM   C4S 8368   3.591  -0.285  14.269 -0.2712 -0.1012  0.2153
   6523SM   H4S 8369   3.625  -0.363  14.198 -2.4925  0.2338 -1.3243
   6523SM   C5S 8370   3.563  -0.159  14.234  0.4708 -0.1835 -0.6724
   6523SM   H5S 8371   3.522  -0.086  14.305  0.3867 -1.9923  1.2688
   6523SM   C6S 8372   3.555  -0.113  14.094  0.5216 -0.4545  0.2746
   6523SM   H6S 8373   3.628  -0.032  14.068  2.7097 -2.0599  1.1262
   6523SM   H6T 8374   3.455  -0.067  14.082  0.2359 -0.8153  1.2264
   6523SM   C7S 8375   3.561  -0.216  13.983 -0.0876  0.5140 -0.3048
   6523SM   H7S 8376   3.497  -0.305  13.998 -0.5002  0.3133 -2.7580
   6523SM   H7T 8377   3.668  -0.247  13.977 -0.5332 -1.1264 -0.1002
   6523SM   C8S 8378   3.527  -0.153  13.854 -0.2274 -0.0182  0.2223
   6523SM   H8S 8379   3.604  -0.074  13.841 -1.0507  0.7776  0.1400
   6523SM   H8T 8380   3.428  -0.103  13.861 -0.0784  1.0553 -3.3403
   6523SM   C9S 8381   3.530  -0.245  13.731  0.0208 -0.4704  0.7175
   6523SM   H9S 8382   3.472  -0.339  13.743  1.0501 -1.2239 -0.0063
   6523SM   H9T 8383   3.636  -0.276  13.722  0.0562  0.0008 -0.9953
   6523SM  C10S 8384   3.488  -0.176  13.600 -0.4502 -0.2466 -0.1355
   6523SM  H10S 8385   3.566  -0.102  13.572 -0.0602 -1.0246 -1.1851
   6523SM  H10T 8386   3.391  -0.126  13.621 -0.3317  0.3168 -0.8739
   6523SM  C11S 8387   3.462  -0.274  13.489 -0.2007 -0.0569 -0.0507
   6523SM  H11S 8388   3.392  -0.356  13.514  1.7995 -1.7145  0.3619
   6523SM  H11T 8389   3.554  -0.328  13.459 -0.1192 -1.8583  3.0113
   6523SM  C12S 8390   3.416  -0.188  13.365  0.5292  0.0527 -0.3784
   6523SM  H12S 8391   3.496  -0.115  13.343 -1.9318  2.6609 -1.3007
   6523SM  H12T 8392   3.328  -0.129  13.396  1.3286  1.0593  0.0266
   6523SM  C13S 8393   3.417  -0.264  13.235  0.4267  1.0179 -1.4003
   6523SM  H13S 8394   3.330  -0.334  13.240  1.7127 -0.5818 -0.1029
   6523SM  H13T 8395   3.511  -0.323  13.230  0.0873 -0.2749  3.0914
   6523SM  C14S 8396   3.404  -0.165  13.122 -0.3963  1.0569  0.1452
   6523SM  H14S 8397   3.475  -0.079  13.118 -0.8400  1.4673  0.9265
   6523SM  H14T 8398   3.306  -0.120  13.147 -1.3059 -0.0098 -1.3255
   6523SM  C15S 8399   3.392  -0.233  12.983  0.1493 -0.1838 -0.0045
   6523SM  H15S 8400   3.349  -0.164  12.907 -0.3381 -2.0289 -1.4893
   6523SM  H15T 8401   3.326  -0.323  12.986  1.4575 -1.2116 -1.1175
   6523SM  C16S 8402   3.533  -0.280  12.927 -0.0590 -0.7930 -0.5630
   6523SM  H16S 8403   3.596  -0.303  13.016  0.9937  3.3358 -0.0248
   6523SM  H16T 8404   3.593  -0.199  12.879 -1.4526  0.5044 -0.2169
   6523SM  C17S 8405   3.508  -0.397  12.823  0.0616 -0.4259 -0.1455
   6523SM  H17S 8406   3.426  -0.359  12.759 -0.1494  1.4128  1.1434
   6523SM  H17T 8407   3.476  -0.481  12.889 -0.7180  2.4121  3.3830
   6523SM  C18S 8408   3.637  -0.432  12.745 -0.3098 -0.3197 -0.5231
   6523SM  H18S 8409   3.609  -0.504  12.665  1.8883 -0.7728 -0.9544
   6523SM  H18T 8410   3.716  -0.476  12.808  0.1740  0.8276 -0.3120
   6523SM  H18U 8411   3.676  -0.338  12.700 -0.1390 -0.2161 -0.1615
   6523SM   C1F 8412   3.277  -0.529  14.302 -0.5587  0.4332  0.1145
   6523SM    OF 8413   3.198  -0.436  14.330 -0.3325  0.2663  0.5295
   6523SM   C2F 8414   3.238  -0.655  14.222 -0.3428 -0.1583 -0.0371
   6523SM   H2F 8415   3.148  -0.693  14.275 -1.1446 -0.0134 -1.2441
   6523SM   H2G 8416   3.319  -0.731  14.226 -0.5299 -0.5330 -2.1416
   6523SM   C3F 8417   3.203  -0.619  14.076  0.3003 -0.1315  1.0977
   6523SM   H3F 8418   3.124  -0.542  14.060 -1.0507 -1.7699 -0.6523
   6523SM   H3G 8419   3.157  -0.711  14.033  0.9304 -1.4256  3.0609
   6523SM   C4F 8420   3.327  -0.568  14.004 -0.7684  0.0259 -0.1155
   6523SM   H4F 8421   3.408  -0.644  14.017  1.4372  2.3190  0.2422
   6523SM   H4G 8422   3.361  -0.468  14.036 -3.4448  0.3462  2.0932
   6523SM   C5F 8423   3.301  -0.552  13.854 -0.0274 -0.3625 -0.0963
   6523SM   H5F 8424   3.391  -0.504  13.809 -2.2508  3.5453 -0.8048
   6523SM   H5G 8425   3.230  -0.469  13.834  2.2649  1.4451 -1.3079
   6523SM   C6F 8426   3.239  -0.679  13.788  0.6777 -0.2775  0.3145
   6523SM   H6F 8427   3.136  -0.668  13.827 -0.0077  0.1198 -1.5439
   6523SM   H6G 8428   3.293  -0.762  13.840  1.0186  0.3991  1.0659
   6523SM   C7F 8429   3.250  -0.692  13.632  0.2056 -0.1371 -0.1835
   6523SM   H7F 8430   3.214  -0.791  13.596  0.4513  0.3462 -1.8051
   6523SM   H7G 8431   3.357  -0.703  13.604  0.1129  0.9337 -1.0169
   6523SM   C8F 8432   3.168  -0.581  13.567  0.4102 -0.3228  0.2036
   6523SM   H8F 8433   3.216  -0.483  13.584  2.6224 -1.3015  0.0126
   6523SM   H8G 8434   3.081  -0.575  13.635  0.7387  0.2876  0.5771
   6523SM   C9F 8435   3.131  -0.595  13.420 -0.1532  0.8317 -0.7750
   6523SM   H9F 8436   3.076  -0.507  13.381  0.4014  1.1598 -0.8253
   6523SM   H9G 8437   3.065  -0.685  13.418 -0.0577  0.7777 -2.1894
   6523SM  C10F 8438   3.247  -0.623  13.329  0.2916 -0.1241 -0.0630
   6523SM  H10F 8439   3.293  -0.719  13.360  1.3910 -0.2585 -1.9290
   6523SM  H10G 8440   3.333  -0.553  13.317 -0.0466 -0.0723 -2.9476
   6523SM  C11F 8441   3.197  -0.619  13.190  0.5065 -0.4899  0.2086
   6523SM  H11F 8442   3.198  -0.512  13.158 -0.4879 -0.2630  0.8835
   6523SM  H11G 8443   3.090  -0.650  13.191  0.4740 -0.4396  1.8686
   6523SM  C12F 8444   3.269  -0.719  13.104 -0.5168 -0.2490  0.1095
   6523SM  H12F 8445   3.285  -0.812  13.163  1.3248  0.3331  0.5824
   6523SM  H12G 8446   3.363  -0.671  13.068 -1.6787  1.5258 -0.7317
   6523SM  C13F 8447   3.195  -0.755  12.977 -0.7492  0.6050  0.4338
   6523SM  H13F 8448   3.089  -0.782  12.997 -1.3711  2.9897  0.5964
   6523SM  H13G 8449   3.244  -0.845  12.935 -1.0159  0.6441  0.0306
   6523SM  C14F 8450   3.206  -0.654  12.868  0.0759  0.5284  0.1046
   6523SM  H14F 8451   3.311  -0.619  12.873  0.2814 -0.2851  2.3126
   6523SM  H14G 8452   3.127  -0.577  12.879  0.7420  1.0804  1.1432
   6523SM  C15F 8453   3.211  -0.723  12.728  0.7636 -0.8349 -0.4502
   6523SM  H15F 8454   3.114  -0.770  12.701  0.9130 -0.8581 -0.9804
   6523SM  H15G 8455   3.286  -0.805  12.735  1.0220 -0.7309 -1.6290
   6523SM  C16F 8456   3.243  -0.637  12.609 -0.0620 -0.0042  0.6140
   6523SM  H16F 8457   3.315  -0.557  12.637  1.0250 -0.7666  0.0545
   6523SM  H16G 8458   3.147  -0.593  12.576 -1.0104 -1.6241  1.1365
   6523SM  C17F 8459   3.287  -0.716  12.488  0.0169  0.9142 -0.0134
   6523SM  H17F 8460   3.202  -0.766  12.437  1.8034 -0.2742 -2.0307
   6523SM  H17G 8461   3.351  -0.798  12.526  0.2718  1.1473  0.0704
   6523SM  C18F 8462   3.367  -0.635  12.381  0.1852  0.3426  0.0224
   6523SM  H18F 8463   3.456  -0.591  12.431  0.7345 -0.7887  0.0646
   6523SM  H18G 8464   3.304  -0.551  12.346 -1.5915 -1.0898 -0.3589
   6523SM  C19F 8465   3.403  -0.718  12.257 -0.2716  0.3332 -0.0629
   6523SM  H19F 8466   3.411  -0.652  12.168  1.5695 -0.8340 -0.8169
   6523SM  H19G 8467   3.335  -0.805  12.242 -1.0656  1.1450 -1.4946
   6523SM  C20F 8468   3.545  -0.781  12.269 -0.2723  0.5336  0.3898
   6523SM  H20F 8469   3.545  -0.876  12.210 -0.4657  1.3246 -0.9328
   6523SM  H20G 8470   3.551  -0.806  12.377 -0.8579 -1.5611 -0.0063
   6523SM  C21F 8471   3.665  -0.688  12.217 -0.1835  0.0441  0.2987
   6523SM  H21F 8472   3.641  -0.596  12.274 -0.8137 -0.1256  0.3099
   6523SM  H21G 8473   3.657  -0.655  12.111 -1.6414  0.0902  0.4037
   6523SM  C22F 8474   3.799  -0.747  12.245 -0.2472 -0.0809 -0.3127
   6523SM  H22F 8475   3.787  -0.773  12.352 -0.2492  1.1450 -0.0023
   6523SM  H22G 8476   3.872  -0.663  12.250 -0.4081 -0.0240  1.8673
   6523SM  C23F 8477   3.829  -0.861  12.153 -0.7177  0.0104  0.0165
   6523SM  H23F 8478   3.818  -0.837  12.046 -0.4615  1.1735  0.2392
   6523SM  H23G 8479   3.761  -0.946  12.175 -0.6171  0.4666  2.3961
   6523SM  H23H 8480   3.932  -0.898  12.174 -0.7889 -0.3578 -0.2762
   6623SM     N 8481   1.945   4.136  15.266 -1.3714 -0.0404  0.2305
   6623SM   C15 8482   2.070   4.153  15.349 -0.0254  0.1797  0.0748
   6623SM  H15A 8483   2.156   4.105  15.304  1.9078  1.8596  1.7563
   6623SM  H15B 8484   2.059   4.109  15.447 -0.1811 -0.5678 -0.2668
   6623SM  H15C 8485   2.096   4.257  15.361  0.4547 -0.1191  1.9469
   6623SM   C14 8486   1.840   4.235  15.310 -0.3713 -0.6955  1.0446
   6623SM  H14A 8487   1.839   4.250  15.417  1.1964  1.8859  0.7936
   6623SM  H14B 8488   1.742   4.221  15.269 -1.2228  0.8655  2.4274
   6623SM  H14C 8489   1.878   4.330  15.277  3.2182 -2.7476 -1.4887
   6623SM   C13 8490   1.978   4.166  15.119 -0.2491 -0.2750  0.8860
   6623SM  H13A 8491   2.018   4.082  15.065 -0.0946  0.3735 -0.0208
   6623SM  H13B 8492   2.049   4.246  15.106  0.9839 -1.4928 -0.2040
   6623SM  H13C 8493   1.892   4.195  15.062 -1.3720  0.9570  3.0807
   6623SM   C12 8494   1.892   4.000  15.268  0.3816 -0.0056  0.3527
   6623SM  H12A 8495   1.808   3.988  15.200 -0.9454  0.8860  1.7746
   6623SM  H12B 8496   1.842   3.985  15.362 -1.7684  0.7335 -0.5974
   6623SM   C11 8497   1.989   3.881  15.260 -0.1023 -0.9015  0.9638
   6623SM  H11A 8498   1.937   3.786  15.286 -1.4034 -0.4574  0.1139
   6623SM  H11B 8499   2.069   3.881  15.336  0.5845 -1.0736  0.2559
   6623SM     P 8500   2.048   3.744  15.040 -0.3901 -0.0111 -0.3211
   6623SM   O13 8501   2.134   3.640  15.109  0.3525 -0.3193 -0.1250
   6623SM   O14 8502   1.908   3.720  15.009 -0.0484 -0.0462  0.1734
   6623SM   O11 8503   2.116   3.792  14.909 -0.0388 -0.0831  0.4301
   6623SM   O12 8504   2.052   3.876  15.126 -0.3502 -0.1273 -0.6316
   6623SM   C1S 8505   2.056   3.768  14.781  1.5957 -0.6495  0.4081
   6623SM   H1S 8506   1.961   3.825  14.770  1.6771 -0.7478 -1.0157
   6623SM   H1T 8507   2.026   3.662  14.763 -2.6698  0.4700 -0.2662
   6623SM    NF 8508   2.082   3.814  14.541 -0.1463 -0.2508  0.6417
   6623SM   HNF 8509   2.101   3.745  14.471 -1.8650 -0.3243  0.1976
   6623SM   C2S 8510   2.146   3.806  14.668  0.3820 -0.7471  0.3307
   6623SM   H2S 8511   2.178   3.912  14.683 -1.3641  0.0104 -0.9836
   6623SM   C3S 8512   2.273   3.718  14.658 -0.1362  0.7536 -0.0343
   6623SM   H3S 8513   2.231   3.621  14.621  0.9339  0.5956 -0.8917
   6623SM    O3 8514   2.339   3.690  14.783 -0.3312  0.1000 -0.3051
   6623SM   HO3 8515   2.277   3.718  14.851 -1.0349 -2.1428  0.0463
   6623SM   C4S 8516   2.380   3.755  14.553  0.5270 -0.1841 -0.0181
   6623SM   H4S 8517   2.346   3.720  14.454  0.4728  1.4964 -0.6330
   6623SM   C5S 8518   2.495   3.827  14.565 -0.3427 -0.3414 -0.0665
   6623SM   H5S 8519   2.537   3.851  14.664 -1.4835 -0.5425  0.4865
   6623SM   C6S 8520   2.591   3.856  14.447  0.1321  0.2070 -0.4897
   6623SM   H6S 8521   2.687   3.808  14.477 -0.7750 -0.1037  2.2575
   6623SM   H6T 8522   2.612   3.965  14.441  1.5316  0.0120  0.2189
   6623SM   C7S 8523   2.548   3.806  14.307 -0.8665 -0.3330 -0.0506
   6623SM   H7S 8524   2.504   3.705  14.320  0.9168 -0.9447  1.7720
   6623SM   H7T 8525   2.640   3.794  14.246 -0.6114  0.5173  0.1476
   6623SM   C8S 8526   2.444   3.900  14.246  0.5635  0.6228 -0.4887
   6623SM   H8S 8527   2.468   4.007  14.262  2.3105  0.5447 -2.1789
   6623SM   H8T 8528   2.342   3.888  14.290  0.8694 -0.4285 -0.0233
   6623SM   C9S 8529   2.429   3.873  14.095  0.3402 -0.6528 -0.2240
   6623SM   H9S 8530   2.386   3.771  14.086  0.0023 -0.4956 -0.4221
   6623SM   H9T 8531   2.531   3.875  14.050 -0.1368 -0.3155 -1.3251
   6623SM  C10S 8532   2.335   3.970  14.029  0.4543  0.4987  0.7846
   6623SM  H10S 8533   2.388   4.068  14.024  1.5708 -0.1459 -0.8282
   6623SM  H10T 8534   2.242   3.976  14.089  0.4832  0.3506  0.8444
   6623SM  C11S 8535   2.289   3.923  13.884  0.5168  0.5451 -0.6137
   6623SM  H11S 8536   2.192   3.971  13.856  0.6405  1.1469 -0.0386
   6623SM  H11T 8537   2.272   3.813  13.890  1.7156  0.3251 -0.9684
   6623SM  C12S 8538   2.390   3.944  13.772 -0.1514  0.0857  0.5372
   6623SM  H12S 8539   2.475   3.873  13.784  1.3159  0.9888 -3.0819
   6623SM  H12T 8540   2.439   4.043  13.787  0.2819 -0.2602  1.5092
   6623SM  C13S 8541   2.326   3.953  13.638 -1.1768 -0.0888 -0.1678
   6623SM  H13S 8542   2.244   4.029  13.644 -0.0541  1.3105 -1.7669
   6623SM  H13T 8543   2.290   3.851  13.614  0.3853 -0.1959 -2.3572
   6623SM  C14S 8544   2.425   4.003  13.527  0.0642  0.3673 -0.2273
   6623SM  H14S 8545   2.508   3.929  13.523 -0.2488 -0.0928  1.3903
   6623SM  H14T 8546   2.465   4.095  13.574  0.7505  0.2912 -0.6442
   6623SM  C15S 8547   2.370   4.028  13.386  0.8147 -0.4015  0.0024
   6623SM  H15S 8548   2.328   4.131  13.386  1.2436 -0.2193 -1.0960
   6623SM  H15T 8549   2.298   3.946  13.364  0.0099 -0.0880  1.3141
   6623SM  C16S 8550   2.478   4.011  13.283  0.0501  0.2933  0.2976
   6623SM  H16S 8551   2.440   4.026  13.180 -0.4095  0.6830  0.5205
   6623SM  H16T 8552   2.517   3.907  13.286 -0.5515  0.0875  1.1487
   6623SM  C17S 8553   2.596   4.099  13.313 -0.5944 -0.1311 -0.3821
   6623SM  H17S 8554   2.638   4.078  13.414 -2.2926 -3.0692 -0.1657
   6623SM  H17T 8555   2.575   4.208  13.309 -1.1858 -0.1926  0.7370
   6623SM  C18S 8556   2.711   4.079  13.212 -0.2739  0.0320 -0.4380
   6623SM  H18S 8557   2.742   3.972  13.212  1.2919  0.3648  3.2303
   6623SM  H18T 8558   2.798   4.143  13.237  0.9793 -1.8644  0.2589
   6623SM  H18U 8559   2.679   4.101  13.107  2.4460 -3.5313 -2.2571
   6623SM   C1F 8560   1.994   3.905  14.500 -0.6364 -0.3198 -0.0250
   6623SM    OF 8561   1.964   3.998  14.577 -0.0150  0.7992 -0.2655
   6623SM   C2F 8562   1.930   3.888  14.362  0.0854 -0.0785  0.0448
   6623SM   H2F 8563   1.875   3.792  14.352  1.5997 -1.2981  2.4755
   6623SM   H2G 8564   2.018   3.896  14.294 -0.4210 -0.3833 -0.6621
   6623SM   C3F 8565   1.842   4.016  14.338 -0.1229  0.3860  0.1320
   6623SM   H3F 8566   1.900   4.111  14.343  2.5406 -1.1144 -0.5156
   6623SM   H3G 8567   1.756   4.022  14.409 -2.2847 -2.0893 -2.0754
   6623SM   C4F 8568   1.776   4.021  14.197 -1.1816 -0.5036  0.3021
   6623SM   H4F 8569   1.727   3.923  14.179  0.6979 -1.0819 -2.2498
   6623SM   H4G 8570   1.848   4.029  14.113 -2.8707 -0.1135 -1.1759
   6623SM   C5F 8571   1.676   4.140  14.181  0.0922  1.2399 -0.2812
   6623SM   H5F 8572   1.728   4.236  14.164  0.5981  0.8388 -1.0392
   6623SM   H5G 8573   1.626   4.139  14.281  1.0064 -0.0867  0.1802
   6623SM   C6F 8574   1.584   4.124  14.057  0.1809  0.5574 -0.3333
   6623SM   H6F 8575   1.495   4.190  14.067 -0.4741  0.1811 -2.9693
   6623SM   H6G 8576   1.549   4.018  14.063  0.6817  0.4640  1.6107
   6623SM   C7F 8577   1.660   4.154  13.925 -0.5900  0.7277 -0.3938
   6623SM   H7F 8578   1.766   4.121  13.934 -0.3668  1.9086  2.0826
   6623SM   H7G 8579   1.664   4.265  13.922 -0.4198  0.7668  0.8948
   6623SM   C8F 8580   1.597   4.091  13.803  0.8770  0.0756  1.6148
   6623SM   H8F 8581   1.487   4.107  13.800  0.4979 -2.1274  2.0434
   6623SM   H8G 8582   1.619   3.982  13.809 -4.4359 -1.4446 -0.6730
   6623SM   C9F 8583   1.662   4.141  13.680 -0.4674 -0.2872 -0.1271
   6623SM   H9F 8584   1.768   4.108  13.672 -0.3638  0.1251 -0.5684
   6623SM   H9G 8585   1.665   4.253  13.681  1.4997 -0.2884 -1.3456
   6623SM  C10F 8586   1.598   4.099  13.547  0.4986 -0.3245  0.1396
   6623SM  H10F 8587   1.570   3.991  13.543 -0.1097 -0.1400 -0.6643
   6623SM  H10G 8588   1.678   4.111  13.471  1.2799 -1.7700  0.6747
   6623SM  C11F 8589   1.475   4.193  13.518 -0.1263 -0.2239  0.0016
   6623SM  H11F 8590   1.498   4.301  13.532 -0.2618 -0.1630 -0.2322
   6623SM  H11G 8591   1.397   4.160  13.590 -0.9726  0.4652 -0.5649
   6623SM  C12F 8592   1.431   4.184  13.372  0.2012 -0.0904 -0.2272
   6623SM  H12F 8593   1.321   4.193  13.359  0.2232 -1.2627 -1.5641
   6623SM  H12G 8594   1.468   4.087  13.332  1.0012 -1.0557  2.6613
   6623SM  C13F 8595   1.473   4.296  13.279 -0.7017  0.0107  0.0863
   6623SM  H13F 8596   1.470   4.389  13.341  3.3372  0.8969 -0.7497
   6623SM  H13G 8597   1.399   4.304  13.197 -1.0300  0.6295  0.4296
   6623SM  C14F 8598   1.612   4.292  13.213 -0.0143 -0.3188 -0.1835
   6623SM  H14F 8599   1.627   4.188  13.176 -0.3574 -1.4359  2.5913
   6623SM  H14G 8600   1.686   4.318  13.291 -0.1080  1.9842 -0.7853
   6623SM  C15F 8601   1.627   4.378  13.082  0.2130 -1.1978  0.0911
   6623SM  H15F 8602   1.609   4.485  13.105 -2.1464 -1.5642  0.2493
   6623SM  H15G 8603   1.554   4.347  13.004 -0.1605 -0.4023  0.1071
   6623SM  C16F 8604   1.775   4.370  13.028 -0.5185 -0.1246 -0.4797
   6623SM  H16F 8605   1.792   4.265  12.997  0.1808  0.2312 -1.3616
   6623SM  H16G 8606   1.850   4.401  13.104  0.7592 -0.0823 -1.7050
   6623SM  C17F 8607   1.798   4.434  12.893 -0.1430  0.3410 -0.0916
   6623SM  H17F 8608   1.758   4.538  12.895 -0.4978  0.2545 -1.7148
   6623SM  H17G 8609   1.742   4.374  12.818 -1.6829  0.6449  0.7692
   6623SM  C18F 8610   1.945   4.450  12.855 -0.4510 -0.5677 -0.8174
   6623SM  H18F 8611   1.990   4.349  12.865  0.1130 -0.1464  1.2401
   6623SM  H18G 8612   2.000   4.530  12.909 -1.8894  0.2183 -0.4741
   6623SM  C19F 8613   1.954   4.496  12.704  0.2807 -0.4714 -0.0355
   6623SM  H19F 8614   1.952   4.604  12.681  0.5222 -0.9182 -2.4979
   6623SM  H19G 8615   1.862   4.458  12.654 -0.2820  1.1381 -0.2548
   6623SM  C20F 8616   2.076   4.443  12.645 -0.0214  0.6005  0.0132
   6623SM  H20F 8617   2.094   4.334  12.658  0.7949  0.2471 -3.1571
   6623SM  H20G 8618   2.162   4.491  12.696  0.5698 -1.3139  0.9226
   6623SM  C21F 8619   2.114   4.465  12.497  0.3799 -0.4830  0.4120
   6623SM  H21F 8620   2.122   4.575  12.486  1.9665 -0.0515  4.2364
   6623SM  H21G 8621   2.031   4.431  12.431  0.4969 -0.4763  0.2604
   6623SM  C22F 8622   2.250   4.404  12.456 -0.4647 -0.3951 -0.1890
   6623SM  H22F 8623   2.243   4.296  12.481 -0.8754 -0.4019 -0.3143
   6623SM  H22G 8624   2.333   4.445  12.516 -0.4304  1.2858 -1.3158
   6623SM  C23F 8625   2.277   4.426  12.310  0.3728 -0.1168  0.6104
   6623SM  H23F 8626   2.186   4.391  12.257  0.1009 -0.9293  1.5975
   6623SM  H23G 8627   2.364   4.371  12.269  0.6576  1.4824 -1.1204
   6623SM  H23H 8628   2.296   4.533  12.285 -1.1197  0.4282  1.6514
   6723SM     N 8629   0.676   1.638  14.597 -0.2909 -0.3313  0.3762
   6723SM   C15 8630   0.560   1.607  14.508 -0.4253  0.8776 -0.0593
   6723SM  H15A 8631   0.590   1.536  14.433 -1.3325 -0.2749  0.6430
   6723SM  H15B 8632   0.537   1.701  14.459  0.9124  1.1750 -0.1690
   6723SM  H15C 8633   0.476   1.577  14.569 -0.3598 -0.2146 -0.4950
   6723SM   C14 8634   0.797   1.689  14.511  0.9240  0.1250  0.4877
   6723SM  H14A 8635   0.841   1.608  14.454  2.0968  1.4137 -0.5383
   6723SM  H14B 8636   0.884   1.720  14.568  0.5381  0.5324  0.8550
   6723SM  H14C 8637   0.772   1.780  14.458  3.2186  0.2539 -0.5165
   6723SM   C13 8638   0.637   1.745  14.692 -0.3677  0.0390 -0.0949
   6723SM  H13A 8639   0.722   1.772  14.753 -2.6170 -0.0066  3.3395
   6723SM  H13B 8640   0.561   1.709  14.760  0.1944 -1.7373 -0.3549
   6723SM  H13C 8641   0.603   1.833  14.641 -1.3516  0.8577  1.8771
   6723SM   C12 8642   0.715   1.515  14.682 -0.4061 -0.1041  0.3607
   6723SM  H12A 8643   0.631   1.504  14.749 -1.5785  0.9081 -0.8574
   6723SM  H12B 8644   0.803   1.535  14.740  0.0227 -0.1540 -0.2635
   6723SM   C11 8645   0.750   1.377  14.608  0.6741  0.0785 -0.1612
   6723SM  H11A 8646   0.676   1.373  14.525  1.3946 -2.2617 -0.7510
   6723SM  H11B 8647   0.744   1.288  14.673  3.2081  1.5849  2.3679
   6723SM     P 8648   1.016   1.366  14.607  0.2823  0.0880  0.1814
   6723SM   O13 8649   1.046   1.485  14.688  0.1636  0.8870 -0.3589
   6723SM   O14 8650   1.018   1.238  14.679  0.7639 -0.6473  0.0135
   6723SM   O11 8651   1.115   1.358  14.485  0.5050 -0.0313  0.2277
   6723SM   O12 8652   0.875   1.387  14.534  0.5045 -0.4723  0.2670
   6723SM   C1S 8653   1.073   1.332  14.355 -0.4119 -0.3854 -0.9640
   6723SM   H1S 8654   0.996   1.406  14.325 -0.4216  0.8583  1.8400
   6723SM   H1T 8655   1.035   1.230  14.334 -0.8299 -0.6721  1.0097
   6723SM    NF 8656   1.126   1.327  14.114 -0.0357 -0.1982 -0.6509
   6723SM   HNF 8657   1.136   1.237  14.073 -4.0066 -1.6212  0.9661
   6723SM   C2S 8658   1.183   1.356  14.243 -0.2894  0.2728  0.4283
   6723SM   H2S 8659   1.208   1.461  14.268  0.4078  0.4002 -0.7892
   6723SM   C3S 8660   1.307   1.272  14.281  0.3295 -0.8099 -0.0761
   6723SM   H3S 8661   1.274   1.168  14.299  0.0704 -0.8500 -0.7535
   6723SM    O3 8662   1.378   1.307  14.403  0.5373  0.0668  0.7213
   6723SM   HO3 8663   1.311   1.319  14.471 -0.1432 -1.5205  0.3828
   6723SM   C4S 8664   1.402   1.288  14.165 -0.4881  0.4433  0.2397
   6723SM   H4S 8665   1.398   1.206  14.092  1.1057  1.2502 -0.8099
   6723SM   C5S 8666   1.492   1.386  14.135  0.5896 -0.2019  0.6086
   6723SM   H5S 8667   1.500   1.477  14.197  1.9088 -0.0050  0.1850
   6723SM   C6S 8668   1.566   1.392  14.004  0.4023  0.0022 -0.7012
   6723SM   H6S 8669   1.670   1.364  14.032 -0.6701 -3.1012  0.6857
   6723SM   H6T 8670   1.557   1.497  13.969 -1.8246  0.5032  1.1115
   6723SM   C7S 8671   1.521   1.311  13.879 -0.6005  0.3486  0.4523
   6723SM   H7S 8672   1.416   1.334  13.852 -0.0363 -0.7880 -3.4057
   6723SM   H7T 8673   1.536   1.208  13.917  0.1368  1.1128  2.3431
   6723SM   C8S 8674   1.605   1.351  13.754  0.0768  0.6730  0.7273
   6723SM   H8S 8675   1.714   1.359  13.770  0.8303 -0.5200 -2.9120
   6723SM   H8T 8676   1.568   1.452  13.724 -0.7986  0.5183  1.2340
   6723SM   C9S 8677   1.586   1.248  13.638  1.1517 -0.1838 -0.4222
   6723SM   H9S 8678   1.482   1.256  13.599  0.9450 -0.7014  0.0138
   6723SM   H9T 8679   1.602   1.144  13.672 -1.3218 -0.8015 -0.9576
   6723SM  C10S 8680   1.665   1.274  13.508  0.5695 -0.3120 -0.8520
   6723SM  H10S 8681   1.773   1.289  13.525  0.9536 -1.4585 -2.1330
   6723SM  H10T 8682   1.634   1.379  13.486  0.0959 -0.4215 -0.7330
   6723SM  C11S 8683   1.635   1.175  13.390 -0.1541  0.0620 -0.1998
   6723SM  H11S 8684   1.526   1.174  13.368 -0.2785  1.5287  0.2541
   6723SM  H11T 8685   1.670   1.071  13.408  0.8849  0.7526  2.2981
   6723SM  C12S 8686   1.708   1.228  13.259  0.7408  0.0721  0.0205
   6723SM  H12S 8687   1.813   1.194  13.265  0.1156 -1.9766  0.1564
   6723SM  H12T 8688   1.706   1.338  13.267  1.6824  0.0614  0.5497
   6723SM  C13S 8689   1.650   1.173  13.129  0.1594  0.0659 -0.1385
   6723SM  H13S 8690   1.539   1.160  13.128  0.3165 -1.3810  0.1160
   6723SM  H13T 8691   1.692   1.071  13.120  2.3493  0.6314  2.5082
   6723SM  C14S 8692   1.705   1.254  13.014 -0.2099  0.1560  0.8743
   6723SM  H14S 8693   1.810   1.221  13.005 -0.9204 -1.9641 -0.5143
   6723SM  H14T 8694   1.689   1.362  13.038 -1.7263  0.2120 -0.1964
   6723SM  C15S 8695   1.623   1.226  12.886 -0.0246 -0.3670  0.3499
   6723SM  H15S 8696   1.514   1.241  12.903 -0.1057  0.0277 -0.4635
   6723SM  H15T 8697   1.634   1.118  12.861  0.0879 -0.3364  0.2673
   6723SM  C16S 8698   1.669   1.316  12.766  0.5408  0.0448 -0.3367
   6723SM  H16S 8699   1.774   1.293  12.735  0.9573  1.7158 -0.2595
   6723SM  H16T 8700   1.663   1.418  12.809  0.5144 -0.9691  2.2797
   6723SM  C17S 8701   1.575   1.307  12.645  0.0045  0.1962 -0.6801
   6723SM  H17S 8702   1.472   1.329  12.681  0.7737 -1.1811  2.6931
   6723SM  H17T 8703   1.587   1.205  12.605  1.7502 -0.8412  2.1779
   6723SM  C18S 8704   1.614   1.418  12.549 -0.2372  0.4812  0.0765
   6723SM  H18S 8705   1.550   1.424  12.459 -0.3871 -0.4581  0.1166
   6723SM  H18T 8706   1.717   1.406  12.511 -1.5211 -1.6505 -3.0834
   6723SM  H18U 8707   1.607   1.520  12.594 -1.7107  0.1789  0.5762
   6723SM   C1F 8708   1.049   1.421  14.055 -0.0083  0.9438 -0.3830
   6723SM    OF 8709   1.030   1.535  14.109 -0.3909  0.2429 -0.1680
   6723SM   C2F 8710   0.981   1.386  13.922 -0.5468  0.7158  0.2579
   6723SM   H2F 8711   0.928   1.289  13.938 -0.7006  0.9010  0.8939
   6723SM   H2G 8712   1.064   1.356  13.854  1.4017  1.0089  2.3812
   6723SM   C3F 8713   0.880   1.493  13.878 -0.5112 -0.1605  0.0697
   6723SM   H3F 8714   0.923   1.595  13.867  1.9091 -1.0089  0.9055
   6723SM   H3G 8715   0.796   1.509  13.948 -0.5656 -0.6858  0.1286
   6723SM   C4F 8716   0.803   1.457  13.749  0.2803  0.3773 -0.2765
   6723SM   H4F 8717   0.708   1.512  13.732 -0.1311 -0.7820 -1.9474
   6723SM   H4G 8718   0.794   1.346  13.748  1.4531  0.2207  1.4399
   6723SM   C5F 8719   0.880   1.498  13.624  0.3726  0.1280 -0.2565
   6723SM   H5F 8720   0.973   1.439  13.610  1.3407  1.9875 -2.2886
   6723SM   H5G 8721   0.908   1.605  13.633  2.2783 -0.1559 -2.0219
   6723SM   C6F 8722   0.790   1.476  13.498 -0.2933 -0.2261 -0.5341
   6723SM   H6F 8723   0.707   1.548  13.519 -1.0676 -0.6583 -1.9803
   6723SM   H6G 8724   0.752   1.372  13.502 -0.9447  0.0313  1.3367
   6723SM   C7F 8725   0.866   1.507  13.375  0.0911 -0.1716 -0.4255
   6723SM   H7F 8726   0.938   1.425  13.353  0.5107  0.4636 -1.5051
   6723SM   H7G 8727   0.923   1.601  13.392 -0.3504  0.0750 -0.3128
   6723SM   C8F 8728   0.782   1.518  13.244  0.1897  0.0142 -0.0260
   6723SM   H8F 8729   0.683   1.568  13.256 -0.8208 -2.1698  1.4857
   6723SM   H8G 8730   0.755   1.410  13.238  1.4210 -0.3775  1.0880
   6723SM   C9F 8731   0.853   1.540  13.116 -0.6134 -0.0903  0.3204
   6723SM   H9F 8732   0.940   1.472  13.125 -1.9741 -1.8950  0.5247
   6723SM   H9G 8733   0.878   1.647  13.100 -1.1369  0.7605  4.1522
   6723SM  C10F 8734   0.764   1.495  13.001 -0.7710  0.1846 -0.5042
   6723SM  H10F 8735   0.665   1.542  13.020  0.0804  1.9507 -0.1869
   6723SM  H10G 8736   0.755   1.385  13.000 -0.9367  0.1739  0.7840
   6723SM  C11F 8737   0.820   1.537  12.867 -0.0894 -0.0041  0.2764
   6723SM  H11F 8738   0.893   1.458  12.835 -0.1815  0.3300 -0.8094
   6723SM  H11G 8739   0.873   1.632  12.886  0.8778 -0.5896  0.6203
   6723SM  C12F 8740   0.717   1.530  12.750 -0.1700 -0.1194 -1.0648
   6723SM  H12F 8741   0.635   1.596  12.786  0.2238 -0.8407  1.3199
   6723SM  H12G 8742   0.668   1.431  12.737 -2.1252  0.5847  0.4921
   6723SM  C13F 8743   0.777   1.562  12.617 -0.3698 -0.3522 -1.1988
   6723SM  H13F 8744   0.822   1.663  12.620 -0.6235 -0.1929  2.6295
   6723SM  H13G 8745   0.697   1.553  12.540 -0.7356  0.0035 -0.8680
   6723SM  C14F 8746   0.869   1.444  12.568 -0.4714  0.5745  0.4398
   6723SM  H14F 8747   0.827   1.342  12.580  2.4468 -0.7626 -0.0129
   6723SM  H14G 8748   0.962   1.441  12.628  0.6671  0.6211 -1.2737
   6723SM  C15F 8749   0.915   1.469  12.423  0.1531 -0.8575 -0.9791
   6723SM  H15F 8750   0.994   1.548  12.426 -1.6409  1.0633  2.6846
   6723SM  H15G 8751   0.835   1.489  12.349 -0.6542 -1.6333 -0.3305
   6723SM  C16F 8752   0.991   1.341  12.380 -0.0281  0.0718  0.0557
   6723SM  H16F 8753   0.927   1.250  12.391  0.1663 -0.0490  0.2176
   6723SM  H16G 8754   1.083   1.330  12.442  0.6149  0.1917 -0.8637
   6723SM  C17F 8755   1.035   1.347  12.238  0.4959  0.5386 -0.2601
   6723SM  H17F 8756   1.130   1.405  12.234 -0.0960  1.4771 -1.4093
   6723SM  H17G 8757   0.960   1.397  12.172  2.3609  2.9275 -0.7568
   6723SM  C18F 8758   1.071   1.215  12.171 -0.5754  0.3274  0.5821
   6723SM  H18F 8759   1.109   1.250  12.073  1.7210 -0.8041  1.0146
   6723SM  H18G 8760   0.979   1.162  12.138  0.8317 -1.3330 -0.7961
   6723SM  C19F 8761   1.178   1.131  12.232 -0.0762 -0.3718 -0.5618
   6723SM  H19F 8762   1.170   1.034  12.179 -0.8419 -0.0186 -1.1133
   6723SM  H19G 8763   1.156   1.122  12.341 -2.6807  1.6379 -0.8094
   6723SM  C20F 8764   1.316   1.191  12.196 -0.3187  0.8165  0.8007
   6723SM  H20F 8765   1.340   1.290  12.239  1.8773  0.1915  1.1308
   6723SM  H20G 8766   1.316   1.203  12.085  0.6522  0.8149  0.7979
   6723SM  C21F 8767   1.424   1.088  12.229  0.5884  0.4887 -0.1990
   6723SM  H21F 8768   1.389   0.984  12.213  0.1713  0.3934  1.1811
   6723SM  H21G 8769   1.430   1.090  12.340  1.7270  0.2541 -0.2491
   6723SM  C22F 8770   1.561   1.108  12.163 -0.3609 -0.0935 -0.2735
   6723SM  H22F 8771   1.633   1.100  12.248  0.0612 -0.6660 -0.6702
   6723SM  H22G 8772   1.550   1.213  12.128 -3.8750 -0.9215 -2.1118
   6723SM  C23F 8773   1.591   1.026  12.041 -0.1971  0.5525 -0.5758
   6723SM  H23F 8774   1.600   0.923  12.081  2.1752  1.2163  0.7884
   6723SM  H23G 8775   1.693   1.049  12.003  0.3293 -1.9208 -0.8357
   6723SM  H23H 8776   1.516   1.043  11.961 -1.1948 -1.1355 -0.0538
   6823SM     N 8777   1.293   4.004  14.936 -0.0906 -0.1230 -0.0597
   6823SM   C15 8778   1.246   3.889  15.013 -0.0682  0.1421  0.1720
   6823SM  H15A 8779   1.279   3.911  15.113  0.5564 -0.3277  0.0771
   6823SM  H15B 8780   1.284   3.797  14.971 -1.5299 -0.0315 -0.8483
   6823SM  H15C 8781   1.138   3.883  15.006 -0.0298  0.4271 -0.7576
   6823SM   C14 8782   1.255   4.133  15.013 -0.5534 -0.9576  0.2189
   6823SM  H14A 8783   1.299   4.221  14.969 -1.4488  0.0697  1.3119
   6823SM  H14B 8784   1.285   4.135  15.117 -1.8252 -0.8731  0.6063
   6823SM  H14C 8785   1.151   4.158  14.998 -0.7004 -2.0088 -0.6097
   6823SM   C13 8786   1.443   3.991  14.934 -0.2927  0.4414 -0.2651
   6823SM  H13A 8787   1.485   4.077  14.882 -0.9324  2.7510  2.7392
   6823SM  H13B 8788   1.479   3.898  14.892 -1.2856 -0.6454  1.2069
   6823SM  H13C 8789   1.479   3.995  15.036 -3.0756  1.7982  0.7654
   6823SM   C12 8790   1.237   4.015  14.802  0.4866  0.7496  0.3197
   6823SM  H12A 8791   1.262   3.924  14.749 -0.4118  1.3527 -1.2119
   6823SM  H12B 8792   1.272   4.105  14.753 -0.6719  0.1699 -1.7028
   6823SM   C11 8793   1.082   4.022  14.785 -0.4092 -0.4861  0.6443
   6823SM  H11A 8794   1.041   3.925  14.820  0.5233 -1.0964  0.1049
   6823SM  H11B 8795   1.062   4.036  14.677 -1.5522  2.3663  1.1451
   6823SM     P 8796   0.997   4.265  14.772 -0.1322 -0.0300 -0.2771
   6823SM   O13 8797   0.893   4.340  14.843  0.6062  0.8650 -0.1389
   6823SM   O14 8798   1.128   4.326  14.754 -0.1188 -0.0008 -0.0577
   6823SM   O11 8799   0.936   4.218  14.634 -0.3391  0.0397  0.1459
   6823SM   O12 8800   1.016   4.127  14.854  0.1054 -0.1718  0.3270
   6823SM   C1S 8801   0.927   4.306  14.521  0.4091  0.1504 -0.4573
   6823SM   H1S 8802   1.020   4.367  14.511  1.0403 -0.9445 -1.6420
   6823SM   H1T 8803   0.844   4.378  14.532  0.4986  0.1484  0.2448
   6823SM    NF 8804   0.980   4.305  14.271  0.0152  0.1642 -0.7560
   6823SM   HNF 8805   0.912   4.345  14.210 -1.3813  0.5815  0.9991
   6823SM   C2S 8806   0.926   4.228  14.384  0.2478  0.4354 -0.6723
   6823SM   H2S 8807   0.989   4.138  14.399 -1.4282 -0.9026 -1.3784
   6823SM   C3S 8808   0.786   4.165  14.373  0.4874  0.4579  0.6169
   6823SM   H3S 8809   0.722   4.255  14.368  0.2927  0.2567 -0.8097
   6823SM    O3 8810   0.740   4.105  14.492 -0.1325  0.6864 -0.2871
   6823SM   HO3 8811   0.807   4.121  14.559  1.4115 -0.4648 -1.4707
   6823SM   C4S 8812   0.770   4.079  14.247 -0.3706 -0.2848 -0.2542
   6823SM   H4S 8813   0.848   4.003  14.231  0.4205  0.5738 -0.6312
   6823SM   C5S 8814   0.676   4.089  14.149 -0.4890  0.5530 -0.3160
   6823SM   H5S 8815   0.595   4.161  14.167  0.6170  1.4552  1.4028
   6823SM   C6S 8816   0.670   4.012  14.023 -0.2522  0.2212 -0.9952
   6823SM   H6S 8817   0.574   3.956  14.026  1.1754 -2.3689 -0.5080
   6823SM   H6T 8818   0.757   3.944  14.017  0.3976  0.8115  0.9098
   6823SM   C7S 8819   0.704   4.101  13.903  0.7318 -0.2049  0.0747
   6823SM   H7S 8820   0.805   4.144  13.914  0.7947 -0.5463  0.9381
   6823SM   H7T 8821   0.635   4.187  13.914  0.5908 -0.3436  0.3006
   6823SM   C8S 8822   0.682   4.039  13.767  0.3112 -0.2433 -0.9160
   6823SM   H8S 8823   0.603   3.962  13.778  1.6531 -1.4694  0.6272
   6823SM   H8T 8824   0.774   3.981  13.745  1.4715  0.2240  2.1335
   6823SM   C9S 8825   0.660   4.141  13.660 -0.9364 -0.0676  0.3410
   6823SM   H9S 8826   0.754   4.196  13.681 -0.5713 -0.8975  0.9405
   6823SM   H9T 8827   0.577   4.209  13.688 -0.2386  0.7552  0.4395
   6823SM  C10S 8828   0.642   4.080  13.515  0.0857 -0.4530  0.0529
   6823SM  H10S 8829   0.569   3.997  13.515 -0.0500 -0.3365 -0.4467
   6823SM  H10T 8830   0.742   4.034  13.497  0.0479 -0.2252 -0.7785
   6823SM  C11S 8831   0.615   4.183  13.404 -0.1768 -0.4669 -0.0184
   6823SM  H11S 8832   0.700   4.254  13.419  0.4246 -1.1365 -0.1826
   6823SM  H11T 8833   0.527   4.251  13.405 -0.1484 -0.3763  2.1286
   6823SM  C12S 8834   0.637   4.122  13.269 -0.3060 -0.7473  0.3213
   6823SM  H12S 8835   0.552   4.053  13.256 -0.1835 -0.8598  0.1111
   6823SM  H12T 8836   0.735   4.071  13.256  1.0923  1.5305  1.2543
   6823SM  C13S 8837   0.623   4.226  13.154 -0.0291  0.1265 -0.0338
   6823SM  H13S 8838   0.688   4.313  13.177  0.4091  0.0429 -0.9034
   6823SM  H13T 8839   0.516   4.256  13.154 -0.0473  0.2889  2.3041
   6823SM  C14S 8840   0.653   4.167  13.021  0.2516  0.2668  0.2193
   6823SM  H14S 8841   0.611   4.065  13.015  0.4033  0.2758 -3.8510
   6823SM  H14T 8842   0.762   4.148  13.006  0.3194  0.6435  0.1997
   6823SM  C15S 8843   0.587   4.243  12.907 -0.7154  0.7814  0.4466
   6823SM  H15S 8844   0.618   4.350  12.913  0.8443  0.2691  3.1493
   6823SM  H15T 8845   0.477   4.243  12.925 -0.6740  1.4520  0.7433
   6823SM  C16S 8846   0.599   4.176  12.770  0.0460 -0.4212  1.1614
   6823SM  H16S 8847   0.568   4.069  12.767 -1.1050 -0.1215 -2.4201
   6823SM  H16T 8848   0.706   4.193  12.744 -0.3108  0.5110  0.2450
   6823SM  C17S 8849   0.510   4.246  12.666 -0.1276  0.1888  0.5437
   6823SM  H17S 8850   0.530   4.354  12.681 -1.5115  0.3884  1.0910
   6823SM  H17T 8851   0.405   4.230  12.699 -0.3617  2.4061  0.9857
   6823SM  C18S 8852   0.540   4.198  12.522 -0.0148 -0.2168  0.2331
   6823SM  H18S 8853   0.555   4.088  12.525 -3.0873 -0.8716 -2.4706
   6823SM  H18T 8854   0.637   4.243  12.491  0.0566 -1.4048 -1.3761
   6823SM  H18U 8855   0.459   4.213  12.447 -0.2079 -1.3328  0.2000
   6823SM   C1F 8856   1.109   4.329  14.252 -0.5673  0.3551 -0.2841
   6823SM    OF 8857   1.190   4.267  14.311 -0.2501  0.5885  0.2690
   6823SM   C2F 8858   1.134   4.415  14.132  0.0223 -0.1415  0.3938
   6823SM   H2F 8859   1.110   4.519  14.162  1.5336  0.5811 -0.7739
   6823SM   H2G 8860   1.059   4.391  14.054 -0.3683  1.2387  0.3198
   6823SM   C3F 8861   1.279   4.415  14.070 -0.1683  0.0119  0.1495
   6823SM   H3F 8862   1.315   4.310  14.072  1.5733  0.5251 -1.5821
   6823SM   H3G 8863   1.342   4.473  14.141 -0.8790 -0.1759  0.9496
   6823SM   C4F 8864   1.295   4.461  13.924 -0.1929 -0.3520 -0.0388
   6823SM   H4F 8865   1.398   4.445  13.885 -0.2709 -1.3890  0.1282
   6823SM   H4G 8866   1.262   4.566  13.923  3.1219  0.8310 -1.1305
   6823SM   C5F 8867   1.215   4.373  13.819  0.3500 -0.3170 -1.1574
   6823SM   H5F 8868   1.111   4.368  13.857  0.3663  0.3800 -0.9933
   6823SM   H5G 8869   1.242   4.266  13.815  0.2150 -0.3282 -1.8510
   6823SM   C6F 8870   1.213   4.443  13.679 -0.4578 -0.1763  0.3731
   6823SM   H6F 8871   1.319   4.459  13.647 -0.5685 -0.0359  0.0681
   6823SM   H6G 8872   1.171   4.546  13.683 -1.0780 -0.2438 -2.2377
   6823SM   C7F 8873   1.131   4.371  13.569 -0.2868 -0.1064 -0.2745
   6823SM   H7F 8874   1.029   4.358  13.611  0.2206  1.8425  1.7629
   6823SM   H7G 8875   1.170   4.270  13.545 -0.8894 -0.7454  1.3507
   6823SM   C8F 8876   1.131   4.450  13.440  0.4110  0.2254 -0.2605
   6823SM   H8F 8877   1.238   4.462  13.412  0.4929 -0.0231 -0.0617
   6823SM   H8G 8878   1.080   4.544  13.469 -0.3502 -0.1096 -0.5034
   6823SM   C9F 8879   1.044   4.381  13.334 -0.3392 -0.7324  0.5119
   6823SM   H9F 8880   0.943   4.373  13.378 -0.8372 -1.3208 -0.6970
   6823SM   H9G 8881   1.086   4.280  13.314 -1.2737 -1.1292  0.5036
   6823SM  C10F 8882   1.058   4.468  13.198  0.0529 -0.0849 -0.9249
   6823SM  H10F 8883   1.163   4.505  13.193 -0.4171  1.4528 -0.1625
   6823SM  H10G 8884   0.999   4.562  13.207  0.0929  0.3074 -3.8041
   6823SM  C11F 8885   1.001   4.401  13.069 -0.1404 -1.1154 -0.1171
   6823SM  H11F 8886   0.890   4.393  13.072 -0.3664  1.3679  0.4014
   6823SM  H11G 8887   1.056   4.307  13.050  1.3688 -0.8083  2.3772
   6823SM  C12F 8888   1.019   4.500  12.952  0.3872  0.7430  0.4738
   6823SM  H12F 8889   1.125   4.498  12.919  0.9356  1.3306  2.1040
   6823SM  H12G 8890   0.996   4.608  12.961 -1.6749  1.0553 -4.9366
   6823SM  C13F 8891   0.944   4.448  12.832  0.1639  0.3240 -0.1572
   6823SM  H13F 8892   0.835   4.443  12.854  0.5761 -1.2177  1.8601
   6823SM  H13G 8893   0.987   4.348  12.810 -1.7050 -0.3669 -0.8565
   6823SM  C14F 8894   0.966   4.546  12.710  0.4757  0.2009 -0.3832
   6823SM  H14F 8895   1.068   4.586  12.695  0.0073  1.5784 -0.0392
   6823SM  H14G 8896   0.899   4.632  12.731 -0.2600 -0.1989 -1.0075
   6823SM  C15F 8897   0.922   4.474  12.581  0.5782  0.3707  0.2653
   6823SM  H15F 8898   0.838   4.406  12.607 -0.8506  1.8118 -0.4364
   6823SM  H15G 8899   1.004   4.415  12.534  0.6711  1.7562 -1.4352
   6823SM  C16F 8900   0.887   4.567  12.470  0.6344 -0.1938  0.3098
   6823SM  H16F 8901   0.981   4.619  12.442 -0.0753 -0.1155 -2.1305
   6823SM  H16G 8902   0.810   4.638  12.509 -0.5706 -1.5802  0.5582
   6823SM  C17F 8903   0.825   4.491  12.350  0.6007 -0.7337 -0.1781
   6823SM  H17F 8904   0.728   4.450  12.384  0.4056  0.3263  0.5857
   6823SM  H17G 8905   0.892   4.406  12.326 -0.9986 -1.9919 -0.3696
   6823SM  C18F 8906   0.797   4.592  12.231 -0.4629 -0.5312  0.7268
   6823SM  H18F 8907   0.796   4.527  12.140 -0.7648 -0.1754  0.4712
   6823SM  H18G 8908   0.877   4.668  12.217 -1.0585 -0.2490 -1.5927
   6823SM  C19F 8909   0.666   4.668  12.245 -0.4334  0.6480  0.7871
   6823SM  H19F 8910   0.683   4.722  12.341  1.7764 -0.2017  0.9287
   6823SM  H19G 8911   0.575   4.612  12.275  0.1933 -0.7764  0.1152
   6823SM  C20F 8912   0.647   4.758  12.125  0.1421  0.1181  0.2709
   6823SM  H20F 8913   0.733   4.828  12.118  0.6340 -0.5292 -0.3219
   6823SM  H20G 8914   0.553   4.811  12.151 -0.2790  0.1638 -1.2331
   6823SM  C21F 8915   0.624   4.692  11.987  1.1233  0.0148 -0.2558
   6823SM  H21F 8916   0.553   4.608  12.006  1.0596  0.3669  1.2200
   6823SM  H21G 8917   0.721   4.644  11.965 -0.4927 -3.6918 -0.0636
   6823SM  C22F 8918   0.571   4.782  11.871 -0.7318 -0.4581  0.0798
   6823SM  H22F 8919   0.638   4.867  11.849 -1.7599 -0.1425 -2.1290
   6823SM  H22G 8920   0.477   4.831  11.904 -0.7120 -0.4924  0.1910
   6823SM  C23F 8921   0.551   4.709  11.734  0.6234 -1.1383 -1.0558
   6823SM  H23F 8922   0.573   4.602  11.751  0.6265 -0.9738  0.0488
   6823SM  H23G 8923   0.617   4.746  11.653  2.1858 -2.2477 -0.3423
   6823SM  H23H 8924   0.442   4.707  11.712  0.5558  0.9514 -1.1549
   6923SM     N 8925   3.660   3.176  15.204 -0.4798 -0.2446  0.2245
   6923SM   C15 8926   3.604   3.040  15.209 -0.7678  0.4884 -0.2409
   6923SM  H15A 8927   3.528   3.022  15.135  0.8688 -0.5913 -1.7552
   6923SM  H15B 8928   3.573   3.014  15.309  1.9504  2.5147  1.2698
   6923SM  H15C 8929   3.680   2.965  15.191 -1.8062 -0.3149 -1.4514
   6923SM   C14 8930   3.773   3.186  15.298  0.7540  0.4890 -0.2464
   6923SM  H14A 8931   3.827   3.277  15.278 -1.8944  2.3012  0.2272
   6923SM  H14B 8932   3.855   3.118  15.281  0.2261 -0.1871 -0.1441
   6923SM  H14C 8933   3.741   3.173  15.401 -0.4106  0.2909 -0.6184
   6923SM   C13 8934   3.704   3.205  15.061 -0.4506 -1.0292  0.0252
   6923SM  H13A 8935   3.748   3.303  15.057 -3.4423  0.3948 -0.6857
   6923SM  H13B 8936   3.620   3.210  14.994 -1.9628  0.8878  1.9159
   6923SM  H13C 8937   3.776   3.125  15.049 -1.3841 -2.1305  1.3283
   6923SM   C12 8938   3.553   3.272  15.247 -0.5190 -0.1905 -0.7691
   6923SM  H12A 8939   3.581   3.376  15.233  0.0443 -0.1495  0.4738
   6923SM  H12B 8940   3.531   3.259  15.352 -0.9475 -0.9385 -0.9497
   6923SM   C11 8941   3.420   3.260  15.176  0.2135  0.1591  0.8536
   6923SM  H11A 8942   3.373   3.160  15.191  1.4344 -0.4089  1.0020
   6923SM  H11B 8943   3.430   3.254  15.066 -0.0096  0.0621  0.8386
   6923SM     P 8944   3.373   3.515  15.168  0.0574 -0.0620 -0.0089
   6923SM   O13 8945   3.262   3.608  15.197  0.3177 -0.2727  0.5936
   6923SM   O14 8946   3.509   3.555  15.196 -0.4732  0.1452  0.4885
   6923SM   O11 8947   3.378   3.505  15.008 -0.4805 -0.2184 -0.2174
   6923SM   O12 8948   3.337   3.371  15.219  0.0854  0.6386  0.2035
   6923SM   C1S 8949   3.260   3.465  14.935  0.8791 -0.3413 -0.0083
   6923SM   H1S 8950   3.177   3.535  14.956 -1.1193 -2.4151 -0.5970
   6923SM   H1T 8951   3.223   3.363  14.957 -1.0405 -0.4734 -3.2120
   6923SM    NF 8952   3.154   3.444  14.707 -0.0928  0.4217 -0.3714
   6923SM   HNF 8953   3.156   3.354  14.665  1.7671  0.7277 -1.0498
   6923SM   C2S 8954   3.276   3.475  14.777 -0.1937 -1.0438 -0.0021
   6923SM   H2S 8955   3.295   3.583  14.761 -1.1291 -1.1144 -1.7789
   6923SM   C3S 8956   3.389   3.383  14.722  0.0445  0.3067 -0.0564
   6923SM   H3S 8957   3.345   3.283  14.700 -1.1508  0.5244  1.2624
   6923SM    O3 8958   3.497   3.367  14.816 -0.6797  0.4789  0.3106
   6923SM   HO3 8959   3.466   3.395  14.903  1.7290  2.5936  0.5909
   6923SM   C4S 8960   3.443   3.427  14.590 -0.2162 -0.3579 -1.0057
   6923SM   H4S 8961   3.393   3.372  14.509 -0.1250 -2.7706  0.4798
   6923SM   C5S 8962   3.540   3.517  14.564 -0.0679 -0.0993  0.3092
   6923SM   H5S 8963   3.598   3.558  14.648 -0.5289  1.3408 -0.0412
   6923SM   C6S 8964   3.590   3.556  14.427 -0.4688 -0.4167 -0.2811
   6923SM   H6S 8965   3.699   3.575  14.439  0.2212 -2.7260 -2.1060
   6923SM   H6T 8966   3.534   3.646  14.392  0.0661 -0.8931 -2.5234
   6923SM   C7S 8967   3.566   3.463  14.310 -0.4497 -0.2449  1.3232
   6923SM   H7S 8968   3.456   3.446  14.314 -0.7648  1.6900  2.3861
   6923SM   H7T 8969   3.612   3.363  14.325 -1.4872 -0.5716  2.4950
   6923SM   C8S 8970   3.619   3.540  14.182 -0.1997  0.3526 -0.1063
   6923SM   H8S 8971   3.717   3.579  14.215  0.9738 -2.7862  0.5446
   6923SM   H8T 8972   3.546   3.621  14.160 -1.0523 -0.7410 -1.4781
   6923SM   C9S 8973   3.640   3.459  14.052  0.4630 -0.5614  0.2742
   6923SM   H9S 8974   3.545   3.415  14.014  0.3051 -0.9378  1.0950
   6923SM   H9T 8975   3.715   3.378  14.060  1.5275  0.2101 -1.2732
   6923SM  C10S 8976   3.688   3.557  13.944 -0.8866  0.2706  0.3186
   6923SM  H10S 8977   3.793   3.588  13.963 -0.8207  0.7018 -0.6780
   6923SM  H10T 8978   3.625   3.649  13.947 -2.0580 -0.2292 -3.5580
   6923SM  C11S 8979   3.658   3.509  13.804  0.1270  0.3938  0.4003
   6923SM  H11S 8980   3.548   3.514  13.785  0.2287  1.9071  0.1186
   6923SM  H11T 8981   3.687   3.402  13.802 -2.9540 -0.5798  1.5481
   6923SM  C12S 8982   3.734   3.591  13.700 -0.3426  0.4412  0.3213
   6923SM  H12S 8983   3.843   3.577  13.714 -0.3080  1.0469  0.6716
   6923SM  H12T 8984   3.711   3.699  13.713 -0.1086  0.4442  0.7244
   6923SM  C13S 8985   3.703   3.550  13.560  0.4922  0.7832  0.7166
   6923SM  H13S 8986   3.593   3.539  13.548 -0.1208  3.1581  3.2362
   6923SM  H13T 8987   3.737   3.446  13.543 -1.6227  0.0945  0.4072
   6923SM  C14S 8988   3.767   3.648  13.455  0.0775  0.9267  0.8594
   6923SM  H14S 8989   3.877   3.638  13.455 -0.0505 -0.9740  1.1163
   6923SM  H14T 8990   3.750   3.755  13.481 -0.0306  0.6510  1.9923
   6923SM  C15S 8991   3.720   3.605  13.316 -0.0142  0.6877 -0.5925
   6923SM  H15S 8992   3.610   3.606  13.329  0.0609 -1.4287  0.7752
   6923SM  H15T 8993   3.762   3.505  13.293 -0.0004  0.2861  1.0149
   6923SM  C16S 8994   3.761   3.707  13.204  0.3792 -0.4765  0.5403
   6923SM  H16S 8995   3.870   3.703  13.179  0.0320 -0.2576 -1.1037
   6923SM  H16T 8996   3.746   3.805  13.253 -1.8488 -0.8051  0.5902
   6923SM  C17S 8997   3.681   3.689  13.074  0.2836  0.0447 -0.0422
   6923SM  H17S 8998   3.722   3.767  13.006  3.5130 -2.6674 -1.4781
   6923SM  H17T 8999   3.575   3.714  13.099 -0.2043 -0.4051 -1.5550
   6923SM  C18S 9000   3.699   3.553  13.001  0.2397 -0.1229 -0.0334
   6923SM  H18S 9001   3.763   3.553  12.910  0.7177  0.7067  0.2949
   6923SM  H18T 9002   3.598   3.517  12.970  0.2747  1.1714 -1.8500
   6923SM  H18U 9003   3.740   3.479  13.073 -2.6105 -0.6009  1.2495
   6923SM   C1F 9004   3.039   3.514  14.710 -0.0716  0.1980 -0.1430
   6923SM    OF 9005   3.031   3.629  14.743  0.3598 -0.1934  0.8881
   6923SM   C2F 9006   2.918   3.433  14.674 -0.7753  0.0969 -0.2562
   6923SM   H2F 9007   2.848   3.455  14.757 -0.5514 -2.6620  0.7730
   6923SM   H2G 9008   2.936   3.325  14.691 -1.0718 -0.1284 -1.3103
   6923SM   C3F 9009   2.874   3.467  14.531  0.4761 -0.1905  0.1502
   6923SM   H3F 9010   2.967   3.452  14.472  1.6521  2.6002  1.1264
   6923SM   H3G 9011   2.831   3.569  14.534  1.6821  0.3287  0.4796
   6923SM   C4F 9012   2.775   3.359  14.478 -0.1529 -0.1780  0.0478
   6923SM   H4F 9013   2.683   3.351  14.541 -0.3617 -1.9116 -0.4329
   6923SM   H4G 9014   2.826   3.261  14.476  0.2462  0.0405 -0.9279
   6923SM   C5F 9015   2.721   3.389  14.337 -0.2812 -0.1852  0.5980
   6923SM   H5F 9016   2.806   3.408  14.267 -0.3041 -0.5084  0.4785
   6923SM   H5G 9017   2.664   3.484  14.328 -2.0112 -1.2995 -1.1363
   6923SM   C6F 9018   2.641   3.273  14.271 -0.2499  0.0918 -0.1604
   6923SM   H6F 9019   2.542   3.273  14.323  0.6271  0.8916  1.6207
   6923SM   H6G 9020   2.703   3.183  14.290  0.0256 -0.1696 -2.0999
   6923SM   C7F 9021   2.628   3.287  14.119 -0.0313 -0.4499 -0.0333
   6923SM   H7F 9022   2.583   3.190  14.089 -1.1136 -0.5192  1.6511
   6923SM   H7G 9023   2.731   3.286  14.078  0.9441 -2.1196  2.2344
   6923SM   C8F 9024   2.560   3.408  14.068 -0.4876  0.4194 -0.1036
   6923SM   H8F 9025   2.621   3.500  14.081 -0.9600  0.8154 -0.6492
   6923SM   H8G 9026   2.466   3.428  14.123 -0.5855  1.8908 -0.7754
   6923SM   C9F 9027   2.520   3.395  13.916 -0.3834  0.9273  0.0524
   6923SM   H9F 9028   2.476   3.293  13.908 -0.6149  0.9902  0.4488
   6923SM   H9G 9029   2.611   3.412  13.856 -0.7810  1.1418 -0.5041
   6923SM  C10F 9030   2.416   3.490  13.847 -0.6744 -0.2673 -0.4460
   6923SM  H10F 9031   2.423   3.599  13.865 -2.5885  0.1940 -2.0743
   6923SM  H10G 9032   2.309   3.465  13.867 -0.6034  0.0680  0.4046
   6923SM  C11F 9033   2.428   3.481  13.696 -0.0168  0.5864 -0.3349
   6923SM  H11F 9034   2.411   3.379  13.656  1.4360 -0.5500  1.7191
   6923SM  H11G 9035   2.531   3.511  13.670 -0.3501  0.4125 -1.9669
   6923SM  C12F 9036   2.334   3.570  13.629 -0.5642  0.5076  0.6000
   6923SM  H12F 9037   2.372   3.675  13.634 -0.6483  0.5263  0.8153
   6923SM  H12G 9038   2.237   3.569  13.682 -0.6023 -0.2880  0.5235
   6923SM  C13F 9039   2.327   3.543  13.473  0.7642  0.0563 -0.6016
   6923SM  H13F 9040   2.321   3.434  13.452  1.0394 -0.2198  0.6570
   6923SM  H13G 9041   2.418   3.584  13.423  0.5529  0.1323 -0.9267
   6923SM  C14F 9042   2.197   3.601  13.423 -0.1086 -0.1555  0.2593
   6923SM  H14F 9043   2.190   3.707  13.453  2.3250  0.7772 -2.0551
   6923SM  H14G 9044   2.111   3.554  13.475  0.3286 -1.7667 -0.3820
   6923SM  C15F 9045   2.173   3.560  13.280 -0.2373 -0.6050 -0.5502
   6923SM  H15F 9046   2.162   3.450  13.282 -2.3582 -0.4222  0.3423
   6923SM  H15G 9047   2.265   3.579  13.219  1.7574 -1.5337  1.9929
   6923SM  C16F 9048   2.041   3.599  13.216 -0.0077 -0.1906  0.6638
   6923SM  H16F 9049   2.027   3.709  13.223 -0.0009 -0.2251  1.2130
   6923SM  H16G 9050   1.961   3.553  13.277 -1.0188 -1.1657 -1.2915
   6923SM  C17F 9051   2.046   3.554  13.068 -0.5937  0.3725 -0.0028
   6923SM  H17F 9052   2.092   3.453  13.058 -2.7909 -0.7338  0.4069
   6923SM  H17G 9053   2.116   3.616  13.008  1.1612 -1.8825 -0.4249
   6923SM  C18F 9054   1.917   3.545  12.992 -0.2864 -0.0616 -0.5956
   6923SM  H18F 9055   1.858   3.639  12.985  0.9995  0.9125  0.8373
   6923SM  H18G 9056   1.856   3.473  13.050  1.1783 -0.0772  0.9954
   6923SM  C19F 9057   1.934   3.494  12.852  0.1204  0.1215 -0.0980
   6923SM  H19F 9058   1.830   3.462  12.828  1.0898 -1.5484 -2.5430
   6923SM  H19G 9059   2.000   3.405  12.847 -2.3396 -2.0878  2.8146
   6923SM  C20F 9060   1.973   3.599  12.739 -0.0797 -0.4174  0.5538
   6923SM  H20F 9061   2.084   3.604  12.744 -0.1667  0.3550  2.1229
   6923SM  H20G 9062   1.949   3.705  12.760  0.5825 -0.5574  2.1394
   6923SM  C21F 9063   1.940   3.562  12.596 -0.3857 -0.3607  0.0204
   6923SM  H21F 9064   1.997   3.469  12.574 -1.1454 -0.6683 -0.7541
   6923SM  H21G 9065   1.990   3.646  12.543 -0.5578 -0.4607 -0.3053
   6923SM  C22F 9066   1.797   3.539  12.553  0.9679  0.5350 -0.9037
   6923SM  H22F 9067   1.764   3.439  12.591 -1.1547  0.4848 -2.6458
   6923SM  H22G 9068   1.791   3.525  12.443 -1.2567 -1.6070 -0.6084
   6923SM  C23F 9069   1.692   3.642  12.593 -0.1139 -0.0463 -0.6304
   6923SM  H23F 9070   1.694   3.733  12.530 -0.3598 -0.0035 -0.5774
   6923SM  H23G 9071   1.704   3.683  12.696  2.2132  1.3223 -1.3728
   6923SM  H23H 9072   1.590   3.597  12.599  0.3107 -1.4421 -2.8439
   7023SM     N 9073   2.118   2.936  15.022 -0.8376  0.2096 -0.1444
   7023SM   C15 9074   2.029   2.848  15.097  0.3149  0.4544 -0.5481
   7023SM  H15A 9075   1.966   2.797  15.026  1.8152 -1.8569 -0.3273
   7023SM  H15B 9076   1.959   2.904  15.157  0.6760 -0.1173  0.4183
   7023SM  H15C 9077   2.083   2.781  15.162 -0.7877  1.3548  1.3902
   7023SM   C14 9078   2.185   3.041  15.096 -1.0297 -0.5147 -1.1674
   7023SM  H14A 9079   2.234   3.113  15.032 -0.7595  1.3061  0.9440
   7023SM  H14B 9080   2.242   3.002  15.179 -2.5777  1.0540  0.7345
   7023SM  H14C 9081   2.117   3.107  15.149  2.2851  2.9393 -0.7392
   7023SM   C13 9082   2.228   2.851  14.966 -0.5714 -0.2181  0.4758
   7023SM  H13A 9083   2.275   2.790  15.041  0.6708  0.3707  0.1963
   7023SM  H13B 9084   2.303   2.906  14.912  1.2022 -2.1582  0.8183
   7023SM  H13C 9085   2.189   2.797  14.881  1.2382  1.6019 -1.6341
   7023SM   C12 9086   2.043   2.991  14.907  0.4550  0.2286 -0.5790
   7023SM  H12A 9087   1.981   3.073  14.941  0.4987 -0.3264  0.9002
   7023SM  H12B 9088   1.977   2.914  14.870  1.6624 -1.4681  0.6867
   7023SM   C11 9089   2.129   3.039  14.790  0.4585 -0.3513 -0.9802
   7023SM  H11A 9090   2.073   3.083  14.705  1.8559  0.9366 -1.2902
   7023SM  H11B 9091   2.186   2.953  14.748  0.0596  0.0766 -2.4378
   7023SM     P 9092   2.237   3.274  14.810 -0.0495 -0.2253  0.0893
   7023SM   O13 9093   2.103   3.320  14.853 -0.0190  0.5175 -0.2429
   7023SM   O14 9094   2.351   3.340  14.874 -0.0993 -0.2436 -0.3158
   7023SM   O11 9095   2.261   3.282  14.652  0.3151  0.2994  0.2119
   7023SM   O12 9096   2.244   3.120  14.836  0.5253 -0.7631 -0.9621
   7023SM   C1S 9097   2.153   3.322  14.563  0.0738 -0.7031 -1.2968
   7023SM   H1S 9098   2.118   3.427  14.576  0.1648 -0.5605 -2.1675
   7023SM   H1T 9099   2.070   3.248  14.569  0.9042 -1.5341  0.6863
   7023SM    NF 9100   2.095   3.391  14.323  0.2176 -0.2036 -0.2700
   7023SM   HNF 9101   2.034   3.332  14.271  1.8172 -0.7685 -1.6074
   7023SM   C2S 9102   2.190   3.323  14.410 -0.1234 -0.0056  0.0073
   7023SM   H2S 9103   2.286   3.379  14.407 -0.5071  0.6450 -0.0801
   7023SM   C3S 9104   2.210   3.173  14.369  0.3102  0.3148 -0.1230
   7023SM   H3S 9105   2.133   3.099  14.398 -1.3986  1.6631 -1.0427
   7023SM    O3 9106   2.326   3.122  14.434  0.4901 -0.2170 -0.2119
   7023SM   HO3 9107   2.341   3.176  14.513  0.4749  1.0502 -1.0416
   7023SM   C4S 9108   2.247   3.162  14.223 -0.2541  0.1349 -1.2019
   7023SM   H4S 9109   2.355   3.163  14.205  0.3825 -1.7818  1.7890
   7023SM   C5S 9110   2.168   3.139  14.121  0.1631 -0.4289  0.1843
   7023SM   H5S 9111   2.060   3.139  14.138  0.3360  1.4382  1.5208
   7023SM   C6S 9112   2.232   3.128  13.983 -0.7398 -1.1239  0.3272
   7023SM   H6S 9113   2.250   3.025  13.947 -0.3738 -0.4807 -1.4677
   7023SM   H6T 9114   2.329   3.179  13.967 -0.6403 -1.1459  0.8392
   7023SM   C7S 9115   2.138   3.181  13.879  0.0701  0.5420  0.5853
   7023SM   H7S 9116   2.113   3.288  13.897  0.4229  0.5947  0.7813
   7023SM   H7T 9117   2.042   3.127  13.891  1.4228 -1.9243  0.9164
   7023SM   C8S 9118   2.192   3.163  13.733  0.0085 -0.2934  0.4553
   7023SM   H8S 9119   2.197   3.055  13.705  1.3819  0.3617 -2.0721
   7023SM   H8T 9120   2.295   3.201  13.745 -0.1319  0.2632 -0.0754
   7023SM   C9S 9121   2.116   3.235  13.622 -0.6674 -0.5515 -0.0873
   7023SM   H9S 9122   2.193   3.264  13.546 -0.1120 -1.1841  0.2259
   7023SM   H9T 9123   2.070   3.330  13.656  2.0570  0.6113  0.6550
   7023SM  C10S 9124   2.016   3.146  13.536  0.7297  0.3165 -0.4103
   7023SM  H10S 9125   1.931   3.125  13.604  1.5057 -1.4673  0.0469
   7023SM  H10T 9126   2.070   3.052  13.517  1.2776  0.4486  0.4270
   7023SM  C11S 9127   1.971   3.230  13.416 -0.5645 -0.7562 -0.0203
   7023SM  H11S 9128   2.057   3.244  13.347 -0.2686 -3.0210 -0.1962
   7023SM  H11T 9129   1.931   3.331  13.440  1.8338  0.4467 -0.7257
   7023SM  C12S 9130   1.856   3.166  13.336 -0.0656  0.3507 -0.0733
   7023SM  H12S 9131   1.784   3.134  13.414  1.8182 -0.5582  1.3671
   7023SM  H12T 9132   1.889   3.068  13.295 -0.9858 -0.9061  2.0259
   7023SM  C13S 9133   1.801   3.262  13.225 -0.1830 -0.1097  0.5612
   7023SM  H13S 9134   1.874   3.282  13.143  0.2854  2.2965  1.4954
   7023SM  H13T 9135   1.779   3.364  13.262  0.6820 -0.3834  1.8894
   7023SM  C14S 9136   1.672   3.214  13.158  0.1777 -0.5966  0.0872
   7023SM  H14S 9137   1.589   3.218  13.231  0.2031 -0.8878  0.1318
   7023SM  H14T 9138   1.682   3.112  13.116  0.3492  0.4088 -2.5184
   7023SM  C15S 9139   1.649   3.292  13.023 -0.1491  0.2404 -0.5091
   7023SM  H15S 9140   1.726   3.275  12.945  2.3791  1.0246  1.6818
   7023SM  H15T 9141   1.651   3.402  13.040  0.9810  0.3758 -1.3799
   7023SM  C16S 9142   1.515   3.252  12.951 -0.6928  0.3119  0.3564
   7023SM  H16S 9143   1.433   3.284  13.019 -0.4289  2.6822 -0.3479
   7023SM  H16T 9144   1.518   3.141  12.959  1.7588  0.1892 -1.2377
   7023SM  C17S 9145   1.499   3.317  12.810 -0.3218  0.0728 -0.0099
   7023SM  H17S 9146   1.522   3.426  12.812 -1.1088  0.2433  1.4526
   7023SM  H17T 9147   1.391   3.313  12.784 -0.3747 -0.7833  0.3097
   7023SM  C18S 9148   1.581   3.245  12.701 -0.0831 -0.1332 -0.5807
   7023SM  H18S 9149   1.553   3.137  12.698 -0.0223 -0.1382 -1.1064
   7023SM  H18T 9150   1.688   3.256  12.727 -0.7662  5.1136  1.2943
   7023SM  H18U 9151   1.575   3.297  12.604  2.2022  1.0494 -0.1416
   7023SM   C1F 9152   2.093   3.523  14.293  0.2289 -0.2144 -0.4422
   7023SM    OF 9153   2.144   3.607  14.364 -0.5733 -0.7357  0.0247
   7023SM   C2F 9154   2.017   3.555  14.168  0.3416 -0.7042 -0.1606
   7023SM   H2F 9155   1.931   3.621  14.195  0.2041 -0.6590 -0.6971
   7023SM   H2G 9156   1.983   3.461  14.120 -1.4030  0.0082 -0.3868
   7023SM   C3F 9157   2.109   3.625  14.067  0.4223 -0.0100  0.8283
   7023SM   H3F 9158   2.198   3.559  14.064 -0.3512 -1.0621 -0.1030
   7023SM   H3G 9159   2.140   3.726  14.098  0.4899  0.3008 -0.2035
   7023SM   C4F 9160   2.048   3.628  13.931  0.0536 -0.6843  0.2099
   7023SM   H4F 9161   2.038   3.522  13.900  0.1157 -0.6675  0.1351
   7023SM   H4G 9162   2.122   3.669  13.859 -0.4755 -0.7815 -0.3996
   7023SM   C5F 9163   1.920   3.716  13.924 -0.4052 -0.3300 -0.1171
   7023SM   H5F 9164   1.937   3.814  13.973  0.2478 -0.0143 -0.9442
   7023SM   H5G 9165   1.833   3.663  13.969  0.0394 -1.8764 -0.9797
   7023SM   C6F 9166   1.882   3.744  13.775  0.0195  0.0128 -0.3877
   7023SM   H6F 9167   1.781   3.790  13.776  1.2786  3.1229  2.4737
   7023SM   H6G 9168   1.881   3.655  13.709  2.7679  0.7546 -1.5974
   7023SM   C7F 9169   1.971   3.849  13.707  0.5635  0.2169  0.9995
   7023SM   H7F 9170   2.072   3.804  13.698 -1.1463 -3.5404 -3.6931
   7023SM   H7G 9171   1.965   3.944  13.764  1.6598  0.5731  0.5481
   7023SM   C8F 9172   1.927   3.858  13.563 -1.2367 -0.2969  0.3178
   7023SM   H8F 9173   1.821   3.888  13.570 -1.9254 -2.8867  2.6870
   7023SM   H8G 9174   1.918   3.755  13.522 -3.1215 -0.2038  0.4351
   7023SM   C9F 9175   2.008   3.948  13.470  0.1332  0.3425 -0.4446
   7023SM   H9F 9176   2.111   3.909  13.458  0.3511  0.7714  0.0398
   7023SM   H9G 9177   2.015   4.043  13.527 -1.3255  0.2626 -0.0938
   7023SM  C10F 9178   1.947   3.972  13.326  0.8583 -0.5474 -0.9319
   7023SM  H10F 9179   1.865   4.046  13.330  0.5036 -0.8727 -1.9796
   7023SM  H10G 9180   1.907   3.874  13.290  1.1591 -1.2655  0.5931
   7023SM  C11F 9181   2.056   4.018  13.232  0.0900 -0.4099  0.2032
   7023SM  H11F 9182   2.114   3.924  13.221 -2.5707 -2.5729  2.9491
   7023SM  H11G 9183   2.113   4.092  13.292 -0.7315  2.3552 -2.1462
   7023SM  C12F 9184   2.012   4.084  13.100 -0.2534  0.0122 -0.6109
   7023SM  H12F 9185   1.956   4.177  13.120  0.3032  0.4591 -1.0941
   7023SM  H12G 9186   1.940   4.016  13.050  0.8499 -1.8034  0.1531
   7023SM  C13F 9187   2.125   4.089  13.001  0.3609  0.2778 -0.6090
   7023SM  H13F 9188   2.207   4.142  13.055 -0.6606  0.0658  1.2290
   7023SM  H13G 9189   2.099   4.144  12.909 -4.1825 -2.2816 -1.1095
   7023SM  C14F 9190   2.168   3.952  12.956 -0.1851  0.2739  0.0185
   7023SM  H14F 9191   2.075   3.895  12.934  0.4158 -1.6746  2.1766
   7023SM  H14G 9192   2.216   3.903  13.043 -1.3180  1.4038  1.3232
   7023SM  C15F 9193   2.263   3.957  12.836 -0.0631  0.4096  0.6778
   7023SM  H15F 9194   2.233   4.044  12.774 -2.7759  0.8014  2.4006
   7023SM  H15G 9195   2.244   3.861  12.782  0.7647  0.3450  0.4758
   7023SM  C16F 9196   2.410   3.969  12.873 -0.3987  0.1488 -0.4287
   7023SM  H16F 9197   2.442   3.888  12.942 -0.5296  2.5660  2.7020
   7023SM  H16G 9198   2.422   4.067  12.924 -2.7417  0.7625 -0.9052
   7023SM  C17F 9199   2.492   3.946  12.752  0.3586  0.0284 -0.2425
   7023SM  H17F 9200   2.445   3.981  12.657 -0.0736 -0.7339 -0.3175
   7023SM  H17G 9201   2.497   3.836  12.734 -0.2191  0.0141 -0.3486
   7023SM  C18F 9202   2.641   4.002  12.752  0.4372  0.0105 -0.0622
   7023SM  H18F 9203   2.645   4.108  12.787 -0.3897 -0.0982  0.4018
   7023SM  H18G 9204   2.690   4.002  12.653  2.6696 -2.0500  0.9695
   7023SM  C19F 9205   2.728   3.921  12.841  0.6621  0.1016  0.3186
   7023SM  H19F 9206   2.719   3.812  12.820 -0.9849  0.2098  0.3517
   7023SM  H19G 9207   2.706   3.928  12.949 -1.2395 -1.6848  0.1081
   7023SM  C20F 9208   2.882   3.956  12.827 -0.4670 -0.2828 -0.7463
   7023SM  H20F 9209   2.927   3.911  12.736 -0.0448  1.6364 -1.5422
   7023SM  H20G 9210   2.926   3.905  12.915 -0.3480  0.1416 -0.5609
   7023SM  C21F 9211   2.928   4.106  12.838 -0.0977  0.3082 -0.1614
   7023SM  H21F 9212   2.856   4.157  12.906  0.2617  0.3214  0.2120
   7023SM  H21G 9213   2.918   4.141  12.733  1.0823 -1.6936 -0.9952
   7023SM  C22F 9214   3.070   4.133  12.881 -0.1759 -0.4005  0.0425
   7023SM  H22F 9215   3.093   4.097  12.984  0.2089  1.8225  0.7888
   7023SM  H22G 9216   3.077   4.243  12.892 -1.1655 -0.3727  0.4971
   7023SM  C23F 9217   3.180   4.082  12.779 -0.2751 -0.5701 -0.7591
   7023SM  H23F 9218   3.144   3.983  12.743 -2.6429  0.0481 -0.3120
   7023SM  H23G 9219   3.266   4.055  12.843  0.5014  0.2898 -1.4157
   7023SM  H23H 9220   3.203   4.155  12.699 -0.6915  0.2494 -0.1514
   7123SM     N 9221   1.512   2.746  14.968  0.3929 -0.0915 -0.3465
   7123SM   C15 9222   1.639   2.822  14.952 -0.1215  0.8124 -0.8011
   7123SM  H15A 9223   1.706   2.773  14.882 -0.4330 -1.4835  0.4003
   7123SM  H15B 9224   1.695   2.825  15.045 -1.6221  1.1559  0.1175
   7123SM  H15C 9225   1.615   2.923  14.922 -0.0831  0.9659 -0.3256
   7123SM   C14 9226   1.422   2.811  15.069 -0.0201 -0.1705 -0.0861
   7123SM  H14A 9227   1.326   2.764  15.086 -2.1076  3.4664 -0.5997
   7123SM  H14B 9228   1.394   2.905  15.024 -0.6757  0.5671  1.7263
   7123SM  H14C 9229   1.486   2.829  15.154  0.6663  0.5070 -0.7319
   7123SM   C13 9230   1.441   2.731  14.832  0.1845 -0.6076 -0.4430
   7123SM  H13A 9231   1.429   2.825  14.779  1.1039 -0.8530 -1.0987
   7123SM  H13B 9232   1.337   2.701  14.837 -0.1293 -0.2825 -3.1375
   7123SM  H13C 9233   1.493   2.667  14.762  0.2756  1.1643 -2.0873
   7123SM   C12 9234   1.539   2.606  15.007  0.6124  0.0868  0.0259
   7123SM  H12A 9235   1.599   2.566  14.927  1.1412 -2.8142  1.7212
   7123SM  H12B 9236   1.449   2.547  15.015  0.7213 -0.2517 -1.0765
   7123SM   C11 9237   1.603   2.587  15.143 -0.6079 -0.3166 -0.1719
   7123SM  H11A 9238   1.565   2.494  15.189  0.2065 -1.1577 -1.1329
   7123SM  H11B 9239   1.573   2.668  15.212  1.6635  1.4775 -1.1532
   7123SM     P 9240   1.807   2.448  15.068 -0.0495  0.3236 -0.0458
   7123SM   O13 9241   1.946   2.430  15.115  0.1701 -0.1134  0.6461
   7123SM   O14 9242   1.717   2.332  15.088  0.6582 -0.5164  0.0814
   7123SM   O11 9243   1.810   2.480  14.914 -0.4664  0.0428  0.2080
   7123SM   O12 9244   1.746   2.583  15.124 -0.3485  0.5422  0.3600
   7123SM   C1S 9245   1.916   2.425  14.830 -0.5602  0.2188 -0.1163
   7123SM   H1S 9246   1.895   2.324  14.788 -1.0683  0.2328  0.1110
   7123SM   H1T 9247   2.013   2.424  14.884  0.0760 -1.4104 -1.2111
   7123SM    NF 9248   2.026   2.450  14.603 -0.0111  0.4288  0.1412
   7123SM   HNF 9249   2.117   2.490  14.591  0.4794 -1.1958 -2.4256
   7123SM   C2S 9250   1.947   2.513  14.702  0.2377 -0.2398  0.4203
   7123SM   H2S 9251   1.849   2.527  14.653  0.5814  1.0802  0.0725
   7123SM   C3S 9252   1.988   2.658  14.744  0.2443 -0.2755 -0.1337
   7123SM   H3S 9253   2.092   2.651  14.782  0.5689 -0.5731 -1.0621
   7123SM    O3 9254   1.918   2.716  14.855 -0.3822  0.7967 -0.1047
   7123SM   HO3 9255   1.861   2.648  14.890 -0.8141  1.5205  0.6536
   7123SM   C4S 9256   1.985   2.748  14.613  0.1584  0.4427  0.4052
   7123SM   H4S 9257   2.083   2.793  14.593  0.8801 -0.6351  1.4048
   7123SM   C5S 9258   1.874   2.787  14.541 -0.2076  0.8549  0.3914
   7123SM   H5S 9259   1.771   2.751  14.553 -0.7974  1.0225 -3.1747
   7123SM   C6S 9260   1.896   2.877  14.421  1.2547  0.1767 -0.5901
   7123SM   H6S 9261   1.991   2.933  14.436 -0.0648  1.8115  2.9454
   7123SM   H6T 9262   1.805   2.941  14.423  0.5928 -0.4697  4.3770
   7123SM   C7S 9263   1.901   2.792  14.297  0.9716  0.3701 -0.2349
   7123SM   H7S 9264   1.811   2.726  14.298  1.9129 -0.9803  1.4193
   7123SM   H7T 9265   1.989   2.725  14.285  0.8342  0.2554 -0.6376
   7123SM   C8S 9266   1.889   2.866  14.172  0.2279  0.0357  0.4527
   7123SM   H8S 9267   1.983   2.921  14.149  0.3721 -0.1511  0.5956
   7123SM   H8T 9268   1.805   2.940  14.180  0.0627 -0.1117  0.1219
   7123SM   C9S 9269   1.861   2.765  14.056  0.1430 -0.0280  0.1798
   7123SM   H9S 9270   1.781   2.688  14.052 -0.4256  0.3464  2.7517
   7123SM   H9T 9271   1.948   2.696  14.049 -0.5609 -0.9735  0.4726
   7123SM  C10S 9272   1.850   2.828  13.914  0.4052  0.1047  0.3947
   7123SM  H10S 9273   1.931   2.899  13.890 -0.6802  1.0411 -0.6036
   7123SM  H10T 9274   1.749   2.875  13.910  0.5924  0.5346  0.5742
   7123SM  C11S 9275   1.860   2.717  13.806  0.4306  0.1081  0.3386
   7123SM  H11S 9276   1.786   2.637  13.822 -0.2001  0.6388  0.1171
   7123SM  H11T 9277   1.961   2.672  13.814  0.6582  0.3935 -0.7199
   7123SM  C12S 9278   1.843   2.780  13.668  0.1481  0.5979  0.3513
   7123SM  H12S 9279   1.923   2.855  13.648  2.0407 -1.2278  0.6598
   7123SM  H12T 9280   1.741   2.822  13.665 -0.8654 -1.6719  1.0380
   7123SM  C13S 9281   1.853   2.685  13.547  0.2162  0.8031  0.0141
   7123SM  H13S 9282   1.784   2.598  13.548  1.3041 -0.1560 -1.8719
   7123SM  H13T 9283   1.957   2.645  13.540 -0.1906 -0.0383 -1.6506
   7123SM  C14S 9284   1.830   2.757  13.412  0.0318  0.0342  0.8296
   7123SM  H14S 9285   1.902   2.840  13.397 -1.3155  1.6423  2.7396
   7123SM  H14T 9286   1.728   2.802  13.413  0.7449  2.1762 -3.2543
   7123SM  C15S 9287   1.830   2.658  13.291  0.0720  0.9380 -0.1406
   7123SM  H15S 9288   1.765   2.572  13.318  0.4912  0.5428 -0.3700
   7123SM  H15T 9289   1.933   2.616  13.284 -1.0224 -1.6974 -2.7285
   7123SM  C16S 9290   1.798   2.714  13.153  0.6590  0.0452 -0.3897
   7123SM  H16S 9291   1.874   2.794  13.141  2.6672 -1.7651 -0.3370
   7123SM  H16T 9292   1.692   2.748  13.148 -0.0942 -2.3601 -3.4030
   7123SM  C17S 9293   1.793   2.609  13.039 -0.0862 -0.0792 -0.1320
   7123SM  H17S 9294   1.777   2.663  12.943  0.9871  0.3529 -0.0903
   7123SM  H17T 9295   1.711   2.539  13.064 -0.2343  0.4520  0.9277
   7123SM  C18S 9296   1.920   2.525  13.029 -0.2669  0.3490  0.0992
   7123SM  H18S 9297   1.928   2.473  13.126 -1.0504  0.3812  0.1827
   7123SM  H18T 9298   2.020   2.574  13.023  0.7996 -1.7166  0.3319
   7123SM  H18U 9299   1.914   2.450  12.947  1.4967  2.0786 -1.7462
   7123SM   C1F 9300   2.005   2.340  14.542  0.0906  0.2257  0.5720
   7123SM    OF 9301   1.910   2.269  14.567 -0.0207 -0.1277 -0.0426
   7123SM   C2F 9302   2.095   2.294  14.430 -0.2871  0.2626  0.4265
   7123SM   H2F 9303   2.203   2.306  14.450  0.9543 -3.0583 -3.1110
   7123SM   H2G 9304   2.078   2.359  14.342  0.7411  1.3859  1.0192
   7123SM   C3F 9305   2.071   2.152  14.381 -0.7769  0.1611  0.3987
   7123SM   H3F 9306   2.104   2.149  14.275 -0.4274 -0.0317  0.5108
   7123SM   H3G 9307   1.962   2.138  14.366 -0.6315 -2.2892  1.1668
   7123SM   C4F 9308   2.132   2.035  14.456  0.2898  0.2560  0.5742
   7123SM   H4F 9309   2.118   1.938  14.404 -0.9948 -0.0697  1.4697
   7123SM   H4G 9310   2.082   2.032  14.555  1.0664  1.1911  1.0091
   7123SM   C5F 9311   2.283   2.050  14.476  0.0034 -0.1266 -0.8087
   7123SM   H5F 9312   2.323   1.967  14.537  0.8132  1.4818  0.9406
   7123SM   H5G 9313   2.307   2.134  14.545  2.1084  0.0291 -1.6537
   7123SM   C6F 9314   2.360   2.082  14.342 -0.1190 -0.2084 -0.4686
   7123SM   H6F 9315   2.466   2.106  14.366 -0.6145  1.5212  0.0630
   7123SM   H6G 9316   2.329   2.171  14.284  1.8206  0.7336 -0.1221
   7123SM   C7F 9317   2.371   1.963  14.250  0.4133  0.2670  0.1218
   7123SM   H7F 9318   2.270   1.936  14.214 -0.6165  0.1915  2.8153
   7123SM   H7G 9319   2.412   1.879  14.309  2.0635 -0.1421 -1.5367
   7123SM   C8F 9320   2.473   1.986  14.135  0.6253  0.2412 -0.3334
   7123SM   H8F 9321   2.464   1.893  14.074  2.2407  0.2070 -0.5559
   7123SM   H8G 9322   2.575   1.992  14.180  0.2645  0.8187  0.4358
   7123SM   C9F 9323   2.435   2.103  14.045  0.8048 -0.2698  0.1775
   7123SM   H9F 9324   2.471   2.196  14.094  1.0034 -0.4005  0.2812
   7123SM   H9G 9325   2.325   2.094  14.033  0.9962 -0.4116 -1.8444
   7123SM  C10F 9326   2.497   2.089  13.900  0.0291  0.2786 -0.1441
   7123SM  H10F 9327   2.494   1.987  13.856 -1.3779  0.5336 -0.6695
   7123SM  H10G 9328   2.604   2.121  13.898  0.1314  0.1835  1.8825
   7123SM  C11F 9329   2.412   2.168  13.803  0.0706 -0.7257  1.1063
   7123SM  H11F 9330   2.415   2.275  13.831 -2.0068 -0.5395  0.7741
   7123SM  H11G 9331   2.311   2.126  13.827 -0.9743  0.7697 -0.4218
   7123SM  C12F 9332   2.442   2.140  13.650 -0.3855  0.4387 -0.7701
   7123SM  H12F 9333   2.435   2.030  13.635 -1.0778  0.4173 -0.3699
   7123SM  H12G 9334   2.545   2.179  13.640 -0.1424 -0.0892 -0.3921
   7123SM  C13F 9335   2.353   2.219  13.550 -0.2227 -0.0997  0.1783
   7123SM  H13F 9336   2.373   2.324  13.580 -2.1388  0.8337 -1.6351
   7123SM  H13G 9337   2.244   2.206  13.566 -0.5605 -1.2815 -2.5311
   7123SM  C14F 9338   2.380   2.217  13.404 -0.7881 -0.1255  0.1156
   7123SM  H14F 9339   2.365   2.119  13.353  1.1768 -0.0626 -0.6948
   7123SM  H14G 9340   2.489   2.227  13.383 -0.6376 -0.9510  0.4626
   7123SM  C15F 9341   2.308   2.323  13.331  0.7054 -0.3876 -0.1137
   7123SM  H15F 9342   2.300   2.423  13.380 -1.2556  0.1088 -1.3184
   7123SM  H15G 9343   2.209   2.278  13.311 -0.5724  1.5042  1.5160
   7123SM  C16F 9344   2.384   2.355  13.201 -0.0654 -1.1502 -0.1864
   7123SM  H16F 9345   2.417   2.263  13.149 -0.9836  0.0294 -3.0547
   7123SM  H16G 9346   2.471   2.419  13.228 -0.6368  0.0864 -1.1470
   7123SM  C17F 9347   2.295   2.441  13.108  0.3813 -0.6718  0.2615
   7123SM  H17F 9348   2.272   2.541  13.152  2.4350  0.3240 -0.7777
   7123SM  H17G 9349   2.197   2.391  13.097 -0.5170  0.4136  2.6746
   7123SM  C18F 9350   2.364   2.472  12.982 -0.7157  0.3097  0.6872
   7123SM  H18F 9351   2.408   2.378  12.941  0.3623  2.0365 -2.4648
   7123SM  H18G 9352   2.462   2.519  13.006 -0.7185  1.4632 -1.3661
   7123SM  C19F 9353   2.304   2.554  12.876 -0.2602 -1.0369 -0.1608
   7123SM  H19F 9354   2.270   2.649  12.923  1.4629  0.0141 -0.9401
   7123SM  H19G 9355   2.215   2.503  12.834 -1.1705  0.1736  0.2486
   7123SM  C20F 9356   2.400   2.574  12.763  0.9275  0.0930 -0.5106
   7123SM  H20F 9357   2.426   2.472  12.726  0.8797 -0.6545  1.4041
   7123SM  H20G 9358   2.487   2.632  12.799  0.4903  0.5445 -0.1706
   7123SM  C21F 9359   2.346   2.661  12.644  0.3846  0.1479  0.4525
   7123SM  H21F 9360   2.302   2.754  12.686  0.9878  0.4991  0.3199
   7123SM  H21G 9361   2.266   2.603  12.595 -1.1547  2.6870 -0.2258
   7123SM  C22F 9362   2.449   2.694  12.529  0.7117  0.1830  0.2127
   7123SM  H22F 9363   2.490   2.595  12.501 -0.9996 -0.5163  0.0419
   7123SM  H22G 9364   2.525   2.758  12.580  1.1913 -0.0216 -0.2447
   7123SM  C23F 9365   2.379   2.768  12.407 -0.3280 -0.1669 -0.3904
   7123SM  H23F 9366   2.348   2.872  12.429  2.9854  1.5134 -2.7000
   7123SM  H23G 9367   2.285   2.714  12.382  0.1144 -0.5020 -1.4007
   7123SM  H23H 9368   2.446   2.777  12.319 -0.7138 -2.2745 -0.9546
   7223SM     N 9369   4.277   5.247  14.794 -0.3311  0.3203  0.4090
   7223SM   C15 9370   4.367   5.207  14.678 -0.1008  0.6723 -0.1204
   7223SM  H15A 9371   4.419   5.288  14.630  0.3366 -0.6529 -2.0229
   7223SM  H15B 9372   4.308   5.165  14.597  0.4406  2.0512 -1.2728
   7223SM  H15C 9373   4.440   5.131  14.703 -1.0791 -1.2811 -2.6865
   7223SM   C14 9374   4.221   5.125  14.851  0.4091  0.2179  0.0460
   7223SM  H14A 9375   4.284   5.039  14.870  1.7791  1.1303 -0.2209
   7223SM  H14B 9376   4.139   5.087  14.792 -0.1203 -1.6254  1.8412
   7223SM  H14C 9377   4.175   5.149  14.946  1.8708 -2.0589  1.4173
   7223SM   C13 9378   4.363   5.317  14.893  0.3085 -0.2573 -1.0697
   7223SM  H13A 9379   4.423   5.389  14.839 -0.0464 -1.2044 -2.8294
   7223SM  H13B 9380   4.426   5.247  14.947 -0.8951  1.2260  2.5368
   7223SM  H13C 9381   4.302   5.360  14.971 -0.3506 -0.4400 -1.4746
   7223SM   C12 9382   4.162   5.336  14.737  0.4029 -0.5381  0.0671
   7223SM  H12A 9383   4.092   5.280  14.677 -2.1033  0.1786  2.1237
   7223SM  H12B 9384   4.200   5.417  14.675 -1.2910  0.8908  0.8049
   7223SM   C11 9385   4.062   5.404  14.838  0.3844 -0.1211  0.1569
   7223SM  H11A 9386   4.024   5.324  14.906 -1.1641 -0.2488 -0.8100
   7223SM  H11B 9387   3.981   5.440  14.772  1.4604  0.1242 -1.0640
   7223SM     P 9388   4.108   5.661  14.854  0.1846  0.1692  0.0278
   7223SM   O13 9389   3.986   5.703  14.918 -0.2966 -0.1240 -0.6329
   7223SM   O14 9390   4.224   5.749  14.871 -0.5988  0.0288  0.1624
   7223SM   O11 9391   4.080   5.649  14.703  0.3261 -0.1702 -0.1943
   7223SM   O12 9392   4.130   5.512  14.902 -0.0144  0.3811  0.4460
   7223SM   C1S 9393   4.177   5.682  14.610  0.4346 -0.2971  0.4729
   7223SM   H1S 9394   4.283   5.663  14.639  0.9887  0.1998 -1.0815
   7223SM   H1T 9395   4.171   5.792  14.595  0.5414 -0.3313  0.1663
   7223SM    NF 9396   4.282   5.640  14.391  0.3706  0.5370  0.0481
   7223SM   HNF 9397   4.289   5.722  14.335  1.7783  1.0213  0.8642
   7223SM   C2S 9398   4.160   5.616  14.467  0.0858  0.1502 -0.1116
   7223SM   H2S 9399   4.137   5.508  14.478  1.7674 -0.2127  0.0691
   7223SM   C3S 9400   4.035   5.676  14.405 -0.0257  0.4064  0.6349
   7223SM   H3S 9401   4.052   5.786  14.407  0.9470  0.3125 -0.7000
   7223SM    O3 9402   3.915   5.652  14.470 -0.6055  0.3814  0.2355
   7223SM   HO3 9403   3.951   5.619  14.553 -1.3836 -0.8794  0.0926
   7223SM   C4S 9404   4.018   5.647  14.258 -0.3319 -0.7675  0.0732
   7223SM   H4S 9405   4.018   5.542  14.225 -1.3192 -1.0055  0.7795
   7223SM   C5S 9406   4.017   5.745  14.165 -1.1675  0.8507  0.9983
   7223SM   H5S 9407   4.021   5.852  14.189  1.9495  1.1402 -0.4135
   7223SM   C6S 9408   4.008   5.714  14.015 -0.5196  0.3398  0.0495
   7223SM   H6S 9409   3.902   5.737  13.990 -0.7161 -1.3511 -0.8185
   7223SM   H6T 9410   4.022   5.608  13.983 -1.5946 -0.4836  2.1023
   7223SM   C7S 9411   4.090   5.805  13.924 -0.4847  0.5865 -0.2359
   7223SM   H7S 9412   4.195   5.769  13.922 -1.1266 -1.4466 -0.9007
   7223SM   H7T 9413   4.086   5.906  13.968  1.0026 -0.2790  2.0478
   7223SM   C8S 9414   4.034   5.816  13.779 -1.0806 -0.1307  0.1844
   7223SM   H8S 9415   4.095   5.901  13.742  0.9480 -1.4228  0.3793
   7223SM   H8T 9416   3.927   5.846  13.778 -1.1497 -0.3829 -0.0701
   7223SM   C9S 9417   4.048   5.699  13.688 -0.0419  0.4262  0.5492
   7223SM   H9S 9418   3.990   5.619  13.740  0.1509  1.2162  2.0463
   7223SM   H9T 9419   4.150   5.656  13.674 -0.9461 -1.1294 -1.9171
   7223SM  C10S 9420   4.002   5.718  13.545 -0.0784 -0.2554  0.5316
   7223SM  H10S 9421   4.094   5.745  13.488  1.4112  0.0584  2.9655
   7223SM  H10T 9422   3.918   5.791  13.539 -0.4263 -0.6446  0.6840
   7223SM  C11S 9423   3.950   5.584  13.494  0.7171  0.3460 -0.3321
   7223SM  H11S 9424   3.869   5.545  13.559  0.7512 -1.4964 -1.3257
   7223SM  H11T 9425   4.040   5.519  13.495  0.8060  0.4051 -1.6945
   7223SM  C12S 9426   3.908   5.583  13.340  0.2469  0.3966 -0.3152
   7223SM  H12S 9427   3.991   5.632  13.284  0.3126  0.0391 -0.5324
   7223SM  H12T 9428   3.818   5.646  13.331  1.1576  1.7968  0.0502
   7223SM  C13S 9429   3.873   5.447  13.289 -0.3613  0.2654  0.1062
   7223SM  H13S 9430   3.796   5.413  13.361  2.6093 -3.0255  2.0993
   7223SM  H13T 9431   3.966   5.386  13.301  0.5611  1.3521 -1.2204
   7223SM  C14S 9432   3.832   5.441  13.141 -0.2294 -0.4075 -0.0064
   7223SM  H14S 9433   3.754   5.517  13.117  1.6428  1.2517 -1.2572
   7223SM  H14T 9434   3.784   5.343  13.118 -2.7897  0.5063  1.0756
   7223SM  C15S 9435   3.943   5.468  13.041  0.1789 -0.8395  0.9939
   7223SM  H15S 9436   4.027   5.400  13.068  0.5274 -0.9236 -0.2519
   7223SM  H15T 9437   3.977   5.574  13.038 -0.8008 -0.5416 -0.5681
   7223SM  C16S 9438   3.902   5.436  12.898 -0.5797 -0.9441 -0.2542
   7223SM  H16S 9439   3.837   5.520  12.865  0.8155  0.0941 -0.4640
   7223SM  H16T 9440   3.839   5.345  12.891 -0.3409 -1.1566  0.3391
   7223SM  C17S 9441   4.033   5.419  12.815  0.3524 -0.6514 -0.2655
   7223SM  H17S 9442   4.080   5.331  12.865  1.1818 -1.2323 -1.9895
   7223SM  H17T 9443   4.085   5.514  12.838 -0.2119 -0.2573 -0.5852
   7223SM  C18S 9444   4.033   5.377  12.667 -0.3661 -0.2155  0.3322
   7223SM  H18S 9445   4.135   5.356  12.629 -0.2803  1.2418 -0.3011
   7223SM  H18T 9446   3.975   5.451  12.607 -0.1480 -0.0139  0.3709
   7223SM  H18U 9447   3.991   5.276  12.650 -2.1516  0.3891  0.8457
   7223SM   C1F 9448   4.387   5.557  14.413 -0.2775  0.3550 -0.0739
   7223SM    OF 9449   4.389   5.468  14.501 -0.4193  0.0885  0.1475
   7223SM   C2F 9450   4.503   5.574  14.315 -0.2308  0.0064  0.1568
   7223SM   H2F 9451   4.554   5.480  14.285  0.7185  1.3776 -3.0368
   7223SM   H2G 9452   4.570   5.649  14.361 -0.2061 -0.4215  0.8201
   7223SM   C3F 9453   4.462   5.646  14.181  0.5187 -0.7179 -1.3003
   7223SM   H3F 9454   4.454   5.754  14.205  0.9235 -0.9106 -0.2755
   7223SM   H3G 9455   4.367   5.607  14.136  0.8576 -3.3424  0.0982
   7223SM   C4F 9456   4.567   5.636  14.073  0.0764  0.8882  0.1086
   7223SM   H4F 9457   4.537   5.665  13.970  2.3361  2.6336 -0.1563
   7223SM   H4G 9458   4.586   5.527  14.064 -0.1491  0.9616 -1.7445
   7223SM   C5F 9459   4.703   5.705  14.097 -0.0740  0.2532  0.5579
   7223SM   H5F 9460   4.747   5.679  14.196 -1.5755 -0.0321  1.1736
   7223SM   H5G 9461   4.685   5.814  14.110  0.3993  0.4791 -0.5527
   7223SM   C6F 9462   4.795   5.691  13.973  0.1500  0.6358 -0.1436
   7223SM   H6F 9463   4.800   5.587  13.934  0.5868 -0.5068  2.6523
   7223SM   H6G 9464   4.895   5.714  14.015  0.0333 -0.8724  1.0753
   7223SM   C7F 9465   4.753   5.784  13.857  0.4346 -0.1538  0.7098
   7223SM   H7F 9466   4.738   5.887  13.894 -1.5143  0.0176 -0.4329
   7223SM   H7G 9467   4.649   5.761  13.824 -0.1271  0.7975  1.7333
   7223SM   C8F 9468   4.853   5.786  13.743 -0.4565  0.8813  0.0686
   7223SM   H8F 9469   4.954   5.819  13.775 -0.8885 -0.0951  2.6971
   7223SM   H8G 9470   4.807   5.845  13.662  0.6658  0.3047 -1.0350
   7223SM   C9F 9471   4.870   5.640  13.692  0.2430  0.0567  0.6943
   7223SM   H9F 9472   4.768   5.598  13.694  0.1745 -0.3416 -3.0936
   7223SM   H9G 9473   4.942   5.588  13.759  1.6018  2.5400  1.3312
   7223SM  C10F 9474   4.919   5.632  13.542  0.4130 -0.5971 -0.2542
   7223SM  H10F 9475   4.940   5.524  13.525  1.9350 -0.5008  0.8333
   7223SM  H10G 9476   5.019   5.680  13.529 -0.3542  1.1330 -0.0284
   7223SM  C11F 9477   4.820   5.676  13.430  0.4057  0.2063 -0.0373
   7223SM  H11F 9478   4.822   5.787  13.436 -0.9742  0.2843 -0.5885
   7223SM  H11G 9479   4.719   5.639  13.457  0.4632  1.2969  1.8150
   7223SM  C12F 9480   4.853   5.628  13.289  0.1511  0.3226  0.3240
   7223SM  H12F 9481   4.819   5.525  13.265  0.3739  0.6977 -1.7364
   7223SM  H12G 9482   4.963   5.635  13.276 -0.0337  0.7055 -1.2545
   7223SM  C13F 9483   4.789   5.706  13.171  0.3252 -0.6216  0.1124
   7223SM  H13F 9484   4.795   5.813  13.201  0.0910  0.5806 -3.6603
   7223SM  H13G 9485   4.682   5.678  13.169  0.2070 -0.1341 -0.5548
   7223SM  C14F 9486   4.850   5.690  13.035  0.2697 -0.1422  0.3582
   7223SM  H14F 9487   4.959   5.708  13.041  0.8925 -2.8031 -1.2812
   7223SM  H14G 9488   4.801   5.758  12.962 -0.1551  0.0730  0.8339
   7223SM  C15F 9489   4.836   5.552  12.982 -0.0889  0.3396  0.7156
   7223SM  H15F 9490   4.727   5.536  12.966 -0.1148  1.3082 -0.1818
   7223SM  H15G 9491   4.865   5.472  13.053  0.2104 -0.5480 -0.3805
   7223SM  C16F 9492   4.902   5.530  12.843  0.1298 -0.0063  0.2417
   7223SM  H16F 9493   5.011   5.550  12.859  0.9041 -4.0604  0.9979
   7223SM  H16G 9494   4.859   5.603  12.770 -1.5209  0.4132  1.5730
   7223SM  C17F 9495   4.870   5.392  12.784  0.0567  0.2556  0.1546
   7223SM  H17F 9496   4.761   5.369  12.784  0.1440 -0.5566 -2.5249
   7223SM  H17G 9497   4.927   5.332  12.859 -1.6394 -0.3419  1.0225
   7223SM  C18F 9498   4.934   5.365  12.642  0.2302  0.3973 -0.5317
   7223SM  H18F 9499   4.882   5.413  12.557  0.9003 -0.0972 -1.2305
   7223SM  H18G 9500   4.921   5.255  12.638  1.0640  0.2377  0.5210
   7223SM  C19F 9501   5.085   5.396  12.647  0.7405 -1.2978  0.3837
   7223SM  H19F 9502   5.126   5.353  12.741 -0.5236  1.6613  2.4576
   7223SM  H19G 9503   5.104   5.506  12.655  1.3962 -1.5247  3.0610
   7223SM  C20F 9504   5.164   5.355  12.526 -0.3970 -0.1495 -0.3117
   7223SM  H20F 9505   5.121   5.413  12.442 -1.0670  1.5230  1.1261
   7223SM  H20G 9506   5.148   5.247  12.505 -0.8349 -0.5925  1.9530
   7223SM  C21F 9507   5.319   5.373  12.534  0.5267  0.2000 -0.0148
   7223SM  H21F 9508   5.363   5.307  12.612 -3.7015 -0.7586  1.8413
   7223SM  H21G 9509   5.325   5.474  12.581 -0.8524  0.5240 -0.4803
   7223SM  C22F 9510   5.389   5.365  12.401 -0.3639 -0.3903  0.2851
   7223SM  H22F 9511   5.493   5.400  12.416 -0.1770 -0.7912 -0.0533
   7223SM  H22G 9512   5.330   5.432  12.335 -0.5746  0.8528  1.6938
   7223SM  C23F 9513   5.382   5.224  12.346 -0.0744 -0.9574  0.2958
   7223SM  H23F 9514   5.286   5.196  12.297  0.3432 -0.9239 -0.5711
   7223SM  H23G 9515   5.403   5.162  12.435 -3.7838  1.7240  3.3904
   7223SM  H23H 9516   5.453   5.194  12.266  0.9792  0.4389  0.6723
   7323SM     N 9517   2.919   3.305  15.444 -0.4204  0.5021  0.4177
   7323SM   C15 9518   2.785   3.269  15.404  0.1930 -0.2551 -0.5983
   7323SM  H15A 9519   2.727   3.250  15.493  0.6492 -1.7335 -0.5902
   7323SM  H15B 9520   2.785   3.170  15.361  1.3611 -0.3633 -0.3851
   7323SM  H15C 9521   2.739   3.341  15.337 -0.0121 -0.9164 -1.1810
   7323SM   C14 9522   2.912   3.447  15.514 -0.5455  0.8014  0.9244
   7323SM  H14A 9523   3.013   3.486  15.513  0.9999 -2.6590 -1.9908
   7323SM  H14B 9524   2.871   3.443  15.614  1.6550  2.4984  1.9969
   7323SM  H14C 9525   2.848   3.514  15.457 -0.1935  0.0997 -0.3332
   7323SM   C13 9526   2.963   3.212  15.548 -0.1571  0.1970 -0.0431
   7323SM  H13A 9527   2.888   3.207  15.625 -0.7361 -3.5733 -0.6471
   7323SM  H13B 9528   3.054   3.237  15.601  1.5333  0.1091 -2.6965
   7323SM  H13C 9529   2.973   3.111  15.510  1.3225  0.5663 -0.6931
   7323SM   C12 9530   3.022   3.313  15.328 -0.4805  0.2822 -0.1625
   7323SM  H12A 9531   3.113   3.317  15.387 -0.5893 -1.3712  0.1588
   7323SM  H12B 9532   3.009   3.407  15.277 -2.0401  1.0226  1.4883
   7323SM   C11 9533   3.034   3.191  15.228  0.1350  0.1433 -0.1199
   7323SM  H11A 9534   3.057   3.096  15.281 -0.3103 -0.8306 -1.6079
   7323SM  H11B 9535   3.130   3.215  15.178 -0.1742 -2.1116 -2.0135
   7323SM     P 9536   2.915   3.270  15.023 -0.3172  0.1408 -0.2821
   7323SM   O13 9537   2.781   3.240  14.964 -0.2329 -0.5081 -0.2770
   7323SM   O14 9538   2.945   3.411  15.062 -0.0262  0.2636  0.2179
   7323SM   O11 9539   3.024   3.209  14.933 -0.6980  0.3087  0.3395
   7323SM   O12 9540   2.918   3.175  15.143  0.6352  0.3238 -0.3141
   7323SM   C1S 9541   2.983   3.089  14.859 -0.0571  0.0135 -0.2330
   7323SM   H1S 9542   2.926   3.126  14.771 -0.0967 -1.6529 -0.9382
   7323SM   H1T 9543   2.926   3.014  14.918 -1.3494  1.6365  0.6881
   7323SM    NF 9544   3.070   2.922  14.695  0.3246  0.5340 -0.6248
   7323SM   HNF 9545   3.058   2.827  14.724 -1.1367  1.2293  1.2521
   7323SM   C2S 9546   3.111   3.019  14.790 -0.1577 -0.1103  0.0907
   7323SM   H2S 9547   3.166   3.097  14.731 -0.0226  0.4344  0.9218
   7323SM   C3S 9548   3.212   2.965  14.898  0.3192  0.0006  0.4821
   7323SM   H3S 9549   3.158   2.887  14.955 -0.9104  1.0067  0.7557
   7323SM    O3 9550   3.247   3.060  15.003 -0.2549  0.0392  0.3763
   7323SM   HO3 9551   3.187   3.134  14.993  0.3408  0.5944  0.7954
   7323SM   C4S 9552   3.340   2.910  14.834  0.7433  0.5777  0.0758
   7323SM   H4S 9553   3.334   2.801  14.821  1.6579  0.2379  2.0649
   7323SM   C5S 9554   3.449   2.975  14.791 -0.0575 -1.2402  0.1519
   7323SM   H5S 9555   3.450   3.082  14.818 -2.3161 -0.2915 -2.9488
   7323SM   C6S 9556   3.558   2.924  14.708 -0.3602  0.8178 -0.6008
   7323SM   H6S 9557   3.555   2.815  14.685  0.7568  0.1907  1.8001
   7323SM   H6T 9558   3.658   2.924  14.757 -0.3344 -1.4430 -0.5300
   7323SM   C7S 9559   3.572   2.998  14.576  0.0734  0.2835 -0.2906
   7323SM   H7S 9560   3.595   3.102  14.607  3.1797 -0.2634 -0.4118
   7323SM   H7T 9561   3.477   2.996  14.520 -0.7348 -2.5088  0.9936
   7323SM   C8S 9562   3.699   2.952  14.505 -0.4764 -0.1849 -0.1516
   7323SM   H8S 9563   3.686   2.846  14.472  0.8999 -0.7683  1.0717
   7323SM   H8T 9564   3.778   2.963  14.582 -1.4532  0.2404  0.8199
   7323SM   C9S 9565   3.733   3.032  14.376  0.0270 -0.3782  0.1856
   7323SM   H9S 9566   3.828   2.987  14.338  1.1409  0.7025  1.5938
   7323SM   H9T 9567   3.745   3.140  14.396 -0.0406 -0.1430 -0.9817
   7323SM  C10S 9568   3.638   3.010  14.255  0.3395  0.2550 -0.0017
   7323SM  H10S 9569   3.536   3.048  14.280 -0.3566 -1.2998 -0.3056
   7323SM  H10T 9570   3.625   2.903  14.227 -3.8247  1.2117 -2.6848
   7323SM  C11S 9571   3.687   3.067  14.122  0.9173  0.2508  0.0353
   7323SM  H11S 9572   3.768   2.999  14.088  0.8561  0.2003 -0.0103
   7323SM  H11T 9573   3.722   3.169  14.147 -0.2796  1.0752 -1.4640
   7323SM  C12S 9574   3.585   3.083  14.012 -0.1434  0.6382 -0.1832
   7323SM  H12S 9575   3.506   3.157  14.037 -1.6894  0.0217 -2.8747
   7323SM  H12T 9576   3.526   2.991  13.994 -0.2402  0.3025  1.6641
   7323SM  C13S 9577   3.654   3.112  13.883 -0.7097  0.1194 -0.9009
   7323SM  H13S 9578   3.722   3.026  13.863  0.7905  0.3886  2.3607
   7323SM  H13T 9579   3.726   3.197  13.887  0.7920 -1.1266  2.4258
   7323SM  C14S 9580   3.551   3.123  13.769 -0.3878 -0.0006  0.0417
   7323SM  H14S 9581   3.491   3.214  13.792 -0.8114 -0.1472 -0.4777
   7323SM  H14T 9582   3.499   3.026  13.752 -0.7607 -0.0423  1.3051
   7323SM  C15S 9583   3.625   3.144  13.631 -0.6272  0.2598 -0.0922
   7323SM  H15S 9584   3.695   3.061  13.609 -0.1712  0.2322  1.4249
   7323SM  H15T 9585   3.683   3.238  13.630  0.2010 -0.2100 -2.2603
   7323SM  C16S 9586   3.529   3.172  13.523  0.1824  0.3059  0.3112
   7323SM  H16S 9587   3.471   3.264  13.547 -0.6524 -0.1952  0.2354
   7323SM  H16T 9588   3.444   3.101  13.514 -0.1557  0.9047 -1.6941
   7323SM  C17S 9589   3.580   3.190  13.379 -0.3979 -0.7856  0.6144
   7323SM  H17S 9590   3.676   3.246  13.382 -1.3769  0.9931  0.1786
   7323SM  H17T 9591   3.512   3.263  13.330  1.7798  0.4624 -0.7045
   7323SM  C18S 9592   3.598   3.057  13.312  0.1641 -0.4444 -0.0945
   7323SM  H18S 9593   3.509   2.991  13.326  1.4643 -2.0039  1.2423
   7323SM  H18T 9594   3.684   3.000  13.353  0.9134  1.6122  1.3694
   7323SM  H18U 9595   3.617   3.060  13.203  2.6250 -0.2516  0.2884
   7323SM   C1F 9596   2.993   2.954  14.591 -0.1900 -0.0012  0.0413
   7323SM    OF 9597   3.000   3.067  14.545  0.2363  0.5601 -0.0104
   7323SM   C2F 9598   2.929   2.836  14.524  0.2806  0.1130 -0.0687
   7323SM   H2F 9599   2.870   2.785  14.603  1.2269  2.6403  2.4546
   7323SM   H2G 9600   3.011   2.781  14.472 -1.6123 -1.1691 -1.8796
   7323SM   C3F 9601   2.836   2.866  14.406 -0.6724  0.0257  0.0173
   7323SM   H3F 9602   2.907   2.915  14.336  1.5912 -0.2045  2.0081
   7323SM   H3G 9603   2.765   2.947  14.433 -1.3403 -0.6715  0.3858
   7323SM   C4F 9604   2.754   2.749  14.351 -0.2039 -0.7925  0.6601
   7323SM   H4F 9605   2.690   2.696  14.425 -2.8997  0.2502 -0.7984
   7323SM   H4G 9606   2.822   2.677  14.300 -0.2631  0.5437 -1.3673
   7323SM   C5F 9607   2.667   2.799  14.233 -0.0150 -0.3972 -0.4911
   7323SM   H5F 9608   2.586   2.861  14.278 -0.0215 -0.7300 -0.0450
   7323SM   H5G 9609   2.622   2.711  14.183 -2.2890  0.8339 -0.7717
   7323SM   C6F 9610   2.729   2.877  14.118 -0.9093  0.1043 -0.1416
   7323SM   H6F 9611   2.821   2.823  14.087 -0.1244  2.6850 -2.8878
   7323SM   H6G 9612   2.750   2.979  14.157  1.7133 -0.2559 -0.4102
   7323SM   C7F 9613   2.641   2.895  13.997  0.3367  0.3555 -0.0484
   7323SM   H7F 9614   2.548   2.951  14.020 -0.8238 -0.6355 -2.0227
   7323SM   H7G 9615   2.601   2.804  13.946 -1.4043  2.6834 -3.2363
   7323SM   C8F 9616   2.712   2.974  13.890  0.6358  0.2232 -0.1521
   7323SM   H8F 9617   2.800   2.922  13.848 -0.3765 -1.5723 -0.1534
   7323SM   H8G 9618   2.742   3.074  13.930 -1.0634  0.6772  0.0805
   7323SM   C9F 9619   2.613   2.990  13.774 -0.7717 -0.1499  0.0173
   7323SM   H9F 9620   2.512   3.014  13.813 -0.7879 -2.9109  1.9622
   7323SM   H9G 9621   2.621   2.894  13.720  0.8754 -0.1768  0.2632
   7323SM  C10F 9622   2.647   3.098  13.667 -0.4174 -0.1274 -0.1077
   7323SM  H10F 9623   2.750   3.076  13.632 -0.3537  2.7610 -2.0565
   7323SM  H10G 9624   2.654   3.195  13.721  0.8085 -0.3274  0.1258
   7323SM  C11F 9625   2.556   3.101  13.549  0.2481  0.2818  0.3939
   7323SM  H11F 9626   2.452   3.100  13.589  0.5788  0.1792  1.2814
   7323SM  H11G 9627   2.565   3.000  13.503  0.1384 -0.1453  1.2819
   7323SM  C12F 9628   2.580   3.221  13.463  0.1064  0.1331 -0.3230
   7323SM  H12F 9629   2.686   3.213  13.434  0.5244 -1.4688  1.4768
   7323SM  H12G 9630   2.560   3.314  13.522 -0.8699 -1.3461  1.8041
   7323SM  C13F 9631   2.490   3.214  13.340 -0.7264  0.1674 -1.1488
   7323SM  H13F 9632   2.381   3.209  13.363 -0.4336  1.9193  0.9050
   7323SM  H13G 9633   2.500   3.113  13.293 -3.2964  0.7939 -3.3112
   7323SM  C14F 9634   2.519   3.325  13.243 -0.3160 -0.4572  0.0341
   7323SM  H14F 9635   2.616   3.301  13.194 -1.3584  0.4135 -2.6638
   7323SM  H14G 9636   2.534   3.428  13.284 -0.2486 -0.8061  0.9073
   7323SM  C15F 9637   2.428   3.319  13.123 -0.3699 -0.9469 -0.3597
   7323SM  H15F 9638   2.322   3.328  13.157 -0.3313  0.2055 -0.5239
   7323SM  H15G 9639   2.437   3.216  13.083  1.6080 -0.7140 -0.6110
   7323SM  C16F 9640   2.455   3.416  13.013 -0.8920  0.7373 -0.1958
   7323SM  H16F 9641   2.562   3.416  12.985 -0.8023  0.2579  0.1283
   7323SM  H16G 9642   2.442   3.521  13.048  1.2679  1.0631 -0.2743
   7323SM  C17F 9643   2.369   3.386  12.893 -0.3462 -0.2111 -0.8113
   7323SM  H17F 9644   2.263   3.363  12.918 -0.2523 -0.8528 -0.9622
   7323SM  H17G 9645   2.406   3.294  12.841 -2.3373 -1.1544 -0.6744
   7323SM  C18F 9646   2.375   3.497  12.783  0.1287 -0.2450  0.2159
   7323SM  H18F 9647   2.483   3.517  12.765 -0.0415 -1.2342 -2.2876
   7323SM  H18G 9648   2.326   3.589  12.821  4.0785  1.1189  2.5954
   7323SM  C19F 9649   2.313   3.446  12.651  0.0095  0.1253  0.1972
   7323SM  H19F 9650   2.212   3.415  12.686 -0.6739  0.7178 -1.1776
   7323SM  H19G 9651   2.363   3.356  12.609 -0.4302  0.8504 -1.9869
   7323SM  C20F 9652   2.292   3.548  12.532  0.3836  0.8490 -0.3509
   7323SM  H20F 9653   2.199   3.607  12.549  0.1121  0.0830  1.0489
   7323SM  H20G 9654   2.259   3.483  12.449 -1.7800  0.8434  0.4347
   7323SM  C21F 9655   2.420   3.625  12.497  0.3625 -0.9309 -0.3949
   7323SM  H21F 9656   2.473   3.660  12.588  2.1821 -0.4731 -1.5893
   7323SM  H21G 9657   2.393   3.714  12.436 -0.7094 -0.1897  1.0867
   7323SM  C22F 9658   2.513   3.527  12.426  0.0348  0.2704 -0.5587
   7323SM  H22F 9659   2.518   3.440  12.495 -3.2473  1.1716  1.0159
   7323SM  H22G 9660   2.614   3.571  12.432  0.0368  0.1648  0.1790
   7323SM  C23F 9661   2.471   3.495  12.284 -0.2999 -0.0898 -0.3999
   7323SM  H23F 9662   2.548   3.429  12.239 -0.3948  0.0695 -0.8070
   7323SM  H23G 9663   2.440   3.585  12.227  0.6883  0.8256  0.4668
   7323SM  H23H 9664   2.381   3.431  12.289 -0.2777 -0.0762  0.3520
   7423SM     N 9665   6.495   6.314  14.835 -0.0963  0.0444 -0.2644
   7423SM   C15 9666   6.637   6.261  14.847  0.2500  0.3959 -0.7347
   7423SM  H15A 9667   6.659   6.236  14.949  0.0114  0.2867 -0.7099
   7423SM  H15B 9668   6.711   6.332  14.813  1.4953 -0.8840 -0.8199
   7423SM  H15C 9669   6.643   6.164  14.799 -1.4561 -1.0278  1.7108
   7423SM   C14 9670   6.461   6.331  14.693  0.0192  0.8247  0.2773
   7423SM  H14A 9671   6.361   6.371  14.682 -0.2015 -0.0512 -1.1651
   7423SM  H14B 9672   6.476   6.241  14.636 -2.1529  1.7023 -1.8807
   7423SM  H14C 9673   6.529   6.401  14.646  0.6616 -0.6387 -1.0875
   7423SM   C13 9674   6.406   6.224  14.903 -0.6524 -0.3280 -0.3907
   7423SM  H13A 9675   6.432   6.224  15.008 -0.7757 -2.0326 -0.3387
   7423SM  H13B 9676   6.428   6.121  14.878 -0.7160 -0.4958  0.2175
   7423SM  H13C 9677   6.299   6.234  14.888 -0.6585 -0.6814 -0.5795
   7423SM   C12 9678   6.483   6.449  14.903  0.5611 -0.1081  0.0974
   7423SM  H12A 9679   6.534   6.522  14.840  1.0803 -1.4744 -1.1184
   7423SM  H12B 9680   6.531   6.461  14.999 -0.3706  0.7452  0.4742
   7423SM   C11 9681   6.333   6.505  14.915 -0.5087  0.3796  1.1022
   7423SM  H11A 9682   6.340   6.599  14.973 -0.3932 -0.9426  3.3606
   7423SM  H11B 9683   6.276   6.435  14.981 -0.5771  0.2571  0.9139
   7423SM     P 9684   6.242   6.643  14.711  0.2770 -0.2517  0.0580
   7423SM   O13 9685   6.123   6.717  14.758 -0.0932  0.3226 -0.2624
   7423SM   O14 9686   6.370   6.716  14.691  0.0606  0.0733 -0.3218
   7423SM   O11 9687   6.210   6.587  14.568 -0.0638 -0.4734 -0.1399
   7423SM   O12 9688   6.258   6.507  14.794  0.1317 -0.3610 -0.1861
   7423SM   C1S 9689   6.077   6.536  14.541 -0.4911  0.3034 -0.7208
   7423SM   H1S 9690   6.004   6.616  14.561 -1.9514 -0.5446 -2.3578
   7423SM   H1T 9691   6.056   6.448  14.606  2.0128 -2.0158 -2.7504
   7423SM    NF 9692   5.942   6.482  14.345  0.0388 -0.8510 -0.3677
   7423SM   HNF 9693   5.902   6.390  14.349  1.3765 -1.4174  1.0242
   7423SM   C2S 9694   6.079   6.492  14.397 -0.6443  0.1615  0.0103
   7423SM   H2S 9695   6.132   6.566  14.335  1.0600 -2.6089 -2.1054
   7423SM   C3S 9696   6.164   6.360  14.392 -0.6388  0.0506  0.5509
   7423SM   H3S 9697   6.121   6.284  14.461  1.3266 -0.9935  0.6957
   7423SM    O3 9698   6.294   6.376  14.443 -0.1084 -0.0256 -0.0470
   7423SM   HO3 9699   6.308   6.468  14.465 -1.3073  0.0309  0.5418
   7423SM   C4S 9700   6.171   6.293  14.258 -0.0768  0.2772  0.2431
   7423SM   H4S 9701   6.082   6.237  14.224  0.0904  0.6187 -0.7880
   7423SM   C5S 9702   6.267   6.301  14.166 -0.5553 -0.3699  0.1628
   7423SM   H5S 9703   6.356   6.359  14.199 -0.5167 -0.8445  0.9207
   7423SM   C6S 9704   6.263   6.225  14.035 -0.7099  0.1301  0.9596
   7423SM   H6S 9705   6.186   6.144  14.032  1.2513 -1.8244 -1.6345
   7423SM   H6T 9706   6.368   6.195  14.011 -0.2388  2.1957  0.2377
   7423SM   C7S 9707   6.212   6.321  13.921  1.0078 -0.4712 -0.2593
   7423SM   H7S 9708   6.288   6.401  13.908  0.8377 -0.4066 -0.9135
   7423SM   H7T 9709   6.112   6.360  13.949  1.4926 -1.0551  2.5885
   7423SM   C8S 9710   6.196   6.243  13.788  0.2228 -0.0634 -1.0261
   7423SM   H8S 9711   6.143   6.148  13.811 -0.8220  0.5082 -0.9517
   7423SM   H8T 9712   6.298   6.213  13.758 -0.3302 -1.9822 -1.0853
   7423SM   C9S 9713   6.136   6.312  13.672  0.1483  0.5444  0.3968
   7423SM   H9S 9714   6.177   6.413  13.652 -0.2903  0.3753 -1.6066
   7423SM   H9T 9715   6.028   6.338  13.676 -0.2048 -0.2264 -2.0825
   7423SM  C10S 9716   6.160   6.233  13.542 -1.0406  0.7996  0.3683
   7423SM  H10S 9717   6.089   6.148  13.535 -0.5696  0.5291 -1.8363
   7423SM  H10T 9718   6.266   6.199  13.538 -0.5656  2.2608  0.1066
   7423SM  C11S 9719   6.131   6.326  13.431  0.1625 -0.2340 -0.2660
   7423SM  H11S 9720   6.218   6.391  13.411 -0.9727  1.4016 -0.0800
   7423SM  H11T 9721   6.050   6.395  13.463  2.4709  1.7018  1.8141
   7423SM  C12S 9722   6.112   6.254  13.296 -0.2380  0.1684 -0.0491
   7423SM  H12S 9723   6.025   6.186  13.286 -0.5076  0.3261  1.1028
   7423SM  H12T 9724   6.200   6.187  13.292 -0.0125  0.2614  2.3025
   7423SM  C13S 9725   6.121   6.356  13.174  0.0855 -0.0262 -0.4240
   7423SM  H13S 9726   6.189   6.426  13.227 -1.4276 -1.2460  3.4694
   7423SM  H13T 9727   6.023   6.407  13.160 -0.0598  0.0674  0.8855
   7423SM  C14S 9728   6.169   6.283  13.053 -0.5396 -0.9141  0.3171
   7423SM  H14S 9729   6.105   6.203  13.009 -0.8429 -0.0803 -0.8273
   7423SM  H14T 9730   6.267   6.241  13.084  0.3572  3.0717  3.6781
   7423SM  C15S 9731   6.210   6.385  12.950 -0.2687 -0.0454 -0.0830
   7423SM  H15S 9732   6.277   6.458  12.999 -0.9609  1.0040 -0.6606
   7423SM  H15T 9733   6.124   6.436  12.903 -2.0288 -2.3674  0.4385
   7423SM  C16S 9734   6.289   6.328  12.829 -0.4429 -0.0795  0.1260
   7423SM  H16S 9735   6.224   6.258  12.772 -1.1559  1.0421 -0.4743
   7423SM  H16T 9736   6.368   6.267  12.877 -1.8024  0.2218  2.9739
   7423SM  C17S 9737   6.348   6.435  12.734 -0.0467 -0.4207 -0.7557
   7423SM  H17S 9738   6.264   6.478  12.675 -1.7355 -1.2734  0.8900
   7423SM  H17T 9739   6.423   6.384  12.671  0.7328 -0.7796  0.4304
   7423SM  C18S 9740   6.425   6.552  12.810  0.6278 -0.1110 -0.0183
   7423SM  H18S 9741   6.489   6.614  12.744  1.1240 -0.3383  0.2362
   7423SM  H18T 9742   6.495   6.505  12.883  0.9919  0.0109 -0.2849
   7423SM  H18U 9743   6.357   6.620  12.865  0.1083 -0.9380  0.3913
   7423SM   C1F 9744   5.861   6.586  14.325 -0.2546  0.4048  0.2888
   7423SM    OF 9745   5.913   6.697  14.331 -0.4745 -0.5518 -0.2588
   7423SM   C2F 9746   5.717   6.566  14.319 -0.0703 -0.1157  0.9947
   7423SM   H2F 9747   5.668   6.629  14.397 -0.7215  1.7147 -0.7943
   7423SM   H2G 9748   5.694   6.459  14.335 -1.3320  0.1390  0.9626
   7423SM   C3F 9749   5.651   6.603  14.176 -0.4242 -0.1644  0.2640
   7423SM   H3F 9750   5.655   6.713  14.168 -2.6619 -0.1247 -1.4457
   7423SM   H3G 9751   5.543   6.576  14.187 -0.4180  0.8001  4.9305
   7423SM   C4F 9752   5.707   6.523  14.058 -0.2039  0.6226  0.5043
   7423SM   H4F 9753   5.690   6.416  14.082  1.2124  0.7797  2.3664
   7423SM   H4G 9754   5.817   6.538  14.050 -0.1714  0.6377  0.9574
   7423SM   C5F 9755   5.643   6.566  13.926 -0.2581  0.3452  0.0060
   7423SM   H5F 9756   5.670   6.672  13.904 -1.8516  1.0017  1.0428
   7423SM   H5G 9757   5.532   6.568  13.934 -0.0939  0.7178  4.3179
   7423SM   C6F 9758   5.685   6.469  13.816 -0.4067  0.3237  0.1920
   7423SM   H6F 9759   5.631   6.373  13.829  1.1423 -0.3699  1.8422
   7423SM   H6G 9760   5.792   6.446  13.830 -0.8950 -2.6000 -0.3432
   7423SM   C7F 9761   5.648   6.527  13.674 -0.0458 -0.2209 -0.6059
   7423SM   H7F 9762   5.707   6.621  13.670 -0.4658  0.0626 -0.2977
   7423SM   H7G 9763   5.537   6.530  13.674 -0.1247 -0.4456  1.9828
   7423SM   C8F 9764   5.708   6.437  13.567  0.1771 -0.1047 -0.2426
   7423SM   H8F 9765   5.641   6.349  13.562  0.2378 -0.3288  2.0157
   7423SM   H8G 9766   5.814   6.417  13.594  0.1589  0.3824  0.2147
   7423SM   C9F 9767   5.690   6.501  13.428 -0.3633  0.4539 -0.0889
   7423SM   H9F 9768   5.770   6.577  13.421  0.1708 -0.0241  0.5625
   7423SM   H9G 9769   5.587   6.541  13.422  0.3052  2.3893  0.5748
   7423SM  C10F 9770   5.716   6.387  13.325  0.2199 -0.6704 -0.4411
   7423SM  H10F 9771   5.636   6.310  13.330  1.0707 -1.7417 -2.0769
   7423SM  H10G 9772   5.816   6.340  13.343  1.1521  0.5208 -2.1899
   7423SM  C11F 9773   5.701   6.445  13.180  0.2398  0.0302 -0.0765
   7423SM  H11F 9774   5.771   6.529  13.160  0.1878  0.1064  0.0671
   7423SM  H11G 9775   5.593   6.463  13.166 -0.0385 -1.3839  0.0879
   7423SM  C12F 9776   5.732   6.348  13.060 -0.2587  0.3756  0.6484
   7423SM  H12F 9777   5.676   6.256  13.085  1.4909 -0.9307 -0.0502
   7423SM  H12G 9778   5.840   6.325  13.051 -0.8936 -2.3439 -1.1105
   7423SM  C13F 9779   5.687   6.401  12.918 -0.2014 -0.2344 -0.7420
   7423SM  H13F 9780   5.725   6.503  12.899  0.4072 -0.6528 -1.8325
   7423SM  H13G 9781   5.577   6.414  12.927 -0.1686 -1.2465  2.1383
   7423SM  C14F 9782   5.724   6.301  12.805  0.4614  0.0753  1.1772
   7423SM  H14F 9783   5.827   6.268  12.827  1.4585  3.6525  2.6454
   7423SM  H14G 9784   5.725   6.352  12.706 -2.2537 -0.2392  0.9216
   7423SM  C15F 9785   5.641   6.173  12.800  0.3282  0.5501  0.2545
   7423SM  H15F 9786   5.633   6.137  12.904  0.9418  0.8506  0.4106
   7423SM  H15G 9787   5.696   6.087  12.758 -2.3985 -2.1872  1.8546
   7423SM  C16F 9788   5.501   6.176  12.733  0.1808 -0.6720 -0.0013
   7423SM  H16F 9789   5.433   6.234  12.799  0.2116 -0.7491  0.0978
   7423SM  H16G 9790   5.468   6.070  12.726 -2.2612  0.0174  0.0655
   7423SM  C17F 9791   5.494   6.224  12.582 -0.3005  0.0305 -0.4165
   7423SM  H17F 9792   5.561   6.151  12.532  0.9496 -0.1254  1.4005
   7423SM  H17G 9793   5.535   6.327  12.572 -1.9831  0.8225  0.3746
   7423SM  C18F 9794   5.352   6.220  12.522 -0.1899 -0.5226  0.1542
   7423SM  H18F 9795   5.314   6.324  12.530  1.3411  0.1374 -0.7653
   7423SM  H18G 9796   5.286   6.148  12.576 -0.0057  1.1470  2.7966
   7423SM  C19F 9797   5.364   6.178  12.378 -0.0208  0.4993 -0.5366
   7423SM  H19F 9798   5.420   6.083  12.369  1.0199  1.2283 -2.0835
   7423SM  H19G 9799   5.431   6.253  12.332 -0.9595  1.1840 -0.8308
   7423SM  C20F 9800   5.238   6.184  12.295 -0.2099 -0.4811  0.1441
   7423SM  H20F 9801   5.177   6.093  12.316 -1.6672  0.3155 -0.5144
   7423SM  H20G 9802   5.267   6.201  12.189 -1.8231  2.1164  0.0415
   7423SM  C21F 9803   5.141   6.295  12.332 -0.3568 -0.3088 -0.3161
   7423SM  H21F 9804   5.188   6.396  12.327  0.1753 -0.5882 -1.0899
   7423SM  H21G 9805   5.109   6.286  12.438 -1.8528 -1.6613 -0.8413
   7423SM  C22F 9806   5.006   6.302  12.252 -0.4434  0.5509 -0.9692
   7423SM  H22F 9807   4.939   6.222  12.290 -0.4101  1.4825  1.2092
   7423SM  H22G 9808   5.030   6.280  12.145  0.0736 -2.1110 -0.3767
   7423SM  C23F 9809   4.936   6.437  12.244 -0.3366 -0.0489  0.1307
   7423SM  H23F 9810   4.983   6.486  12.156  1.0975  0.2611  1.0336
   7423SM  H23G 9811   4.940   6.494  12.339  1.3686 -4.1768  2.8596
   7423SM  H23H 9812   4.827   6.429  12.223 -0.1716 -0.5199 -0.6060
   7523SM     N 9813   4.868   1.544  14.470 -0.2756 -0.2804  0.0443
   7523SM   C15 9814   4.756   1.513  14.558  0.1209 -0.5388 -0.3500
   7523SM  H15A 9815   4.772   1.419  14.607  2.9476  0.2379  0.4300
   7523SM  H15B 9816   4.656   1.517  14.518 -0.5068  1.2862  1.2265
   7523SM  H15C 9817   4.741   1.586  14.636 -2.3516  0.2184 -1.4188
   7523SM   C14 9818   4.836   1.672  14.402 -0.7287  0.0552 -0.2163
   7523SM  H14A 9819   4.790   1.746  14.466 -0.5213  2.3180 -2.5018
   7523SM  H14B 9820   4.776   1.666  14.313  2.4633  0.2002 -2.5680
   7523SM  H14C 9821   4.925   1.727  14.375  0.2163  1.4706  4.7592
   7523SM   C13 9822   5.002   1.566  14.544 -0.2982  0.4975  0.2279
   7523SM  H13A 9823   5.025   1.478  14.601  0.4921 -0.1735 -1.0894
   7523SM  H13B 9824   5.010   1.656  14.604  3.7743  0.0417  0.5896
   7523SM  H13C 9825   5.082   1.568  14.472 -3.3082 -2.3548 -3.6435
   7523SM   C12 9826   4.895   1.444  14.363 -0.6141 -0.1037 -0.6733
   7523SM  H12A 9827   4.960   1.498  14.296  0.1043  2.3884  1.7935
   7523SM  H12B 9828   4.799   1.428  14.316 -0.2425  0.1806 -1.5450
   7523SM   C11 9829   4.961   1.309  14.400 -0.1832  0.1830 -0.0101
   7523SM  H11A 9830   5.061   1.329  14.445 -1.1239  0.3186  2.1151
   7523SM  H11B 9831   4.992   1.248  14.313  2.1473  2.9304 -1.3157
   7523SM     P 9832   4.764   1.145  14.438  0.6748 -0.0521 -0.5096
   7523SM   O13 9833   4.825   1.017  14.408  0.1834  0.0520 -0.0499
   7523SM   O14 9834   4.654   1.150  14.539  0.2788  0.6949 -0.3440
   7523SM   O11 9835   4.720   1.203  14.303 -0.2653  0.7380 -0.1906
   7523SM   O12 9836   4.879   1.238  14.493  0.0255 -0.4074  1.1077
   7523SM   C1S 9837   4.594   1.256  14.269 -0.0100  0.0254  0.7127
   7523SM   H1S 9838   4.583   1.365  14.283 -2.4024 -0.1369  0.5122
   7523SM   H1T 9839   4.505   1.210  14.318 -2.9204  2.0653 -2.1886
   7523SM    NF 9840   4.451   1.307  14.075 -0.0155 -0.5201 -0.1429
   7523SM   HNF 9841   4.365   1.259  14.085  0.3086 -0.8413  1.3100
   7523SM   C2S 9842   4.564   1.231  14.119  0.0809  0.3078 -0.3538
   7523SM   H2S 9843   4.651   1.251  14.053  0.0862  0.1134 -0.4085
   7523SM   C3S 9844   4.551   1.077  14.080  0.4011 -0.0122 -0.9858
   7523SM   H3S 9845   4.456   1.039  14.123  0.3524 -0.2390 -1.2914
   7523SM    O3 9846   4.649   0.982  14.131 -0.2595  0.4626 -0.2415
   7523SM   HO3 9847   4.716   1.030  14.181 -0.1809 -0.5256  0.6406
   7523SM   C4S 9848   4.537   1.052  13.930 -1.0384  0.0161  0.4820
   7523SM   H4S 9849   4.437   1.072  13.888 -0.7843  0.1642 -0.0543
   7523SM   C5S 9850   4.631   1.011  13.848 -0.2690  0.3268  0.3014
   7523SM   H5S 9851   4.729   0.998  13.897  0.1844  3.1920  0.3513
   7523SM   C6S 9852   4.612   0.983  13.700 -0.2292 -0.0492 -0.2581
   7523SM   H6S 9853   4.662   0.886  13.681 -0.9693 -0.0002 -2.7018
   7523SM   H6T 9854   4.668   1.057  13.639 -0.7749 -0.1588 -0.8962
   7523SM   C7S 9855   4.477   0.968  13.638  0.2823 -0.6822  0.2065
   7523SM   H7S 9856   4.422   1.065  13.644  0.2467 -0.7459  1.0987
   7523SM   H7T 9857   4.422   0.889  13.693  0.3913 -2.5029 -2.1214
   7523SM   C8S 9858   4.480   0.913  13.490  0.4001 -0.5838 -0.5712
   7523SM   H8S 9859   4.374   0.897  13.464  0.0882  2.1230 -1.2367
   7523SM   H8T 9860   4.516   0.808  13.484 -2.6440 -1.6615 -1.9991
   7523SM   C9S 9861   4.537   1.005  13.382 -1.0597  0.4469  0.0351
   7523SM   H9S 9862   4.638   1.044  13.409 -1.5061  1.4457  0.3144
   7523SM   H9T 9863   4.466   1.089  13.366 -1.8887 -0.3145 -0.3432
   7523SM  C10S 9864   4.551   0.925  13.254 -0.1571 -0.4086  0.1968
   7523SM  H10S 9865   4.456   0.871  13.234 -1.0386  0.2828  2.2851
   7523SM  H10T 9866   4.631   0.849  13.272  1.1675  0.4052 -1.8887
   7523SM  C11S 9867   4.617   0.998  13.136  0.1165  0.2734  0.1651
   7523SM  H11S 9868   4.714   0.947  13.118 -0.8276 -3.5401  3.9424
   7523SM  H11T 9869   4.634   1.107  13.152 -1.0058  0.3717  0.8194
   7523SM  C12S 9870   4.513   0.984  13.016 -0.6187 -0.8108  0.0482
   7523SM  H12S 9871   4.426   1.044  13.047  0.1304  0.3434 -0.0294
   7523SM  H12T 9872   4.482   0.879  12.996 -1.9855 -0.5522  0.7781
   7523SM  C13S 9873   4.567   1.040  12.884  0.1244  0.9104  0.5134
   7523SM  H13S 9874   4.655   0.978  12.856 -1.5377 -1.1424 -0.4590
   7523SM  H13T 9875   4.601   1.145  12.891  0.2757  0.8183  1.1842
   7523SM  C14S 9876   4.470   1.043  12.768  0.5511  0.4823  0.5190
   7523SM  H14S 9877   4.371   1.089  12.787  0.1316 -0.3890  0.5207
   7523SM  H14T 9878   4.448   0.938  12.737 -1.4602  0.7823  0.7629
   7523SM  C15S 9879   4.521   1.110  12.636  1.0690 -0.1092 -0.8970
   7523SM  H15S 9880   4.548   1.214  12.662 -0.4720  0.2817 -0.7961
   7523SM  H15T 9881   4.437   1.104  12.564  0.7015  0.6400 -0.5395
   7523SM  C16S 9882   4.646   1.039  12.596 -0.0780 -0.0329  0.2873
   7523SM  H16S 9883   4.627   0.931  12.613  1.9173 -0.6976 -1.3403
   7523SM  H16T 9884   4.727   1.067  12.667 -1.2814 -1.0344  2.1678
   7523SM  C17S 9885   4.696   1.045  12.449 -0.8758  0.1310 -0.1789
   7523SM  H17S 9886   4.737   1.148  12.439 -2.2178  0.6795 -0.1734
   7523SM  H17T 9887   4.608   1.029  12.384 -0.5586  0.0687 -0.5970
   7523SM  C18S 9888   4.791   0.922  12.409  0.2597  0.1415  0.3475
   7523SM  H18S 9889   4.881   0.912  12.473  1.7464  1.0274 -1.5016
   7523SM  H18T 9890   4.812   0.930  12.300 -2.6657 -2.7983 -0.6066
   7523SM  H18U 9891   4.729   0.831  12.422 -0.9525  0.7522 -0.8641
   7523SM   C1F 9892   4.465   1.432  14.042 -0.3233  0.5233 -0.2090
   7523SM    OF 9893   4.580   1.477  14.028  0.1396 -0.5774 -0.3334
   7523SM   C2F 9894   4.333   1.509  14.024 -0.2165  0.0416 -0.1561
   7523SM   H2F 9895   4.284   1.505  14.124 -0.4320 -0.8851 -0.2903
   7523SM   H2G 9896   4.266   1.459  13.951  0.5416 -0.0566 -0.7970
   7523SM   C3F 9897   4.352   1.655  13.982  0.2992 -0.1867 -1.1088
   7523SM   H3F 9898   4.406   1.713  14.060  0.7575 -2.3526  0.2701
   7523SM   H3G 9899   4.257   1.712  13.983 -0.3111 -1.1111  1.5159
   7523SM   C4F 9900   4.415   1.670  13.842 -0.5363 -0.5377  0.4450
   7523SM   H4F 9901   4.360   1.608  13.768 -0.1496  0.3323 -0.5896
   7523SM   H4G 9902   4.518   1.630  13.829  0.2903  1.9367 -1.2703
   7523SM   C5F 9903   4.418   1.811  13.787 -0.1960  0.1480  1.1397
   7523SM   H5F 9904   4.488   1.874  13.846  2.0608  0.0966 -1.2780
   7523SM   H5G 9905   4.320   1.849  13.820 -0.9816 -1.8994  1.3085
   7523SM   C6F 9906   4.460   1.836  13.640 -0.4157 -0.1124 -0.1577
   7523SM   H6F 9907   4.400   1.767  13.576 -1.4876 -0.1562  0.8633
   7523SM   H6G 9908   4.567   1.809  13.635 -0.1438  0.2676  2.3277
   7523SM   C7F 9909   4.451   1.980  13.589  0.3265 -0.4692 -0.3891
   7523SM   H7F 9910   4.510   2.047  13.655  1.8046 -0.3644 -1.7785
   7523SM   H7G 9911   4.344   2.006  13.602  0.2321 -1.9965  3.0645
   7523SM   C8F 9912   4.498   1.988  13.445 -0.3291 -0.3168 -0.2920
   7523SM   H8F 9913   4.429   1.921  13.389 -0.0967 -1.2857  0.5647
   7523SM   H8G 9914   4.599   1.946  13.429 -0.0785  0.6216 -1.3188
   7523SM   C9F 9915   4.485   2.128  13.397  0.0002 -0.0283  0.7475
   7523SM   H9F 9916   4.563   2.184  13.452 -0.5022  1.3794  0.0703
   7523SM   H9G 9917   4.387   2.176  13.418 -0.3029 -0.0097 -0.5755
   7523SM  C10F 9918   4.520   2.152  13.246 -0.5498 -0.3068 -0.4506
   7523SM  H10F 9919   4.627   2.126  13.236 -0.4306  0.6748 -2.0607
   7523SM  H10G 9920   4.500   2.259  13.223 -0.7628 -0.6912 -2.1701
   7523SM  C11F 9921   4.439   2.046  13.168  0.5291 -0.2765 -0.1847
   7523SM  H11F 9922   4.330   2.049  13.189  0.5041  1.1375 -0.4151
   7523SM  H11G 9923   4.478   1.944  13.190  1.0559  0.2780  1.6610
   7523SM  C12F 9924   4.453   2.060  13.014 -0.0210 -0.2987 -0.2578
   7523SM  H12F 9925   4.553   2.032  12.975 -0.2940  0.0982 -1.2687
   7523SM  H12G 9926   4.444   2.167  12.987 -0.9981 -0.5905 -1.1621
   7523SM  C13F 9927   4.333   1.986  12.941  0.5475 -0.0346  0.6415
   7523SM  H13F 9928   4.232   2.033  12.950  0.0139  0.0692 -3.6350
   7523SM  H13G 9929   4.336   1.880  12.975  2.2743 -1.1641 -2.5808
   7523SM  C14F 9930   4.362   1.988  12.794  0.3619  0.0074  0.3452
   7523SM  H14F 9931   4.457   1.936  12.770  0.6217  1.1523 -1.1651
   7523SM  H14G 9932   4.366   2.095  12.767  1.6858 -0.6990 -2.6474
   7523SM  C15F 9933   4.260   1.929  12.697  0.2930  0.1543 -0.8620
   7523SM  H15F 9934   4.173   1.998  12.696 -0.3497 -0.5938  0.6350
   7523SM  H15G 9935   4.219   1.831  12.728  0.9359 -0.6553 -2.4714
   7523SM  C16F 9936   4.303   1.921  12.550 -0.0498  0.3638  0.6622
   7523SM  H16F 9937   4.374   1.835  12.550  0.2645  0.3919 -3.8512
   7523SM  H16G 9938   4.345   2.020  12.524  0.0714  0.0152 -0.5552
   7523SM  C17F 9939   4.186   1.901  12.458  0.1321 -0.8110  0.0468
   7523SM  H17F 9940   4.113   1.984  12.457  0.5812 -0.4159 -0.6583
   7523SM  H17G 9941   4.131   1.813  12.498  1.8594 -1.8224  0.3145
   7523SM  C18F 9942   4.227   1.870  12.314  0.1541 -0.0730  0.4438
   7523SM  H18F 9943   4.146   1.804  12.275  0.7066 -1.0862  0.9613
   7523SM  H18G 9944   4.311   1.798  12.315 -2.8446 -3.9195  1.7132
   7523SM  C19F 9945   4.257   1.993  12.223  0.5885 -0.1208 -0.4299
   7523SM  H19F 9946   4.336   2.051  12.274  1.7557 -0.5590 -1.6820
   7523SM  H19G 9947   4.162   2.050  12.222  1.2527  1.1962  2.3465
   7523SM  C20F 9948   4.306   1.971  12.078 -0.8009 -0.2614  0.5165
   7523SM  H20F 9949   4.400   1.912  12.073  0.1831  1.3703 -2.2018
   7523SM  H20G 9950   4.329   2.068  12.028 -1.5249 -0.2713  0.1520
   7523SM  C21F 9951   4.214   1.891  11.980  0.7446 -0.2159  0.2645
   7523SM  H21F 9952   4.203   1.791  12.027 -0.0269 -0.3107 -0.0994
   7523SM  H21G 9953   4.268   1.884  11.883  0.6047 -0.1852  0.1850
   7523SM  C22F 9954   4.078   1.960  11.951 -0.3991 -0.1514 -0.3074
   7523SM  H22F 9955   4.112   2.058  11.911  0.4097 -0.3590 -0.1339
   7523SM  H22G 9956   4.015   1.973  12.042 -0.4611 -1.5891 -0.1296
   7523SM  C23F 9957   3.985   1.894  11.854  0.5417  0.3003 -0.0820
   7523SM  H23F 9958   3.953   1.799  11.900  2.0101 -0.4218 -0.5024
   7523SM  H23G 9959   4.050   1.857  11.772 -2.2798 -1.0260 -1.8732
   7523SM  H23H 9960   3.899   1.948  11.809 -1.7354 -0.3896  3.1017
   7623SM     N 9961   5.473   1.784  14.756 -1.0187  0.4551 -0.2623
   7623SM   C15 9962   5.547   1.850  14.867  0.1205  0.7455  0.6948
   7623SM  H15A 9963   5.588   1.943  14.831 -0.7258  1.4553  1.5353
   7623SM  H15B 9964   5.629   1.788  14.901  0.8917  0.5431 -1.3993
   7623SM  H15C 9965   5.475   1.876  14.943  0.5944  0.5893  1.2054
   7623SM   C14 9966   5.430   1.652  14.802 -0.4502  0.5079 -0.4215
   7623SM  H14A 9967   5.354   1.645  14.879 -0.2707  0.6220 -0.2325
   7623SM  H14B 9968   5.511   1.601  14.852  0.3382  1.1334 -1.0321
   7623SM  H14C 9969   5.395   1.591  14.720 -1.1068  0.2692  0.0215
   7623SM   C13 9970   5.353   1.855  14.716  0.3821 -0.7960 -0.8059
   7623SM  H13A 9971   5.383   1.955  14.689 -0.4890 -0.1293  0.5999
   7623SM  H13B 9972   5.279   1.872  14.793  0.6881 -0.0380 -0.6686
   7623SM  H13C 9973   5.309   1.809  14.629  1.8814  1.3291 -2.8090
   7623SM   C12 9974   5.572   1.770  14.640  0.4108 -0.0681  0.5803
   7623SM  H12A 9975   5.667   1.728  14.668  0.5346 -0.2020 -0.0167
   7623SM  H12B 9976   5.588   1.871  14.604  0.5743 -0.1832  0.3293
   7623SM   C11 9977   5.526   1.682  14.524 -0.3199  0.6112  0.2395
   7623SM  H11A 9978   5.593   1.692  14.436 -0.3063 -1.1172  0.0304
   7623SM  H11B 9979   5.424   1.698  14.482 -0.0527  0.1853 -0.5954
   7623SM     P 9980   5.671   1.469  14.582 -0.0382 -0.0720  0.3446
   7623SM   O13 9981   5.738   1.549  14.683  0.3160 -0.5182  0.1171
   7623SM   O14 9982   5.655   1.326  14.624  0.1535  0.9935  0.7532
   7623SM   O11 9983   5.741   1.480  14.445  0.4194 -0.8270 -0.5563
   7623SM   O12 9984   5.530   1.542  14.561 -0.0389 -0.4653  0.0070
   7623SM   C1S 9985   5.672   1.462  14.321 -0.4868 -0.3805  0.1141
   7623SM   H1S 9986   5.570   1.505  14.313  0.1842  0.9085 -2.2856
   7623SM   H1T 9987   5.653   1.353  14.313 -0.3801 -0.4869  1.1348
   7623SM    NF 9988   5.679   1.515  14.078  0.8334  0.1263 -0.1139
   7623SM   HNF 9989   5.664   1.437  14.018  2.1486  1.1974 -1.9208
   7623SM   C2S 9990   5.763   1.495  14.195 -0.7351  0.1780 -0.3948
   7623SM   H2S 9991   5.812   1.593  14.214 -0.9444  0.6635 -2.2255
   7623SM   C3S 9992   5.873   1.377  14.174 -0.5581 -0.1178  0.2506
   7623SM   H3S 9993   5.825   1.280  14.151 -1.8559  0.3147  0.9990
   7623SM    O3 9994   5.958   1.357  14.285 -0.5009 -0.2967 -0.3783
   7623SM   HO3 9995   5.912   1.406  14.354 -4.4376 -1.6954 -1.7251
   7623SM   C4S 9996   5.965   1.401  14.057  1.6544 -0.8559  0.6562
   7623SM   H4S 9997   6.031   1.485  14.081  1.1069 -0.9222  2.5401
   7623SM   C5S 9998   5.979   1.328  13.947 -0.4946 -0.7227 -0.1850
   7623SM   H5S 9999   5.936   1.227  13.940  1.2042 -1.4953  0.0553
   7623SM   C6S10000   6.085   1.358  13.844  0.3163 -0.0648  0.0470
   7623SM   H6S10001   6.140   1.264  13.821  1.1045  0.6515 -1.0806
   7623SM   H6T10002   6.161   1.435  13.869  1.1008 -0.4453 -1.0899
   7623SM   C7S10003   6.016   1.394  13.714 -0.4883  0.3215  0.4890
   7623SM   H7S10004   5.986   1.501  13.715  0.8594  0.7800  3.5895
   7623SM   H7T10005   5.933   1.322  13.695 -1.5551  1.5126  0.5173
   7623SM   C8S10006   6.123   1.394  13.595  0.1819  0.4537  0.1053
   7623SM   H8S10007   6.142   1.298  13.543 -1.1247  0.3934 -0.2968
   7623SM   H8T10008   6.215   1.433  13.644 -1.3778  2.4351  1.6205
   7623SM   C9S10009   6.067   1.481  13.482  0.3523  0.4149 -0.0193
   7623SM   H9S10010   6.059   1.589  13.508  1.2517  0.1136  1.7256
   7623SM   H9T10011   5.962   1.452  13.460  0.3658  1.2834 -1.2984
   7623SM  C10S10012   6.150   1.464  13.360  0.5698  0.0579  1.2939
   7623SM  H10S10013   6.153   1.360  13.320  1.8979  0.9470 -1.0671
   7623SM  H10T10014   6.251   1.509  13.367  0.6438 -0.0051  0.6907
   7623SM  C11S10015   6.091   1.539  13.232  0.2050  0.4939 -0.1064
   7623SM  H11S10016   6.084   1.648  13.253  0.0432  0.5772 -0.5840
   7623SM  H11T10017   5.988   1.498  13.222  0.6996 -1.4285  1.8799
   7623SM  C12S10018   6.166   1.504  13.102 -0.0767 -0.0344  0.1011
   7623SM  H12S10019   6.170   1.396  13.077  2.5561  0.4987 -2.2903
   7623SM  H12T10020   6.271   1.538  13.110  0.6971 -1.8596 -1.5737
   7623SM  C13S10021   6.110   1.566  12.973 -0.8165 -0.7786 -0.0312
   7623SM  H13S10022   6.102   1.674  12.995 -0.8507 -0.9791  1.0142
   7623SM  H13T10023   6.011   1.521  12.949 -1.5861  0.3016  1.0072
   7623SM  C14S10024   6.199   1.547  12.845 -0.0057 -0.2450 -0.2428
   7623SM  H14S10025   6.205   1.441  12.811  2.3482 -0.1381 -0.2938
   7623SM  H14T10026   6.304   1.575  12.868 -0.4765  0.4614  1.2091
   7623SM  C15S10027   6.137   1.627  12.735  0.3009 -0.3184 -0.0148
   7623SM  H15S10028   6.120   1.729  12.774 -0.9406  0.0433 -1.4319
   7623SM  H15T10029   6.037   1.583  12.713 -0.2894  0.2339  1.4543
   7623SM  C16S10030   6.204   1.613  12.599  0.2646 -0.1479 -0.3729
   7623SM  H16S10031   6.204   1.508  12.561 -1.9469 -0.4510  0.3270
   7623SM  H16T10032   6.308   1.647  12.617  0.0381  1.0409 -1.1957
   7623SM  C17S10033   6.148   1.697  12.484 -0.0976  0.0897 -0.7524
   7623SM  H17S10034   6.201   1.671  12.389  0.8403  0.1108 -0.2460
   7623SM  H17T10035   6.175   1.804  12.499 -0.2937 -0.1249  1.4327
   7623SM  C18S10036   5.994   1.698  12.465 -0.2857  0.3624 -0.3492
   7623SM  H18S10037   5.957   1.595  12.480  1.3732  0.0128  1.8271
   7623SM  H18T10038   5.960   1.733  12.365 -0.1657  2.1996  0.2010
   7623SM  H18U10039   5.941   1.760  12.541  0.2302 -2.2289  2.2998
   7623SM   C1F10040   5.604   1.620  14.066 -0.3550 -0.0605 -0.2937
   7623SM    OF10041   5.594   1.696  14.160  0.3748 -0.4546  0.5664
   7623SM   C2F10042   5.540   1.644  13.932  0.6689 -0.4220 -0.3480
   7623SM   H2F10043   5.523   1.550  13.876 -0.6550  0.5112 -1.6123
   7623SM   H2G10044   5.611   1.712  13.880 -0.6978  0.2015 -1.4900
   7623SM   C3F10045   5.409   1.727  13.952 -0.1787  0.8259 -0.1155
   7623SM   H3F10046   5.413   1.811  14.024  0.8390  2.3036 -1.8014
   7623SM   H3G10047   5.337   1.650  13.988  1.4608 -1.0221 -0.6479
   7623SM   C4F10048   5.339   1.793  13.831 -0.8448 -0.2058 -0.2772
   7623SM   H4F10049   5.389   1.892  13.816  0.7786 -1.3010 -2.7904
   7623SM   H4G10050   5.237   1.805  13.874 -0.0348 -0.9572  1.9776
   7623SM   C5F10051   5.323   1.708  13.708  1.1010 -0.1724 -0.3321
   7623SM   H5F10052   5.419   1.686  13.657  0.6435 -1.1196 -0.7953
   7623SM   H5G10053   5.279   1.781  13.636 -0.5271 -0.8275 -0.0295
   7623SM   C6F10054   5.244   1.586  13.731  0.3752 -0.2715 -0.5802
   7623SM   H6F10055   5.150   1.599  13.789  1.3414  0.9214  0.7950
   7623SM   H6G10056   5.318   1.519  13.779 -1.7158 -2.2381  0.0684
   7623SM   C7F10057   5.218   1.519  13.592  0.3725 -0.5744 -0.2399
   7623SM   H7F10058   5.180   1.418  13.617  1.4424 -0.6481  1.2404
   7623SM   H7G10059   5.312   1.515  13.532  0.3045 -0.6917 -0.3383
   7623SM   C8F10060   5.117   1.596  13.502 -0.3295 -0.5818  0.0981
   7623SM   H8F10061   5.163   1.687  13.459  2.2382 -2.8226 -2.3348
   7623SM   H8G10062   5.036   1.631  13.570 -0.1878  2.5731 -1.2113
   7623SM   C9F10063   5.062   1.508  13.396 -0.1649  0.4888 -0.6876
   7623SM   H9F10064   5.000   1.438  13.456  2.3059  0.2264  1.7648
   7623SM   H9G10065   5.143   1.445  13.352  0.8776  0.0756  1.6451
   7623SM  C10F10066   4.993   1.589  13.298 -0.1450 -0.0992  0.7063
   7623SM  H10F10067   5.065   1.668  13.265 -1.0997  1.4281  2.1376
   7623SM  H10G10068   4.917   1.659  13.338 -1.2534 -1.1138  0.4168
   7623SM  C11F10069   4.952   1.514  13.168  1.0119 -0.1706  0.1501
   7623SM  H11F10070   4.911   1.422  13.214 -2.4313  1.3454  0.4804
   7623SM  H11G10071   5.038   1.480  13.106  0.4786 -2.0366  0.4025
   7623SM  C12F10072   4.836   1.577  13.088  0.2587 -0.5531 -0.2052
   7623SM  H12F10073   4.754   1.595  13.161  1.0317 -1.1154  0.8374
   7623SM  H12G10074   4.794   1.501  13.019  0.2563  0.0994 -0.9420
   7623SM  C13F10075   4.875   1.705  13.014  0.2498 -0.5240  0.1523
   7623SM  H13F10076   4.947   1.675  12.934 -0.5292  0.8551 -1.1121
   7623SM  H13G10077   4.928   1.780  13.077  1.2777  0.5118 -1.8262
   7623SM  C14F10078   4.754   1.764  12.935  0.4131 -0.1880  0.5440
   7623SM  H14F10079   4.717   1.829  13.017 -1.1420 -1.6153  1.0260
   7623SM  H14G10080   4.671   1.692  12.923 -0.1207  0.7750 -2.3433
   7623SM  C15F10081   4.774   1.847  12.807  0.2705  0.0863 -0.0172
   7623SM  H15F10082   4.868   1.902  12.826  0.7980 -0.7026 -0.3015
   7623SM  H15G10083   4.693   1.923  12.798  0.3482  0.0906 -0.7426
   7623SM  C16F10084   4.790   1.760  12.687  0.0171  0.3544 -0.4579
   7623SM  H16F10085   4.693   1.707  12.683 -0.0418  0.3259  0.7719
   7623SM  H16G10086   4.871   1.685  12.705 -0.6995 -0.3031  0.1026
   7623SM  C17F10087   4.803   1.838  12.561 -0.0319 -0.4441 -0.3116
   7623SM  H17F10088   4.892   1.904  12.547  0.1773 -1.0422 -2.0199
   7623SM  H17G10089   4.717   1.908  12.567  0.8635  0.7676 -1.2171
   7623SM  C18F10090   4.771   1.767  12.422  0.7960 -0.3845  0.4917
   7623SM  H18F10091   4.843   1.683  12.420  1.8865  0.5208  0.1874
   7623SM  H18G10092   4.791   1.846  12.347  0.8091 -0.8412  0.0094
   7623SM  C19F10093   4.631   1.721  12.398  0.8467  0.5728 -0.3598
   7623SM  H19F10094   4.551   1.796  12.415 -0.6705 -1.2871  1.1636
   7623SM  H19G10095   4.588   1.648  12.470  0.7103  0.7652 -0.2437
   7623SM  C20F10096   4.602   1.648  12.264  0.4552  0.2507  0.0029
   7623SM  H20F10097   4.616   1.717  12.178 -1.0481 -0.7191 -1.0783
   7623SM  H20G10098   4.494   1.623  12.270  0.0985  1.5948 -0.5116
   7623SM  C21F10099   4.665   1.507  12.249  0.5533 -0.0651 -0.4801
   7623SM  H21F10100   4.635   1.454  12.342 -0.9715 -0.6698 -1.2951
   7623SM  H21G10101   4.773   1.532  12.245  0.6911 -0.7633 -1.3138
   7623SM  C22F10102   4.625   1.421  12.137  0.1481 -0.0434  0.4551
   7623SM  H22F10103   4.541   1.478  12.092  0.7904 -0.3741 -1.2123
   7623SM  H22G10104   4.583   1.332  12.189 -1.5089  1.3498  1.6053
   7623SM  C23F10105   4.735   1.392  12.034 -0.3445 -0.0507  0.5530
   7623SM  H23F10106   4.768   1.491  11.996 -0.2461  0.5770  2.2113
   7623SM  H23G10107   4.691   1.321  11.961 -1.1718 -0.5125  1.4767
   7623SM  H23H10108   4.816   1.341  12.090 -0.1396  1.1928  1.4200
   7723SM     N10109   5.982   4.990  15.154 -0.3395 -0.2223  0.6315
   7723SM   C1510110   6.101   5.079  15.162  0.8767 -0.3437 -0.6359
   7723SM  H15A10111   6.079   5.177  15.121 -1.1340 -0.1128  0.8145
   7723SM  H15B10112   6.179   5.030  15.106  1.2251 -3.1984  2.1100
   7723SM  H15C10113   6.146   5.083  15.260 -2.6717 -0.2101  1.1381
   7723SM   C1410114   6.000   4.870  15.241 -0.6675 -0.0483 -0.0313
   7723SM  H14A10115   5.987   4.901  15.344 -1.2638  0.8693 -0.3706
   7723SM  H14B10116   6.096   4.824  15.222  0.5659  2.6913 -1.0518
   7723SM  H14C10117   5.921   4.799  15.223 -1.2513  0.9960 -1.8103
   7723SM   C1310118   5.862   5.064  15.198  0.0697 -0.0218  0.4461
   7723SM  H13A10119   5.863   5.158  15.144 -0.6702 -1.6588 -2.6683
   7723SM  H13B10120   5.864   5.081  15.304 -0.0419  0.5449  0.3605
   7723SM  H13C10121   5.767   5.022  15.166 -0.0095  0.6516 -0.2313
   7723SM   C1210122   5.968   4.951  15.004  0.2417  0.0635 -0.0647
   7723SM  H12A10123   6.067   4.917  14.976 -0.5998 -1.0769 -1.8014
   7723SM  H12B10124   5.949   5.042  14.949  1.1590 -0.3742 -1.1255
   7723SM   C1110125   5.854   4.851  14.957  0.1502 -0.1350  0.3252
   7723SM  H11A10126   5.833   4.861  14.848 -0.0325  0.2723  0.3942
   7723SM  H11B10127   5.766   4.884  15.016  0.6757 -0.7665  1.4797
   7723SM     P10128   5.943   4.601  14.929 -0.2010  0.0544 -0.1798
   7723SM   O1310129   6.087   4.618  14.919 -0.3840  0.7541  0.0321
   7723SM   O1410130   5.892   4.482  15.001 -0.0611 -0.1832  0.3745
   7723SM   O1110131   5.881   4.609  14.790 -0.0994 -0.4385  0.2068
   7723SM   O1210132   5.886   4.724  15.005 -0.4587  0.0998 -0.2301
   7723SM   C1S10133   5.742   4.587  14.769  0.5235  0.3437  0.0304
   7723SM   H1S10134   5.683   4.677  14.794  1.9439  1.6368 -1.0800
   7723SM   H1T10135   5.706   4.504  14.834 -0.4164 -0.0450 -0.9549
   7723SM    NF10136   5.570   4.522  14.589  0.2466  0.6202 -0.1396
   7723SM   HNF10137   5.531   4.431  14.576  0.5801  0.6370 -1.4077
   7723SM   C2S10138   5.708   4.552  14.619  0.1286  0.2593 -0.4007
   7723SM   H2S10139   5.747   4.638  14.560 -1.1435  1.6062  0.6306
   7723SM   C3S10140   5.796   4.427  14.576 -0.6362 -0.0694 -0.7579
   7723SM   H3S10141   5.788   4.342  14.648  0.6779  1.3784  1.1887
   7723SM    O310142   5.936   4.450  14.571  0.2268  0.0445 -0.4923
   7723SM   HO310143   5.957   4.528  14.623  1.6509 -1.4596  1.3318
   7723SM   C4S10144   5.756   4.367  14.434  0.1852  0.5375 -0.3782
   7723SM   H4S10145   5.690   4.279  14.446 -1.2840  1.7956  1.1427
   7723SM   C5S10146   5.793   4.412  14.311  0.5291  0.1359  0.2551
   7723SM   H5S10147   5.851   4.505  14.303 -0.8045  0.9604 -0.2668
   7723SM   C6S10148   5.762   4.356  14.172 -0.3716 -0.3112 -0.2487
   7723SM   H6S10149   5.858   4.324  14.127 -0.7244 -0.5631 -0.8324
   7723SM   H6T10150   5.709   4.430  14.109  0.6575  2.0533  1.5317
   7723SM   C7S10151   5.672   4.227  14.180  0.1350  0.6751  0.4673
   7723SM   H7S10152   5.567   4.249  14.207  0.2329  2.3698 -0.4266
   7723SM   H7T10153   5.708   4.153  14.255 -0.5355 -1.3875 -1.1650
   7723SM   C8S10154   5.670   4.149  14.055  0.1541  0.2248  0.1126
   7723SM   H8S10155   5.590   4.072  14.055 -1.1492  1.5136 -0.6068
   7723SM   H8T10156   5.768   4.099  14.044 -0.2831 -1.2678  2.3265
   7723SM   C9S10157   5.651   4.241  13.935 -0.1022  0.4541 -0.0171
   7723SM   H9S10158   5.735   4.313  13.929 -0.0936  0.5957  1.4332
   7723SM   H9T10159   5.557   4.299  13.948  0.3446  1.0476  0.6535
   7723SM  C10S10160   5.645   4.157  13.808  0.4990  0.1744 -0.4603
   7723SM  H10S10161   5.579   4.070  13.828 -0.8616  1.4083  0.6189
   7723SM  H10T10162   5.745   4.121  13.775  0.8619  1.2247 -0.5387
   7723SM  C11S10163   5.586   4.245  13.695  0.0729  0.3822 -0.0461
   7723SM  H11S10164   5.645   4.338  13.684 -0.8555  1.1235  1.0452
   7723SM  H11T10165   5.494   4.290  13.737  0.6283  1.5495 -0.0396
   7723SM  C12S10166   5.562   4.164  13.573  0.7240 -0.2610  0.2404
   7723SM  H12S10167   5.485   4.085  13.585  1.0368 -0.4883  0.8071
   7723SM  H12T10168   5.651   4.108  13.538 -1.4255 -3.2683 -0.8173
   7723SM  C13S10169   5.527   4.250  13.451 -0.4841 -0.0185 -0.4378
   7723SM  H13S10170   5.609   4.321  13.426 -0.9807 -0.3354 -3.3748
   7723SM  H13T10171   5.430   4.302  13.463  0.0062  0.7225  0.4500
   7723SM  C14S10172   5.504   4.146  13.341 -0.7187 -0.1457  0.2476
   7723SM  H14S10173   5.423   4.081  13.379 -0.4959  0.0494  1.0678
   7723SM  H14T10174   5.597   4.087  13.329 -0.0751  0.9729 -0.5667
   7723SM  C15S10175   5.474   4.210  13.207 -0.1212  0.5678  0.5713
   7723SM  H15S10176   5.570   4.256  13.175  1.2219 -0.4632  2.8844
   7723SM  H15T10177   5.402   4.293  13.226 -0.6828 -0.2219  2.0460
   7723SM  C16S10178   5.426   4.099  13.114 -0.2625  0.2285  0.1568
   7723SM  H16S10179   5.333   4.054  13.153  0.0628 -1.1494 -0.6013
   7723SM  H16T10180   5.505   4.025  13.088  2.5338  2.7567  0.8522
   7723SM  C17S10181   5.365   4.164  12.988  0.0221 -0.4543  0.1094
   7723SM  H17S10182   5.452   4.194  12.926  0.2024 -0.9123  0.1414
   7723SM  H17T10183   5.310   4.256  13.020  1.4426  1.4046 -2.3532
   7723SM  C18S10184   5.267   4.089  12.891 -0.3491  0.2668  0.4958
   7723SM  H18S10185   5.246   4.161  12.809 -1.2114  0.0693  0.5281
   7723SM  H18T10186   5.167   4.065  12.933 -1.6585 -1.1835 -3.0681
   7723SM  H18U10187   5.316   3.999  12.849  0.4267  1.3123 -0.8862
   7723SM   C1F10188   5.468   4.613  14.570  0.1756 -0.1543  0.0588
   7723SM    OF10189   5.479   4.725  14.606  0.6023  0.1626 -0.0534
   7723SM   C2F10190   5.349   4.559  14.504  1.1480 -0.0132 -0.0364
   7723SM   H2F10191   5.289   4.485  14.562 -0.4488  0.8706 -0.5033
   7723SM   H2G10192   5.386   4.494  14.421 -1.4564 -2.3538  0.4942
   7723SM   C3F10193   5.257   4.655  14.422  0.1899 -0.1615  0.0060
   7723SM   H3F10194   5.320   4.717  14.355  0.5440  1.1864  1.5078
   7723SM   H3G10195   5.213   4.726  14.495  1.4379 -0.2875  0.9138
   7723SM   C4F10196   5.143   4.588  14.340 -0.3053 -0.1879  0.0969
   7723SM   H4F10197   5.102   4.517  14.414 -0.8405 -0.2701 -0.2754
   7723SM   H4G10198   5.173   4.528  14.252 -4.0794 -0.1222 -1.4229
   7723SM   C5F10199   5.020   4.677  14.300 -0.1813  0.4377  0.0851
   7723SM   H5F10200   5.001   4.740  14.389  1.1489  0.5338  0.3230
   7723SM   H5G10201   4.933   4.611  14.283  0.6396 -1.1989  1.9000
   7723SM   C6F10202   5.042   4.772  14.186  0.1947 -0.0861  0.1191
   7723SM   H6F10203   5.056   4.704  14.099 -0.5294  0.7471 -0.6677
   7723SM   H6G10204   5.137   4.825  14.207 -0.0432 -0.2517  1.6942
   7723SM   C7F10205   4.933   4.878  14.165 -0.0361 -0.2400 -0.4972
   7723SM   H7F10206   4.905   4.935  14.256 -0.2511 -2.5479  0.9355
   7723SM   H7G10207   4.846   4.828  14.119 -0.6764  1.3155 -1.0663
   7723SM   C8F10208   4.971   4.971  14.050  0.2204  0.1621  0.2632
   7723SM   H8F10209   5.026   4.913  13.973 -1.6581 -1.4941  0.0835
   7723SM   H8G10210   5.021   5.065  14.083 -0.4240 -0.6680  4.1011
   7723SM   C9F10211   4.855   5.014  13.975 -0.2641  0.1884  0.3233
   7723SM   H9F10212   4.780   5.053  14.047 -0.8792  2.8194 -1.5853
   7723SM   H9G10213   4.795   4.938  13.921 -0.7793 -1.3941  2.9592
   7723SM  C10F10214   4.885   5.125  13.875 -0.4220 -0.7783  0.1461
   7723SM  H10F10215   4.986   5.168  13.894 -1.2547  0.7018  1.5308
   7723SM  H10G10216   4.810   5.207  13.879  0.3724  0.1455 -2.2485
   7723SM  C11F10217   4.883   5.059  13.732 -0.3524 -0.8229  0.2563
   7723SM  H11F10218   4.775   5.061  13.706 -0.8735  3.7000  1.9024
   7723SM  H11G10219   4.934   4.960  13.734  1.0851 -0.1760  4.0572
   7723SM  C12F10220   4.948   5.144  13.626  0.3472 -0.4798  0.0583
   7723SM  H12F10221   5.057   5.153  13.646  0.2281  0.2113  0.4287
   7723SM  H12G10222   4.911   5.248  13.638  0.8369 -0.1492 -1.1342
   7723SM  C13F10223   4.939   5.108  13.478  0.7646 -0.1189 -0.0667
   7723SM  H13F10224   4.963   5.191  13.407 -1.0582 -1.6933 -2.7230
   7723SM  H13G10225   4.830   5.095  13.458  1.0120  0.5699 -2.1066
   7723SM  C14F10226   5.022   4.990  13.430  0.7628 -0.0580 -0.2377
   7723SM  H14F10227   5.012   4.905  13.500 -1.1513  3.3013  4.0070
   7723SM  H14G10228   5.128   5.024  13.425  0.4562  0.9638 -0.0107
   7723SM  C15F10229   4.985   4.936  13.287 -0.0635  0.3032  0.1425
   7723SM  H15F10230   4.875   4.928  13.278  0.0523 -0.5167 -0.6958
   7723SM  H15G10231   5.026   4.833  13.278 -0.6173 -0.2253  2.8916
   7723SM  C16F10232   5.043   5.017  13.171  0.0012  0.1836 -0.4045
   7723SM  H16F10233   5.153   5.012  13.188 -0.2930 -2.1869  1.3199
   7723SM  H16G10234   5.007   5.122  13.170 -0.0824  0.2154  1.5406
   7723SM  C17F10235   5.023   4.946  13.037  0.3998  0.5216  0.1439
   7723SM  H17F10236   4.914   4.925  13.025  0.6229 -1.1827  0.9376
   7723SM  H17G10237   5.063   4.843  13.039 -2.5579 -0.8100 -1.7918
   7723SM  C18F10238   5.096   5.023  12.922 -0.3321  1.3693 -0.7852
   7723SM  H18F10239   5.201   5.023  12.959 -0.6856  0.5069  0.2884
   7723SM  H18G10240   5.058   5.127  12.910  0.0299  1.4448 -1.3098
   7723SM  C19F10241   5.099   4.956  12.781  0.3246 -0.1600 -0.7321
   7723SM  H19F10242   4.996   4.935  12.746  0.0080  0.5414 -0.2619
   7723SM  H19G10243   5.157   4.863  12.796 -3.7137 -2.7219  0.3320
   7723SM  C20F10244   5.164   5.036  12.666  0.1943  1.2804 -0.4611
   7723SM  H20F10245   5.266   5.073  12.693 -0.7127  2.5201  1.5043
   7723SM  H20G10246   5.114   5.135  12.670 -0.3527  1.0137 -0.7113
   7723SM  C21F10247   5.174   4.972  12.523 -1.0790 -0.1159 -0.4686
   7723SM  H21F10248   5.193   5.058  12.455 -2.0591  2.0082  1.7771
   7723SM  H21G10249   5.076   4.925  12.498 -1.2718 -0.4271  0.8239
   7723SM  C22F10250   5.286   4.868  12.530  0.7504 -0.3515  0.1510
   7723SM  H22F10251   5.252   4.789  12.601 -1.2985 -1.2892 -1.7660
   7723SM  H22G10252   5.378   4.923  12.561  0.9777 -0.3065 -0.5805
   7723SM  C23F10253   5.303   4.802  12.397  0.0065  0.0513 -0.2961
   7723SM  H23F10254   5.209   4.754  12.362 -0.2815  1.0334 -0.9035
   7723SM  H23G10255   5.374   4.718  12.389  0.7851  0.8245 -1.9368
   7723SM  H23H10256   5.334   4.870  12.315 -1.2029  4.6773  2.6963
   7823SM     N10257   6.632   2.601  15.069  0.2470 -0.0502 -0.1686
   7823SM   C1510258   6.743   2.503  15.064  0.2982  0.3114 -0.6377
   7823SM  H15A10259   6.753   2.451  15.158  0.8790 -0.7290 -1.2619
   7823SM  H15B10260   6.837   2.551  15.042 -0.0344  0.7731 -1.1018
   7823SM  H15C10261   6.729   2.433  14.983 -0.2674 -0.1296 -0.1704
   7823SM   C1410262   6.506   2.540  15.110  0.1729  0.8545  0.2788
   7823SM  H14A10263   6.496   2.461  15.037  0.5972  0.9096  0.1636
   7823SM  H14B10264   6.419   2.605  15.116 -1.1390 -0.9258  1.8147
   7823SM  H14C10265   6.510   2.488  15.205 -0.7401 -0.2825 -0.2888
   7823SM   C1310266   6.668   2.695  15.176  0.0593 -0.2192 -0.0311
   7823SM  H13A10267   6.598   2.776  15.185 -0.4510 -0.8078  2.0946
   7823SM  H13B10268   6.763   2.743  15.158 -0.2514 -0.1960 -1.7606
   7823SM  H13C10269   6.661   2.637  15.268 -0.7131 -1.3547 -0.7799
   7823SM   C1210270   6.614   2.680  14.934 -0.7848 -0.5249 -0.0856
   7823SM  H12A10271   6.702   2.740  14.915 -1.0406 -0.2494 -0.4151
   7823SM  H12B10272   6.527   2.743  14.944  0.7032  1.5698  0.2591
   7823SM   C1110273   6.587   2.583  14.819 -0.4347  0.3094  0.7314
   7823SM  H11A10274   6.669   2.509  14.813  0.8459  1.7799 -1.1591
   7823SM  H11B10275   6.603   2.645  14.728  0.5782 -1.0430 -0.0386
   7823SM     P10276   6.326   2.598  14.795 -0.0472 -0.2586 -0.1114
   7823SM   O1310277   6.208   2.523  14.843  0.4060 -0.2021  0.1384
   7823SM   O1410278   6.333   2.735  14.858 -0.3601 -0.2800  0.0513
   7823SM   O1110279   6.340   2.607  14.635 -0.2666 -0.2343 -0.9102
   7823SM   O1210280   6.457   2.523  14.833 -0.0226 -0.3462  0.4020
   7823SM   C1S10281   6.277   2.501  14.558  0.3456  0.3174 -0.6791
   7823SM   H1S10282   6.167   2.496  14.572  0.5545 -1.0002  0.6654
   7823SM   H1T10283   6.323   2.402  14.573 -0.2500  0.1164 -0.1295
   7823SM    NF10284   6.247   2.427  14.329  0.6299  0.6788  0.0910
   7823SM   HNF10285   6.300   2.355  14.285 -1.2908  0.6954 -2.4759
   7823SM   C2S10286   6.315   2.525  14.406  0.4135 -0.2854  0.9211
   7823SM   H2S10287   6.278   2.627  14.386  0.0079 -0.4560  0.7946
   7823SM   C3S10288   6.463   2.522  14.387 -1.1839 -0.7071 -0.1545
   7823SM   H3S10289   6.505   2.458  14.468  1.9523  0.5860 -0.6177
   7823SM    O310290   6.511   2.649  14.429  0.1996  0.4403 -0.4344
   7823SM   HO310291   6.455   2.665  14.506  0.4234 -1.1616  0.0992
   7823SM   C4S10292   6.523   2.485  14.251  0.3708 -0.1382  0.4699
   7823SM   H4S10293   6.528   2.568  14.179 -0.5633  0.0600  0.6293
   7823SM   C5S10294   6.585   2.366  14.214  0.3547  0.1615  0.1751
   7823SM   H5S10295   6.600   2.286  14.287 -2.4448 -0.2064  0.4608
   7823SM   C6S10296   6.648   2.344  14.078 -0.2493 -0.3542 -0.1946
   7823SM   H6S10297   6.578   2.279  14.021  1.4055  0.5549 -3.5239
   7823SM   H6T10298   6.738   2.281  14.088 -0.5085 -0.6132  0.5295
   7823SM   C7S10299   6.686   2.470  13.992  0.8050 -0.0265 -0.3005
   7823SM   H7S10300   6.763   2.514  14.058 -0.6650 -0.4605  1.7982
   7823SM   H7T10301   6.602   2.542  13.984  0.6936  0.4202  3.4562
   7823SM   C8S10302   6.755   2.438  13.860 -0.3072 -0.3885  0.2207
   7823SM   H8S10303   6.844   2.377  13.883  1.2334  1.2802 -1.0490
   7823SM   H8T10304   6.793   2.535  13.821  0.3442 -0.4826  0.6066
   7823SM   C9S10305   6.650   2.379  13.764  0.3596  0.0806 -0.7037
   7823SM   H9S10306   6.570   2.456  13.764  0.0372 -0.2171  0.9797
   7823SM   H9T10307   6.607   2.283  13.802 -2.0527  1.0784 -0.7274
   7823SM  C10S10308   6.692   2.367  13.614  0.2810  0.0525  0.1647
   7823SM  H10S10309   6.778   2.296  13.612  0.6810  0.4628  1.5371
   7823SM  H10T10310   6.729   2.463  13.574 -2.3785  0.7898 -0.7275
   7823SM  C11S10311   6.567   2.340  13.526 -0.7694 -0.9427  0.7049
   7823SM  H11S10312   6.485   2.415  13.533 -0.1483 -0.1968  0.1996
   7823SM  H11T10313   6.526   2.246  13.568  0.8274 -1.9004  0.2290
   7823SM  C12S10314   6.598   2.332  13.380  0.4779  0.2934  0.2586
   7823SM  H12S10315   6.672   2.251  13.361 -0.1501 -0.5843  1.4106
   7823SM  H12T10316   6.636   2.426  13.336 -0.0449  0.8982  1.0625
   7823SM  C13S10317   6.473   2.296  13.304  0.2522  0.1018 -0.1221
   7823SM  H13S10318   6.400   2.379  13.295 -1.6129 -1.2579  1.3904
   7823SM  H13T10319   6.418   2.210  13.349 -1.3841  0.1724 -1.8261
   7823SM  C14S10320   6.494   2.259  13.156 -0.3846  0.4337 -0.2092
   7823SM  H14S10321   6.402   2.215  13.112 -0.1622 -0.4552  0.1811
   7823SM  H14T10322   6.568   2.176  13.150  0.7174  1.4880 -2.5348
   7823SM  C15S10323   6.560   2.369  13.073  0.3260  0.3917 -0.6717
   7823SM  H15S10324   6.648   2.404  13.131 -1.4044  1.0796  1.6871
   7823SM  H15T10325   6.487   2.453  13.069 -0.9301 -0.4062  2.4977
   7823SM  C16S10326   6.600   2.318  12.939  0.0002  0.1749  0.1713
   7823SM  H16S10327   6.606   2.208  12.945 -1.0628  0.0700 -0.4929
   7823SM  H16T10328   6.699   2.361  12.912 -0.0516 -0.2162 -0.6599
   7823SM  C17S10329   6.498   2.356  12.835  0.2588  0.7130 -0.2283
   7823SM  H17S10330   6.509   2.465  12.817  1.0452  0.7380  0.3151
   7823SM  H17T10331   6.402   2.339  12.887 -1.1358  1.6577 -2.3773
   7823SM  C18S10332   6.516   2.267  12.710  0.2406  0.0166 -0.0561
   7823SM  H18S10333   6.470   2.168  12.727 -1.1015  0.3629 -1.5054
   7823SM  H18T10334   6.618   2.265  12.666 -0.2596 -0.4667 -1.2421
   7823SM  H18U10335   6.456   2.318  12.632  0.5662  0.6351  0.0937
   7823SM   C1F10336   6.119   2.436  14.290  0.2541  0.2075  0.2705
   7823SM    OF10337   6.048   2.530  14.322  0.0797 -0.5529  0.1887
   7823SM   C2F10338   6.054   2.336  14.194  0.0473  0.1098  0.4915
   7823SM   H2F10339   5.945   2.357  14.200  0.1128  0.2455  1.3262
   7823SM   H2G10340   6.063   2.228  14.219  0.2518 -0.3281 -1.3142
   7823SM   C3F10341   6.089   2.352  14.044  0.2414 -0.0650  0.2884
   7823SM   H3F10342   6.073   2.460  14.024 -2.8218 -0.4270  0.3831
   7823SM   H3G10343   6.011   2.296  13.990  1.1489  0.3775 -1.5617
   7823SM   C4F10344   6.237   2.308  14.003  0.0366 -0.4258 -0.4677
   7823SM   H4F10345   6.255   2.204  14.036  0.6462 -0.1150  0.2270
   7823SM   H4G10346   6.308   2.371  14.062 -0.8089  0.1136  0.0006
   7823SM   C5F10347   6.252   2.335  13.856 -0.0190 -0.7006  0.5862
   7823SM   H5F10348   6.358   2.310  13.837  0.2916  1.2412 -0.4403
   7823SM   H5G10349   6.233   2.444  13.841  1.6740 -0.4691 -0.0385
   7823SM   C6F10350   6.157   2.258  13.762  0.1899 -0.3929  0.1446
   7823SM   H6F10351   6.050   2.286  13.768 -0.3510 -2.3368  0.2771
   7823SM   H6G10352   6.167   2.149  13.780  0.0508 -0.1019  2.2935
   7823SM   C7F10353   6.197   2.279  13.616  0.8109  0.3343  0.0924
   7823SM   H7F10354   6.297   2.240  13.587  0.4682 -0.3354 -0.2087
   7823SM   H7G10355   6.182   2.387  13.592 -0.2786  0.0220 -0.6810
   7823SM   C8F10356   6.087   2.211  13.525  0.6574 -0.4686  0.0212
   7823SM   H8F10357   5.988   2.240  13.568  1.4279  0.8783  0.9449
   7823SM   H8G10358   6.098   2.101  13.518 -1.6493 -0.6938 -1.2137
   7823SM   C9F10359   6.093   2.264  13.381 -0.1359 -0.4770  0.3939
   7823SM   H9F10360   6.194   2.269  13.334 -1.1959  1.3594 -1.9465
   7823SM   H9G10361   6.075   2.374  13.377  3.9144  0.3158  0.4366
   7823SM  C10F10362   6.002   2.174  13.293  1.2942  0.0314  0.5371
   7823SM  H10F10363   5.905   2.164  13.347  0.5300 -0.5352 -0.9075
   7823SM  H10G10364   6.058   2.078  13.295  2.1883  0.5257 -0.0623
   7823SM  C11F10365   5.993   2.210  13.141  0.5029  0.3850 -1.3303
   7823SM  H11F10366   6.092   2.224  13.093  1.4271  1.3474  0.7324
   7823SM  H11G10367   5.941   2.309  13.142 -3.2328 -1.3861  1.1145
   7823SM  C12F10368   5.905   2.115  13.057 -0.0497  0.1031 -0.2976
   7823SM  H12F10369   5.979   2.036  13.033  1.4658  1.6258 -0.8539
   7823SM  H12G10370   5.877   2.155  12.957 -1.2458 -0.5321 -0.2373
   7823SM  C13F10371   5.789   2.048  13.128  0.2383 -0.0058 -0.7708
   7823SM  H13F10372   5.715   2.128  13.147 -0.1908 -0.5151 -0.2678
   7823SM  H13G10373   5.822   2.002  13.224 -1.4122  0.7136  0.1693
   7823SM  C14F10374   5.715   1.939  13.042 -0.1045  0.1791  0.2018
   7823SM  H14F10375   5.674   1.996  12.955 -0.0389  0.4478  0.3454
   7823SM  H14G10376   5.637   1.883  13.098  1.2032 -2.4128 -0.3969
   7823SM  C15F10377   5.797   1.814  13.005  0.5065  0.1052  0.2544
   7823SM  H15F10378   5.831   1.767  13.099 -1.1005  0.1532  0.8895
   7823SM  H15G10379   5.883   1.854  12.947  0.4038 -0.7451 -0.5066
   7823SM  C16F10380   5.721   1.713  12.917 -0.5759  0.9055 -0.0127
   7823SM  H16F10381   5.634   1.674  12.973 -1.1611 -0.7656 -1.9760
   7823SM  H16G10382   5.786   1.626  12.894 -1.5209  0.6843 -2.0748
   7823SM  C17F10383   5.683   1.772  12.785 -0.4417 -0.4344 -0.3751
   7823SM  H17F10384   5.782   1.804  12.744  0.0926 -0.3206  0.9445
   7823SM  H17G10385   5.623   1.865  12.792 -0.0632  0.0122 -2.3953
   7823SM  C18F10386   5.606   1.670  12.691 -0.6338 -0.3713 -0.5997
   7823SM  H18F10387   5.517   1.632  12.746 -0.3924 -1.3919 -0.8945
   7823SM  H18G10388   5.679   1.589  12.669 -0.9991 -0.6430 -0.8315
   7823SM  C19F10389   5.556   1.737  12.560 -0.4415 -0.0620 -0.1838
   7823SM  H19F10390   5.641   1.768  12.495 -1.1113  1.6592 -0.3087
   7823SM  H19G10391   5.499   1.831  12.578  1.2660  1.2870 -1.4547
   7823SM  C20F10392   5.462   1.635  12.486  0.1029 -0.3907 -0.0517
   7823SM  H20F10393   5.398   1.586  12.562  0.2720 -1.1951 -0.4209
   7823SM  H20G10394   5.530   1.555  12.449 -0.9704 -2.1000  1.4803
   7823SM  C21F10395   5.380   1.689  12.365 -0.1038 -0.1591  0.3017
   7823SM  H21F10396   5.440   1.746  12.291  1.2271  1.2066  2.2951
   7823SM  H21G10397   5.307   1.760  12.408 -0.5401 -1.2485  1.4104
   7823SM  C22F10398   5.297   1.584  12.279 -0.7197  0.5692 -1.2258
   7823SM  H22F10399   5.263   1.515  12.360  0.4019  2.6161  1.1473
   7823SM  H22G10400   5.357   1.529  12.204 -1.0475 -2.8627  0.8012
   7823SM  C23F10401   5.172   1.646  12.219  0.5891  0.6509  0.6152
   7823SM  H23F10402   5.125   1.705  12.301  0.3837  0.1863  0.8351
   7823SM  H23G10403   5.102   1.567  12.185  1.3907  0.2654 -0.1852
   7823SM  H23H10404   5.190   1.713  12.132  0.2182  0.2520  0.2294
   7923SM     N10405   4.176   2.183  15.364 -0.6295 -0.1654 -0.3028
   7923SM   C1510406   4.175   2.229  15.220 -0.2683 -0.3999 -0.1138
   7923SM  H15A10407   4.127   2.154  15.158  0.4820  0.7311 -2.1652
   7923SM  H15B10408   4.276   2.250  15.189 -0.0508 -1.2218  0.0121
   7923SM  H15C10409   4.125   2.325  15.218 -0.1189 -0.3011  0.6255
   7923SM   C1410410   4.034   2.143  15.401 -0.4617 -0.0502 -0.2243
   7923SM  H14A10411   4.030   2.072  15.483 -1.1773  0.6639  0.3735
   7923SM  H14B10412   3.987   2.101  15.313 -1.0090  1.7328 -0.8176
   7923SM  H14C10413   3.977   2.224  15.444  1.1240  0.8990  0.1615
   7923SM   C1310414   4.257   2.056  15.376  0.7416 -0.0330 -0.6053
   7923SM  H13A10415   4.258   2.024  15.479  0.6334 -2.7759 -1.3713
   7923SM  H13B10416   4.358   2.075  15.342  0.4763  0.3792 -1.1647
   7923SM  H13C10417   4.213   1.978  15.316 -0.5476 -0.1911  0.5037
   7923SM   C1210418   4.222   2.286  15.463 -0.5897  0.4606 -0.2658
   7923SM  H12A10419   4.212   2.230  15.555  0.1593 -3.5601 -2.3954
   7923SM  H12B10420   4.164   2.376  15.460 -0.0868  0.7671 -1.8710
   7923SM   C1110421   4.370   2.332  15.444 -0.1090  0.2313 -0.0234
   7923SM  H11A10422   4.433   2.240  15.448 -0.8323 -0.2266  1.5660
   7923SM  H11B10423   4.410   2.392  15.528 -0.1291 -2.1896  1.8323
   7923SM     P10424   4.367   2.545  15.303 -0.2654 -0.3717  0.2759
   7923SM   O1310425   4.220   2.557  15.313 -0.2344  0.2685  0.1522
   7923SM   O1410426   4.448   2.638  15.389  0.4548  0.3439  0.0417
   7923SM   O1110427   4.401   2.574  15.153 -0.3977  0.1098  0.2519
   7923SM   O1210428   4.396   2.393  15.322 -0.1987  0.0011 -0.4705
   7923SM   C1S10429   4.354   2.494  15.037 -0.0604  0.0818 -0.8219
   7923SM   H1S10430   4.260   2.436  15.048 -0.6763  1.1781 -0.1739
   7923SM   H1T10431   4.433   2.420  15.012 -0.2798  0.2428 -2.0921
   7923SM    NF10432   4.261   2.524  14.797 -0.0033  0.0549 -0.2666
   7923SM   HNF10433   4.306   2.500  14.711  0.0618  0.3361 -0.3093
   7923SM   C2S10434   4.341   2.586  14.904 -0.4708  0.7850  0.1516
   7923SM   H2S10435   4.289   2.678  14.937  0.7558  0.9956  1.6145
   7923SM   C3S10436   4.486   2.634  14.865 -0.4669 -0.3922  0.3931
   7923SM   H3S10437   4.540   2.551  14.815 -2.1815 -1.0194 -0.4973
   7923SM    O310438   4.566   2.683  14.973 -0.1935 -0.2806  0.6670
   7923SM   HO310439   4.516   2.654  15.049  0.8358  0.2795  1.5816
   7923SM   C4S10440   4.468   2.738  14.758  0.5998  0.0494 -0.3047
   7923SM   H4S10441   4.464   2.695  14.656 -0.6374 -2.9847  0.8975
   7923SM   C5S10442   4.446   2.874  14.776  0.1505  0.5102 -0.1070
   7923SM   H5S10443   4.445   2.914  14.878  0.9570 -0.5077  0.3163
   7923SM   C6S10444   4.425   2.976  14.665 -0.1681  0.6098  0.2406
   7923SM   H6S10445   4.322   3.016  14.673 -1.4378 -2.2597 -0.2382
   7923SM   H6T10446   4.433   2.929  14.564 -3.5109 -2.2426  1.0969
   7923SM   C7S10447   4.528   3.090  14.684 -0.3505 -0.3741 -0.0877
   7923SM   H7S10448   4.629   3.050  14.663  1.1295  1.3087  3.2342
   7923SM   H7T10449   4.524   3.127  14.788 -3.1545  0.0102 -0.2521
   7923SM   C8S10450   4.508   3.213  14.596 -0.1617 -0.4901  0.8161
   7923SM   H8S10451   4.588   3.286  14.620  1.0225 -2.0484  1.8734
   7923SM   H8T10452   4.412   3.262  14.619 -1.4171 -1.1045 -2.4950
   7923SM   C9S10453   4.518   3.188  14.445  0.1635  0.1044  0.8006
   7923SM   H9S10454   4.432   3.119  14.431  0.8099 -0.3851 -1.0404
   7923SM   H9T10455   4.609   3.130  14.421 -0.4953 -2.2393  3.4073
   7923SM  C10S10456   4.492   3.315  14.359 -0.0471  1.0135  0.4839
   7923SM  H10S10457   4.571   3.385  14.393  1.6167  0.6544 -2.3147
   7923SM  H10T10458   4.398   3.362  14.394 -0.8923  0.8040 -1.3633
   7923SM  C11S10459   4.488   3.285  14.204  0.2855 -0.8087  0.0522
   7923SM  H11S10460   4.382   3.307  14.180  0.3602 -0.5824 -0.0720
   7923SM  H11T10461   4.502   3.180  14.169 -2.2980 -0.3207 -2.8989
   7923SM  C12S10462   4.570   3.389  14.135  0.4962 -0.1459 -0.1308
   7923SM  H12S10463   4.677   3.380  14.162  1.1677  1.2607 -2.1034
   7923SM  H12T10464   4.547   3.490  14.175  0.6390 -0.5178  0.9187
   7923SM  C13S10465   4.557   3.366  13.987  0.3927 -0.1471 -0.1468
   7923SM  H13S10466   4.449   3.369  13.963  0.1733  2.7112  0.8160
   7923SM  H13T10467   4.595   3.265  13.960 -1.9173 -0.6136 -1.9907
   7923SM  C14S10468   4.620   3.474  13.900 -0.6086  1.2441  0.0054
   7923SM  H14S10469   4.714   3.499  13.953 -1.0001  2.7205  0.0461
   7923SM  H14T10470   4.557   3.566  13.897 -0.8422  1.0611 -1.3108
   7923SM  C15S10471   4.651   3.412  13.762 -0.1401  0.0711 -0.5661
   7923SM  H15S10472   4.678   3.304  13.766 -0.2768  0.0243 -0.9152
   7923SM  H15T10473   4.726   3.472  13.707  0.2235 -1.9487 -2.4016
   7923SM  C16S10474   4.530   3.421  13.666  0.0812 -0.1549  0.1189
   7923SM  H16S10475   4.504   3.524  13.634 -0.6549 -0.7648 -1.3277
   7923SM  H16T10476   4.445   3.361  13.705  1.1891 -2.5397 -0.9073
   7923SM  C17S10477   4.583   3.364  13.537 -0.0546  0.5189 -0.1807
   7923SM  H17S10478   4.651   3.277  13.549 -0.0873  0.5106 -0.0495
   7923SM  H17T10479   4.644   3.444  13.490 -1.1738  0.8995 -1.0177
   7923SM  C18S10480   4.470   3.327  13.436  0.3689  0.3586 -0.7319
   7923SM  H18S10481   4.511   3.296  13.338  0.3109 -1.4222 -0.2197
   7923SM  H18T10482   4.402   3.415  13.431 -0.4413 -0.1020  1.1094
   7923SM  H18U10483   4.417   3.243  13.487  0.6017  1.1504  0.9001
   7923SM   C1F10484   4.132   2.484  14.815 -0.8605  0.7602 -0.2494
   7923SM    OF10485   4.074   2.517  14.915 -0.2149  0.2991  0.2410
   7923SM   C2F10486   4.067   2.411  14.702 -0.4081  0.1314  0.1685
   7923SM   H2F10487   4.108   2.308  14.715 -0.5713 -0.0405 -0.6633
   7923SM   H2G10488   4.106   2.458  14.609  0.4959  0.3390  0.6377
   7923SM   C3F10489   3.908   2.424  14.708 -0.1876  0.6511 -1.0097
   7923SM   H3F10490   3.864   2.526  14.708 -0.6207  0.4693 -0.3113
   7923SM   H3G10491   3.864   2.363  14.790  1.1511  1.0681  0.0450
   7923SM   C4F10492   3.860   2.363  14.575 -0.1423  0.4660  0.7315
   7923SM   H4F10493   3.750   2.376  14.569 -0.1291  0.0150 -2.6901
   7923SM   H4G10494   3.876   2.253  14.572 -2.7617 -0.1024  3.2857
   7923SM   C5F10495   3.910   2.442  14.452 -0.0298  0.6337 -0.3321
   7923SM   H5F10496   4.012   2.404  14.431  0.4423  1.4319  0.4452
   7923SM   H5G10497   3.922   2.552  14.468  1.1083  0.1605  2.6389
   7923SM   C6F10498   3.832   2.416  14.313  0.6714  0.2893  0.2226
   7923SM   H6F10499   3.732   2.465  14.309  0.9301  0.7516 -1.0226
   7923SM   H6G10500   3.835   2.306  14.304  3.9001  0.4056 -1.7583
   7923SM   C7F10501   3.913   2.460  14.191  0.3690 -0.3306 -0.0575
   7923SM   H7F10502   3.873   2.402  14.105  0.6480 -1.9632  0.8660
   7923SM   H7G10503   4.014   2.414  14.198  0.4110 -0.5059 -1.6081
   7923SM   C8F10504   3.917   2.610  14.181 -0.0653  0.5304  0.3210
   7923SM   H8F10505   3.971   2.645  14.272  0.6862  0.8660 -0.2404
   7923SM   H8G10506   3.814   2.650  14.187 -0.5845 -0.6495 -0.3931
   7923SM   C9F10507   3.987   2.667  14.061 -0.2925  0.3460  0.3251
   7923SM   H9F10508   4.094   2.653  14.088 -0.6007 -1.0782  0.9059
   7923SM   H9G10509   3.961   2.775  14.059  0.7119  0.6015 -0.0713
   7923SM  C10F10510   3.941   2.608  13.928 -0.4024 -0.3716 -0.0217
   7923SM  H10F10511   3.831   2.608  13.913 -0.9079  1.0906  2.9872
   7923SM  H10G10512   3.970   2.501  13.917 -0.4317 -0.2712 -1.1893
   7923SM  C11F10513   4.006   2.688  13.820 -0.4252  0.6843 -0.1494
   7923SM  H11F10514   4.116   2.687  13.807 -0.6912  0.7518 -2.7759
   7923SM  H11G10515   3.993   2.797  13.835 -0.2696  0.9376 -1.7521
   7923SM  C12F10516   3.947   2.650  13.680 -0.0495  0.0008 -0.3193
   7923SM  H12F10517   3.837   2.636  13.690 -0.4772  1.3024 -2.4420
   7923SM  H12G10518   3.989   2.551  13.654  1.2954  0.6222 -0.5619
   7923SM  C13F10519   3.972   2.772  13.583  0.2568 -0.0820 -0.5975
   7923SM  H13F10520   4.081   2.795  13.585  0.5193 -1.3174  0.3575
   7923SM  H13G10521   3.917   2.856  13.631  0.8332  0.6635 -1.2080
   7923SM  C14F10522   3.926   2.738  13.442  0.0650  0.1529 -0.1618
   7923SM  H14F10523   3.817   2.756  13.442  0.1543  0.7235  0.2538
   7923SM  H14G10524   3.938   2.628  13.429 -1.7981 -0.0001 -0.7823
   7923SM  C15F10525   3.998   2.813  13.327  0.4915 -0.6503  0.1083
   7923SM  H15F10526   4.106   2.786  13.334  0.7257  0.3205  0.4853
   7923SM  H15G10527   4.002   2.924  13.325  1.5507 -0.5849 -4.1424
   7923SM  C16F10528   3.946   2.782  13.193  0.3525  0.8339  0.2073
   7923SM  H16F10529   3.968   2.677  13.164 -0.4840  0.6983  0.0486
   7923SM  H16G10530   4.008   2.833  13.116  1.0085  0.5373  0.5251
   7923SM  C17F10531   3.799   2.795  13.168  0.0510 -0.1804  0.5999
   7923SM  H17F10532   3.768   2.900  13.187  0.7862  0.5107 -1.7133
   7923SM  H17G10533   3.739   2.725  13.230 -1.5787 -0.8972 -1.6395
   7923SM  C18F10534   3.757   2.762  13.024  0.1701  0.7423  0.0853
   7923SM  H18F10535   3.748   2.652  13.011 -0.9352  0.6897  1.1256
   7923SM  H18G10536   3.828   2.797  12.946  0.4629 -0.2062 -0.0945
   7923SM  C19F10537   3.620   2.819  12.979  0.2520  0.1059 -0.0158
   7923SM  H19F10538   3.610   2.925  13.010 -0.4329 -0.2517  1.0215
   7923SM  H19G10539   3.536   2.770  13.032 -0.0801  1.4537  0.7506
   7923SM  C20F10540   3.595   2.802  12.828  0.5795  0.1515  0.0815
   7923SM  H20F10541   3.600   2.692  12.814 -2.1659 -0.1385  0.6504
   7923SM  H20G10542   3.671   2.852  12.765  1.2948  0.6058  1.2733
   7923SM  C21F10543   3.457   2.832  12.768  0.2048  0.0371 -0.8199
   7923SM  H21F10544   3.478   2.931  12.722  2.5324  0.1541  0.2998
   7923SM  H21G10545   3.372   2.834  12.839  2.1059  1.6361  1.6331
   7923SM  C22F10546   3.423   2.742  12.651 -0.2221  0.1653  0.6325
   7923SM  H22F10547   3.506   2.749  12.577 -1.0415 -0.3608 -0.3570
   7923SM  H22G10548   3.340   2.791  12.596 -0.5458 -2.3024 -1.2290
   7923SM  C23F10549   3.384   2.597  12.687 -0.1099  0.0567  0.1883
   7923SM  H23F10550   3.362   2.538  12.596 -2.1171 -2.9119  2.4186
   7923SM  H23G10551   3.290   2.594  12.746  1.1609 -1.6054  2.2766
   7923SM  H23H10552   3.472   2.561  12.744  1.0923  0.7008 -1.1992
   8023SM     N10553   5.051   2.990  14.795 -0.1735  0.0929 -0.0464
   8023SM   C1510554   4.955   3.024  14.688  0.2050  0.4218  0.0483
   8023SM  H15A10555   4.950   3.132  14.681 -0.8403  0.3538 -0.3557
   8023SM  H15B10556   4.855   2.999  14.720  0.6902 -1.4364  0.2390
   8023SM  H15C10557   4.984   2.973  14.597  0.1351  0.9568 -0.2795
   8023SM   C1410558   5.023   3.063  14.922 -0.1005 -0.2556 -0.1653
   8023SM  H14A10559   4.921   3.048  14.955 -0.2372  0.2479 -0.3535
   8023SM  H14B10560   5.024   3.169  14.906  0.7354 -0.5125 -2.0707
   8023SM  H14C10561   5.094   3.040  15.001 -0.6040 -0.5378  0.2124
   8023SM   C1310562   5.045   2.848  14.829  0.2456 -0.3537 -0.4149
   8023SM  H13A10563   4.957   2.819  14.884  1.0187 -0.8411  0.6040
   8023SM  H13B10564   5.121   2.820  14.900 -0.1730 -0.9918 -0.2098
   8023SM  H13C10565   5.039   2.789  14.738 -1.8833 -0.5722 -0.1844
   8023SM   C1210566   5.185   3.034  14.741 -0.1706  0.7395 -0.5480
   8023SM  H12A10567   5.169   3.129  14.691  0.9044  0.4451 -1.4998
   8023SM  H12B10568   5.223   2.964  14.668  0.5973 -1.3584  1.7347
   8023SM   C1110569   5.300   3.057  14.841  0.7688 -0.0677  0.1694
   8023SM  H11A10570   5.271   3.131  14.918  2.0330  0.9471 -0.2951
   8023SM  H11B10571   5.385   3.105  14.789  1.0302  0.4597  1.0557
   8023SM     P10572   5.428   2.830  14.856 -0.1130  0.3709  0.0164
   8023SM   O1310573   5.569   2.880  14.859 -0.2143 -0.2710 -0.3441
   8023SM   O1410574   5.404   2.707  14.928  0.1301  0.0073  0.0782
   8023SM   O1110575   5.386   2.814  14.703  0.2291  0.2826 -0.0805
   8023SM   O1210576   5.330   2.941  14.919 -0.0383 -0.3960 -0.4168
   8023SM   C1S10577   5.479   2.778  14.596 -0.3118 -0.1323  0.2658
   8023SM   H1S10578   5.559   2.709  14.633  0.6339  0.7504 -0.0790
   8023SM   H1T10579   5.537   2.867  14.565  1.5112 -1.0458  0.8461
   8023SM    NF10580   5.501   2.702  14.370 -0.0227  0.2151  0.2382
   8023SM   HNF10581   5.480   2.766  14.297  2.1382  1.2640  0.4767
   8023SM   C2S10582   5.405   2.719  14.471 -0.3253  0.2156  0.3417
   8023SM   H2S10583   5.358   2.622  14.495  1.8192 -1.0076 -0.1009
   8023SM   C3S10584   5.294   2.809  14.423  0.7052 -0.3710  0.7393
   8023SM   H3S10585   5.331   2.911  14.397 -1.1654  0.4361  1.0255
   8023SM    O310586   5.199   2.834  14.523  0.1641  0.0902 -0.8329
   8023SM   HO310587   5.246   2.798  14.598 -0.0883  1.1550 -0.1557
   8023SM   C4S10588   5.216   2.749  14.304  0.2553 -0.2619  0.4817
   8023SM   H4S10589   5.164   2.656  14.330  1.6608 -1.3973 -0.5643
   8023SM   C5S10590   5.210   2.803  14.176 -0.1850 -0.5006  0.0538
   8023SM   H5S10591   5.260   2.898  14.154 -1.0755 -0.6841 -3.5282
   8023SM   C6S10592   5.135   2.750  14.064 -0.4509  0.2811  0.5093
   8023SM   H6S10593   5.051   2.818  14.036 -1.2348 -0.7125  0.3972
   8023SM   H6T10594   5.085   2.654  14.088 -0.7893 -0.1810 -1.8182
   8023SM   C7S10595   5.223   2.732  13.935 -0.2840 -0.7885  0.1342
   8023SM   H7S10596   5.322   2.684  13.955  0.2482  0.9578  2.0340
   8023SM   H7T10597   5.248   2.835  13.901 -3.2548 -0.4751 -1.4617
   8023SM   C8S10598   5.145   2.665  13.820  0.3236  0.3981  0.2311
   8023SM   H8S10599   5.052   2.726  13.821 -0.2782 -0.1749 -3.5257
   8023SM   H8T10600   5.109   2.566  13.855 -0.5875  0.4925 -0.3983
   8023SM   C9S10601   5.214   2.675  13.689  0.0891 -0.2352  0.5056
   8023SM   H9S10602   5.293   2.596  13.698 -0.1873 -0.4438  1.2254
   8023SM   H9T10603   5.263   2.774  13.683 -0.5683  0.0218 -0.9560
   8023SM  C10S10604   5.125   2.664  13.564  0.0775 -0.2555 -0.2018
   8023SM  H10S10605   5.028   2.716  13.581  1.9963  3.7466 -0.1296
   8023SM  H10T10606   5.098   2.557  13.550 -1.3848 -0.4651  3.2725
   8023SM  C11S10607   5.205   2.706  13.445  0.5056 -0.1010  0.3995
   8023SM  H11S10608   5.298   2.647  13.432  0.7122  0.7029 -2.3038
   8023SM  H11T10609   5.248   2.806  13.467  1.3521  0.0201 -1.5896
   8023SM  C12S10610   5.121   2.704  13.315 -0.1147 -0.1692 -0.5655
   8023SM  H12S10611   5.054   2.792  13.328  0.3609  0.0184  0.7348
   8023SM  H12T10612   5.067   2.607  13.311  0.8778 -0.8521  1.4884
   8023SM  C13S10613   5.202   2.727  13.184  0.7417 -0.8535 -0.1173
   8023SM  H13S10614   5.268   2.638  13.171  0.3023 -0.9429 -2.1495
   8023SM  H13T10615   5.263   2.817  13.205 -3.1678  1.8454  0.8583
   8023SM  C14S10616   5.118   2.738  13.056 -0.9446  0.2393  0.3672
   8023SM  H14S10617   5.042   2.819  13.062 -1.4744 -0.1009 -1.1885
   8023SM  H14T10618   5.056   2.646  13.051 -1.2300  0.3217  1.9170
   8023SM  C15S10619   5.216   2.764  12.937  0.2941 -0.1408  0.7010
   8023SM  H15S10620   5.269   2.667  12.928 -2.2206 -1.7483  2.0803
   8023SM  H15T10621   5.282   2.847  12.969  1.5151 -1.6186  2.2122
   8023SM  C16S10622   5.143   2.799  12.803  0.1043 -0.0289  0.9689
   8023SM  H16S10623   5.056   2.863  12.830 -1.8640 -2.2594  0.3057
   8023SM  H16T10624   5.105   2.708  12.752  0.9584  0.2080 -0.1154
   8023SM  C17S10625   5.229   2.881  12.708 -0.2441  0.2947  0.6321
   8023SM  H17S10626   5.184   2.885  12.606 -1.1375 -0.9956  0.9558
   8023SM  H17T10627   5.330   2.835  12.708 -0.1243  0.3444 -2.2890
   8023SM  C18S10628   5.249   3.027  12.746 -0.2561  0.6555 -0.2827
   8023SM  H18S10629   5.292   3.045  12.847 -1.1038 -1.8790  0.6144
   8023SM  H18T10630   5.145   3.066  12.745 -1.0887 -1.3968  0.0986
   8023SM  H18U10631   5.306   3.084  12.670  2.3819 -1.3034  0.0906
   8023SM   C1F10632   5.603   2.619  14.369  0.5960 -0.8221 -0.4704
   8023SM    OF10633   5.609   2.531  14.456  0.5861  0.4345  0.2009
   8023SM   C2F10634   5.716   2.642  14.278  0.0137 -0.0865 -0.1062
   8023SM   H2F10635   5.804   2.643  14.346 -0.3299 -1.4737  0.3970
   8023SM   H2G10636   5.704   2.735  14.219 -1.3432  0.3425  0.7985
   8023SM   C3F10637   5.727   2.515  14.189 -0.6025 -0.5259 -0.1272
   8023SM   H3F10638   5.758   2.433  14.257  1.5473 -1.1585 -1.7503
   8023SM   H3G10639   5.813   2.537  14.122 -1.1328  3.6020  0.2828
   8023SM   C4F10640   5.603   2.501  14.096  0.0148 -0.1218 -0.1542
   8023SM   H4F10641   5.599   2.588  14.028  2.5533 -0.3408 -0.6477
   8023SM   H4G10642   5.513   2.493  14.161  1.6069 -1.4177  2.0282
   8023SM   C5F10643   5.588   2.369  14.017 -0.2224 -0.0960 -0.5434
   8023SM   H5F10644   5.479   2.352  14.002 -0.4615 -1.5754  2.3268
   8023SM   H5G10645   5.614   2.300  14.100 -1.6926 -0.1135 -0.0581
   8023SM   C6F10646   5.674   2.355  13.887 -0.5075  0.1487 -0.4550
   8023SM   H6F10647   5.678   2.254  13.841 -0.5823 -0.6316  1.1773
   8023SM   H6G10648   5.781   2.371  13.914 -1.0109  0.5466  1.4693
   8023SM   C7F10649   5.622   2.450  13.771  0.2821  0.0972 -0.0904
   8023SM   H7F10650   5.620   2.554  13.811 -2.3540  0.3644 -0.7643
   8023SM   H7G10651   5.517   2.434  13.738 -0.4802 -0.0997  2.2490
   8023SM   C8F10652   5.703   2.451  13.646  0.0340  0.2851  0.3126
   8023SM   H8F10653   5.680   2.358  13.591  0.1527  1.1077 -1.1856
   8023SM   H8G10654   5.813   2.451  13.661  0.2550  1.0430 -1.1282
   8023SM   C9F10655   5.682   2.579  13.561 -0.0023  0.2774 -0.3296
   8023SM   H9F10656   5.738   2.662  13.608  1.1946  0.7852 -2.5125
   8023SM   H9G10657   5.573   2.598  13.577 -0.2202 -1.8039  1.0677
   8023SM  C10F10658   5.706   2.573  13.414 -0.2061 -0.0934  0.1892
   8023SM  H10F10659   5.814   2.547  13.403  0.8291  2.9047  2.0813
   8023SM  H10G10660   5.699   2.671  13.361 -2.3983 -0.1216  0.3583
   8023SM  C11F10661   5.619   2.470  13.339  0.3150  0.3678 -0.1893
   8023SM  H11F10662   5.517   2.489  13.378 -0.3042 -3.7519  0.7063
   8023SM  H11G10663   5.652   2.370  13.375  2.0719  1.1719  0.5302
   8023SM  C12F10664   5.618   2.483  13.192 -0.2277 -0.1406  0.4351
   8023SM  H12F10665   5.719   2.481  13.144 -0.3649  0.9199  0.0563
   8023SM  H12G10666   5.587   2.588  13.169  0.4072 -0.1863 -0.7569
   8023SM  C13F10667   5.518   2.387  13.121  0.1110 -0.7408  0.3040
   8023SM  H13F10668   5.432   2.397  13.190 -0.3976  1.4559 -0.5602
   8023SM  H13G10669   5.560   2.284  13.124  0.6138 -0.5271  1.6392
   8023SM  C14F10670   5.491   2.420  12.973 -0.3496 -0.5376  0.2631
   8023SM  H14F10671   5.575   2.474  12.924 -1.6427 -0.5897 -2.1814
   8023SM  H14G10672   5.407   2.492  12.963 -1.4887 -1.7056  1.0717
   8023SM  C15F10673   5.448   2.296  12.899  0.0451  0.4700  0.3647
   8023SM  H15F10674   5.343   2.267  12.924  0.0954  0.5665  0.7000
   8023SM  H15G10675   5.518   2.210  12.907 -1.3631 -0.6731  0.8333
   8023SM  C16F10676   5.447   2.326  12.746 -0.0362  0.6561  0.4603
   8023SM  H16F10677   5.548   2.361  12.715  0.1811  0.5079  0.9823
   8023SM  H16G10678   5.374   2.408  12.729 -0.0555  0.6454  0.4911
   8023SM  C17F10679   5.420   2.205  12.660  0.1483  0.7532  0.2561
   8023SM  H17F10680   5.315   2.178  12.684  0.3779 -0.9732 -0.5730
   8023SM  H17G10681   5.496   2.133  12.695  0.0510 -0.2370 -1.4328
   8023SM  C18F10682   5.440   2.230  12.511 -0.3608  0.1995  0.8001
   8023SM  H18F10683   5.547   2.238  12.483 -0.4750 -0.7981  0.0370
   8023SM  H18G10684   5.385   2.323  12.484  0.1587 -0.0506 -1.2224
   8023SM  C19F10685   5.381   2.112  12.436  0.3680 -0.4001  0.0750
   8023SM  H19F10686   5.276   2.087  12.465  0.2748 -0.6438 -0.4526
   8023SM  H19G10687   5.447   2.027  12.462 -0.3255 -0.7223  0.8272
   8023SM  C20F10688   5.381   2.128  12.285 -0.1122  0.9566 -0.8773
   8023SM  H20F10689   5.365   2.026  12.243 -0.4948  0.1260  1.1260
   8023SM  H20G10690   5.473   2.173  12.243  0.5985 -0.7243 -1.2015
   8023SM  C21F10691   5.259   2.207  12.243 -0.1154 -0.5249  0.5484
   8023SM  H21F10692   5.275   2.312  12.274  0.2520 -0.4264  0.0457
   8023SM  H21G10693   5.169   2.166  12.294  0.3569  0.5650  2.3493
   8023SM  C22F10694   5.247   2.197  12.085  0.4646  0.4564  0.1765
   8023SM  H22F10695   5.248   2.088  12.061  1.2423  0.1664  1.4358
   8023SM  H22G10696   5.328   2.245  12.027 -0.9785  2.1948 -0.4886
   8023SM  C23F10697   5.112   2.251  12.034  0.0040 -0.4078  0.3367
   8023SM  H23F10698   5.029   2.235  12.107 -0.8329 -0.1898 -0.5489
   8023SM  H23G10699   5.081   2.216  11.934  1.9966  0.4790 -0.6504
   8023SM  H23H10700   5.103   2.361  12.021 -1.8841 -0.4155  1.1797
   8123SM     N10701   3.084   1.019   9.344  0.7865 -0.0215 -0.8159
   8123SM   C1510702   2.961   1.105   9.317  0.4237 -0.3895  1.3000
   8123SM  H15A10703   2.867   1.056   9.339  0.0890 -0.3360  0.0558
   8123SM  H15B10704   2.962   1.138   9.214  0.0076 -1.7749  0.8187
   8123SM  H15C10705   2.964   1.181   9.393 -2.2884  0.7665  0.3743
   8123SM   C1410706   3.211   1.094   9.312 -0.3415 -0.7738  0.2138
   8123SM  H14A10707   3.297   1.047   9.359 -0.4018  0.9462  2.1626
   8123SM  H14B10708   3.219   1.191   9.359  1.5773  0.0932 -1.7078
   8123SM  H14C10709   3.230   1.107   9.206 -0.0670  0.1787  0.3765
   8123SM   C1310710   3.094   0.980   9.486  0.2475  0.6896  0.4959
   8123SM  H13A10711   3.109   1.069   9.544 -1.5253  0.1541  1.8338
   8123SM  H13B10712   3.173   0.906   9.496  0.4900  0.3768 -2.5917
   8123SM  H13C10713   3.002   0.942   9.527  0.3063  0.7925  0.7254
   8123SM   C1210714   3.098   0.890   9.259 -0.1887 -0.2519 -0.5412
   8123SM  H12A10715   3.199   0.852   9.269  0.3221  0.7098 -1.7893
   8123SM  H12B10716   3.095   0.923   9.156 -0.0818 -1.8909 -1.0999
   8123SM   C1110717   3.001   0.771   9.283 -0.2867 -1.0348  0.5965
   8123SM  H11A10718   3.012   0.710   9.191  0.5957  1.9597 -1.4388
   8123SM  H11B10719   2.893   0.798   9.278 -0.1478 -0.6273 -2.8097
   8123SM     P10720   3.039   0.553   9.427  0.0581  0.2573  0.1006
   8123SM   O1310721   2.905   0.507   9.388  0.1974  0.0450  0.3890
   8123SM   O1410722   3.156   0.482   9.379 -0.4746 -0.2404  0.1028
   8123SM   O1110723   3.038   0.548   9.582 -0.1003 -0.0643  0.5043
   8123SM   O1210724   3.050   0.703   9.393 -0.3465 -0.3051 -0.2690
   8123SM   C1S10725   3.108   0.640   9.660  0.0624 -0.1738 -0.3112
   8123SM   H1S10726   3.066   0.742   9.645 -2.8744 -1.3401 -0.6725
   8123SM   H1T10727   3.218   0.640   9.646  0.2533  1.6030  0.8233
   8123SM    NF10728   3.151   0.722   9.897  0.1143  0.6042  0.3131
   8123SM   HNF10729   3.226   0.706   9.961 -0.8938  1.3589  1.7617
   8123SM   C2S10730   3.096   0.606   9.816 -0.4364 -0.8633 -0.2951
   8123SM   H2S10731   2.986   0.612   9.824 -0.3904  1.0395 -0.7373
   8123SM   C3S10732   3.157   0.470   9.865  0.1560  0.1856 -0.7544
   8123SM   H3S10733   3.267   0.476   9.875  0.0144 -0.0067  1.2148
   8123SM    O310734   3.131   0.358   9.781  0.0224  0.4760 -0.1670
   8123SM   HO310735   3.099   0.396   9.699  3.0161  1.3650 -1.0811
   8123SM   C4S10736   3.111   0.448  10.005  0.3356 -0.0175  0.0913
   8123SM   H4S10737   3.187   0.487  10.076  1.2554 -1.1806 -0.2222
   8123SM   C5S10738   2.995   0.406  10.060 -0.0402  0.0976  0.2384
   8123SM   H5S10739   2.906   0.374  10.005 -0.5177  0.0685  1.0155
   8123SM   C6S10740   2.958   0.423  10.205  0.2708 -0.3519 -0.6325
   8123SM   H6S10741   2.943   0.321  10.246  1.2172 -0.2921 -0.0890
   8123SM   H6T10742   2.857   0.463  10.225 -0.7605 -3.5604  1.3512
   8123SM   C7S10743   3.056   0.496  10.301  0.8609 -0.0701 -0.0162
   8123SM   H7S10744   3.051   0.604  10.276  1.5282 -0.1026 -0.3199
   8123SM   H7T10745   3.163   0.467  10.297  0.9177 -0.4106  2.2692
   8123SM   C8S10746   3.030   0.473  10.448 -0.2730 -0.5963 -0.9272
   8123SM   H8S10747   3.006   0.365  10.456  0.0410 -0.5959  0.2260
   8123SM   H8T10748   2.953   0.547  10.479  0.6664  0.4180 -0.9696
   8123SM   C9S10749   3.155   0.489  10.532  0.0940 -0.2693  0.3241
   8123SM   H9S10750   3.171   0.598  10.523 -1.3071 -0.2347 -4.3966
   8123SM   H9T10751   3.236   0.430  10.483  0.5727 -0.5734  1.4516
   8123SM  C10S10752   3.109   0.448  10.676  0.2121  0.1252  0.1010
   8123SM  H10S10753   3.070   0.344  10.670  0.6653 -0.0805  0.7512
   8123SM  H10T10754   3.016   0.498  10.711 -1.0384 -2.3604  0.5593
   8123SM  C11S10755   3.216   0.458  10.779 -0.7007  0.7679 -0.7593
   8123SM  H11S10756   3.255   0.561  10.767 -0.1879  1.1364  2.8390
   8123SM  H11T10757   3.307   0.398  10.755 -0.5991  0.6090 -0.0028
   8123SM  C12S10758   3.162   0.418  10.924  0.0235 -0.4767 -0.4788
   8123SM  H12S10759   3.100   0.327  10.910  0.4395 -0.6251 -1.4575
   8123SM  H12T10760   3.100   0.496  10.972 -2.2408 -2.0950 -0.6231
   8123SM  C13S10761   3.275   0.389  11.023 -0.0276 -0.1189 -0.5346
   8123SM  H13S10762   3.339   0.475  11.050  0.8895 -1.4353  1.7322
   8123SM  H13T10763   3.336   0.310  10.975  0.5583 -0.1640  0.2758
   8123SM  C14S10764   3.222   0.315  11.149  0.4844  0.2409 -0.9147
   8123SM  H14S10765   3.306   0.256  11.191  0.5161  1.5060  0.9110
   8123SM  H14T10766   3.143   0.241  11.124 -0.0192  0.7387 -0.8466
   8123SM  C15S10767   3.182   0.423  11.253  0.6825 -0.0894 -0.1827
   8123SM  H15S10768   3.123   0.504  11.205 -0.0495 -1.3867 -1.5736
   8123SM  H15T10769   3.278   0.475  11.272  1.5701 -0.7175 -2.5077
   8123SM  C16S10770   3.126   0.375  11.388 -0.0212  0.0212 -0.3507
   8123SM  H16S10771   3.040   0.309  11.365  1.2016 -1.3219 -1.3190
   8123SM  H16T10772   3.092   0.461  11.448  0.4790  1.6675 -2.2947
   8123SM  C17S10773   3.227   0.302  11.473  0.3282 -0.6883 -0.1895
   8123SM  H17S10774   3.328   0.339  11.446  0.4465  0.5937  1.8028
   8123SM  H17T10775   3.225   0.194  11.448  1.1869 -0.3649 -1.7529
   8123SM  C18S10776   3.224   0.334  11.625 -0.4414  0.1194  0.3897
   8123SM  H18S10777   3.120   0.312  11.658 -0.4799  0.6313  0.6203
   8123SM  H18T10778   3.248   0.441  11.644 -0.5205  1.2500 -4.4372
   8123SM  H18U10779   3.296   0.275  11.685 -0.9567 -1.1546 -0.2108
   8123SM   C1F10780   3.105   0.849   9.894 -0.0902  0.2452  0.4747
   8123SM    OF10781   3.000   0.862   9.835  0.2311 -0.1082 -0.3724
   8123SM   C2F10782   3.178   0.964   9.957  0.4625 -0.5463  1.0850
   8123SM   H2F10783   3.253   1.008   9.888  1.0134 -1.2955  1.1982
   8123SM   H2G10784   3.238   0.930  10.043  1.8711 -0.8608  0.0107
   8123SM   C3F10785   3.084   1.082   9.999  0.6158 -0.7991  0.4384
   8123SM   H3F10786   3.038   1.125   9.907 -0.4056 -0.4392  1.0852
   8123SM   H3G10787   3.140   1.167  10.044 -1.8788  0.6624  0.9764
   8123SM   C4F10788   2.972   1.043  10.096  0.5808 -0.7150  0.1198
   8123SM   H4F10789   2.902   0.965  10.061  1.5336 -1.3361 -0.4411
   8123SM   H4G10790   2.904   1.126  10.126  0.6778 -1.1251  1.5888
   8123SM   C5F10791   3.018   0.984  10.231 -0.3565  0.0302 -0.3431
   8123SM   H5F10792   3.100   0.912  10.211  1.1534  1.3976  0.6417
   8123SM   H5G10793   2.936   0.928  10.280  0.6026  0.7631  2.2149
   8123SM   C6F10794   3.084   1.087  10.330 -0.7010  0.2715  0.4414
   8123SM   H6F10795   3.013   1.166  10.362 -0.7747  0.5713 -0.4527
   8123SM   H6G10796   3.155   1.136  10.260 -0.0406 -1.6124 -0.2693
   8123SM   C7F10797   3.158   1.023  10.453  0.7009  0.2460 -1.1306
   8123SM   H7F10798   3.247   1.086  10.468 -2.0030  3.6849  2.6441
   8123SM   H7G10799   3.192   0.917  10.443  0.2437  0.0991 -1.2009
   8123SM   C8F10800   3.068   1.015  10.586  1.0768  0.0584  0.1424
   8123SM   H8F10801   2.972   0.981  10.542 -0.4481  3.4146  0.5294
   8123SM   H8G10802   3.036   1.118  10.613 -0.1250  0.3739 -2.2733
   8123SM   C9F10803   3.135   0.948  10.707  0.0714  0.4101  0.1573
   8123SM   H9F10804   3.224   1.012  10.729 -0.0307 -0.0755  2.1306
   8123SM   H9G10805   3.178   0.854  10.667 -1.6521 -0.1544 -0.4781
   8123SM  C10F10806   3.048   0.925  10.834 -0.4294  0.3283 -0.8984
   8123SM  H10F10807   2.956   0.872  10.802 -1.2906  0.1499  1.7027
   8123SM  H10G10808   3.013   1.024  10.870  0.9693  0.1219  1.1881
   8123SM  C11F10809   3.120   0.850  10.943 -0.4952  0.5147 -0.6415
   8123SM  H11F10810   3.221   0.896  10.946 -0.2748  0.0876 -1.2947
   8123SM  H11G10811   3.139   0.743  10.920 -1.7689 -0.0932  0.9373
   8123SM  C12F10812   3.073   0.848  11.091  0.1348  0.4638  0.5945
   8123SM  H12F10813   2.982   0.784  11.085 -0.5594  1.5512 -3.1473
   8123SM  H12G10814   3.032   0.949  11.111 -0.0519  0.2782  1.1588
   8123SM  C13F10815   3.172   0.808  11.199 -0.1808 -0.2295  0.1093
   8123SM  H13F10816   3.257   0.877  11.180  0.7492 -0.1905  3.6523
   8123SM  H13G10817   3.199   0.702  11.178  0.5811  0.3850 -2.3787
   8123SM  C14F10818   3.120   0.822  11.342 -0.7799  0.0839  0.7774
   8123SM  H14F10819   3.032   0.756  11.359  0.5127 -1.9756 -0.1091
   8123SM  H14G10820   3.081   0.925  11.354  0.1294  0.4082  1.1059
   8123SM  C15F10821   3.229   0.794  11.442  0.3525 -0.2130 -0.4790
   8123SM  H15F10822   3.324   0.852  11.430  0.5404 -0.2323  0.7778
   8123SM  H15G10823   3.252   0.687  11.425 -0.8179 -0.2795 -1.8341
   8123SM  C16F10824   3.187   0.811  11.589 -0.2785  0.1059  0.4496
   8123SM  H16F10825   3.256   0.757  11.657  0.9041  0.5306 -0.3683
   8123SM  H16G10826   3.084   0.771  11.600 -0.3052  0.7072  3.1978
   8123SM  C17F10827   3.198   0.963  11.634  0.1548 -0.3016 -0.9334
   8123SM  H17F10828   3.164   1.028  11.551  1.9897  2.4685  0.3463
   8123SM  H17G10829   3.304   0.996  11.643 -0.0927 -0.0508  1.9068
   8123SM  C18F10830   3.134   0.998  11.767 -0.6219  0.7976  0.4198
   8123SM  H18F10831   3.181   0.931  11.842 -1.4049 -2.7672 -2.0691
   8123SM  H18G10832   3.025   0.984  11.748 -0.5568  0.7227  0.0976
   8123SM  C19F10833   3.158   1.149  11.794 -0.5572  0.0714 -0.2363
   8123SM  H19F10834   3.134   1.201  11.698  0.5239 -0.8948 -1.0513
   8123SM  H19G10835   3.263   1.172  11.824 -0.1778 -1.2523 -0.4810
   8123SM  C20F10836   3.062   1.203  11.913  0.7095 -0.4456 -0.5571
   8123SM  H20F10837   3.094   1.148  12.004 -1.8026 -1.7756 -0.3950
   8123SM  H20G10838   2.954   1.184  11.896  0.5430  0.8537 -1.0473
   8123SM  C21F10839   3.082   1.356  11.922  0.6295  0.1577 -0.1684
   8123SM  H21F10840   3.181   1.388  11.962 -0.2307  0.5917  1.7310
   8123SM  H21G10841   2.999   1.383  11.991 -0.8935 -1.4730 -1.2741
   8123SM  C22F10842   3.045   1.433  11.798  0.4975  0.9327 -0.0827
   8123SM  H22F10843   2.960   1.387  11.743  0.8550 -0.3949  0.4451
   8123SM  H22G10844   3.129   1.415  11.727  1.0322 -0.3939  0.8655
   8123SM  C23F10845   3.041   1.588  11.811  0.8979 -0.2003 -0.4264
   8123SM  H23F10846   3.012   1.650  11.724 -1.7301  0.0591  0.5476
   8123SM  H23G10847   3.137   1.628  11.852  0.3521  0.0494  0.6594
   8123SM  H23H10848   2.970   1.613  11.893  1.6348  0.6208 -0.0232
   8223SM     N10849   2.744   1.979   9.399 -0.2665  0.2857 -0.0643
   8223SM   C1510850   2.674   2.112   9.379  0.6767 -0.6318  0.6272
   8223SM  H15A10851   2.732   2.183   9.321 -0.0969 -0.3183  0.2095
   8223SM  H15B10852   2.659   2.164   9.473  2.0170  0.7129  0.1428
   8223SM  H15C10853   2.585   2.092   9.321  2.3354  0.7845 -2.6545
   8223SM   C1410854   2.760   1.910   9.264 -0.3709 -0.1673 -0.8269
   8223SM  H14A10855   2.809   1.815   9.266 -1.3948 -0.7036  1.0368
   8223SM  H14B10856   2.822   1.971   9.199  0.0891  1.4855  1.0521
   8223SM  H14C10857   2.663   1.899   9.217 -1.1316  1.1817  0.3273
   8223SM   C1310858   2.879   1.995   9.459  0.5321  0.0095 -0.0898
   8223SM  H13A10859   2.946   2.055   9.400 -0.0482  0.0698 -0.6950
   8223SM  H13B10860   2.921   1.896   9.465 -1.1241 -0.7626 -0.6252
   8223SM  H13C10861   2.863   2.018   9.564 -0.1995  0.3599 -0.2723
   8223SM   C1210862   2.656   1.885   9.481  0.7217 -0.8396 -0.1024
   8223SM  H12A10863   2.568   1.860   9.424  1.4811 -1.8005 -0.8794
   8223SM  H12B10864   2.617   1.941   9.565  1.5361 -0.8843  0.3139
   8223SM   C1110865   2.718   1.754   9.513 -0.9085  1.0454  0.2062
   8223SM  H11A10866   2.793   1.781   9.589 -0.3097  2.2594 -0.7747
   8223SM  H11B10867   2.774   1.698   9.435 -2.1592  0.8088 -0.5543
   8223SM     P10868   2.560   1.677   9.709 -0.3358 -0.3409  0.0477
   8223SM   O1310869   2.537   1.819   9.749  0.0391  0.0885  0.0771
   8223SM   O1410870   2.448   1.572   9.722 -0.4449 -0.5710 -0.0109
   8223SM   O1110871   2.683   1.612   9.785  0.0068 -0.0060 -0.2168
   8223SM   O1210872   2.614   1.665   9.555  0.2672 -0.3643 -0.2437
   8223SM   C1S10873   2.677   1.575   9.918  0.7685  0.3390 -0.1204
   8223SM   H1S10874   2.600   1.497   9.935  3.3371 -1.8641  2.2421
   8223SM   H1T10875   2.655   1.667   9.976 -0.7147  0.1735 -0.3804
   8223SM    NF10876   2.816   1.510  10.114 -0.5831  0.0313 -0.8700
   8223SM   HNF10877   2.879   1.571  10.161  1.6092 -0.0362 -3.4896
   8223SM   C2S10878   2.823   1.533   9.975 -0.1279  0.0160  0.1576
   8223SM   H2S10879   2.852   1.434   9.934  0.7667  0.1612  0.4099
   8223SM   C3S10880   2.939   1.622   9.929  0.7671 -0.0368  0.2000
   8223SM   H3S10881   2.917   1.729   9.952 -1.9829 -0.1393 -1.4631
   8223SM    O310882   2.953   1.615   9.788  0.0419  0.3688 -0.1258
   8223SM   HO310883   2.860   1.606   9.768 -0.1293 -0.9503  1.1041
   8223SM   C4S10884   3.066   1.582   9.984 -0.0682 -0.0736 -0.4479
   8223SM   H4S10885   3.109   1.659  10.049 -1.6475 -0.3604  1.0158
   8223SM   C5S10886   3.139   1.468   9.969  0.1245  0.1176 -0.4713
   8223SM   H5S10887   3.090   1.385   9.915 -0.0029 -0.4975  0.5638
   8223SM   C6S10888   3.269   1.433  10.042 -0.0086 -0.0414 -0.0005
   8223SM   H6S10889   3.356   1.449   9.974  0.2912 -1.5671 -0.0120
   8223SM   H6T10890   3.268   1.324  10.065  0.0222  0.2599  1.5578
   8223SM   C7S10891   3.291   1.505  10.179  0.1357 -0.2284 -0.2589
   8223SM   H7S10892   3.295   1.616  10.176  2.6908 -0.2330  0.4796
   8223SM   H7T10893   3.395   1.491  10.217  0.0143 -2.1484 -0.5296
   8223SM   C8S10894   3.201   1.451  10.290 -0.3618 -0.3224 -0.1256
   8223SM   H8S10895   3.198   1.340  10.284 -0.4347 -0.5521  2.9136
   8223SM   H8T10896   3.095   1.484  10.288 -0.1014  0.5517  0.2705
   8223SM   C9S10897   3.250   1.476  10.434  0.1797 -0.0561  0.1105
   8223SM   H9S10898   3.237   1.586  10.446 -1.2263 -0.1324 -0.5079
   8223SM   H9T10899   3.358   1.460  10.454 -0.2696 -0.3364  2.7103
   8223SM  C10S10900   3.167   1.409  10.543 -0.8812  0.4964 -0.1759
   8223SM  H10S10901   3.177   1.299  10.533  0.6219  0.2577  2.8494
   8223SM  H10T10902   3.062   1.439  10.521 -0.4215  1.2845 -1.3923
   8223SM  C11S10903   3.218   1.454  10.680  0.0832  0.0889  0.7215
   8223SM  H11S10904   3.211   1.565  10.673 -2.0979 -0.0899 -1.6980
   8223SM  H11T10905   3.328   1.439  10.681  0.3426  1.7787  2.0871
   8223SM  C12S10906   3.155   1.368  10.791 -0.7586 -0.0251  0.1818
   8223SM  H12S10907   3.188   1.263  10.776  0.5373  0.3217  0.5046
   8223SM  H12T10908   3.044   1.375  10.779 -0.8513  0.0361  1.0478
   8223SM  C13S10909   3.210   1.398  10.927 -0.0326 -0.3058  0.4605
   8223SM  H13S10910   3.195   1.507  10.945  1.6088  0.1359 -0.6506
   8223SM  H13T10911   3.319   1.379  10.919  0.1172  1.0092 -1.2353
   8223SM  C14S10912   3.145   1.315  11.034  0.2700  0.3138 -0.5757
   8223SM  H14S10913   3.150   1.208  11.002 -0.9056  0.4253 -1.1982
   8223SM  H14T10914   3.038   1.339  11.046  0.7095  2.0223  0.2862
   8223SM  C15S10915   3.209   1.332  11.172 -0.3132  0.1286  0.7349
   8223SM  H15S10916   3.320   1.338  11.168 -0.2132  1.3762  3.1692
   8223SM  H15T10917   3.179   1.239  11.224  2.3915 -0.0287  2.2016
   8223SM  C16S10918   3.144   1.448  11.255  0.3291 -0.1148 -0.0984
   8223SM  H16S10919   3.035   1.424  11.264  0.1449  0.8164  0.2589
   8223SM  H16T10920   3.158   1.548  11.208 -0.7853  0.0852 -0.0376
   8223SM  C17S10921   3.213   1.467  11.395  0.0119 -0.0857  0.0080
   8223SM  H17S10922   3.323   1.466  11.376 -0.1185 -1.6376 -0.7863
   8223SM  H17T10923   3.186   1.384  11.464  0.9179  0.7763  1.4728
   8223SM  C18S10924   3.165   1.606  11.457  0.4443 -0.3767  0.1255
   8223SM  H18S10925   3.075   1.596  11.522  0.8490 -1.9629  0.5056
   8223SM  H18T10926   3.147   1.681  11.378  1.1927  0.6568  0.9062
   8223SM  H18U10927   3.239   1.656  11.524 -0.5495 -1.0371  1.7962
   8223SM   C1F10928   2.742   1.425  10.182 -0.6796  0.5340 -0.0684
   8223SM    OF10929   2.665   1.343  10.122  0.1896  0.0918 -0.5657
   8223SM   C2F10930   2.759   1.421  10.330 -0.0490  0.2424  0.1075
   8223SM   H2F10931   2.716   1.513  10.376  1.1774  1.5138 -1.1959
   8223SM   H2G10932   2.868   1.408  10.351  0.0079 -0.2511 -0.4788
   8223SM   C3F10933   2.692   1.296  10.388 -1.0102  0.2234  0.2961
   8223SM   H3F10934   2.741   1.209  10.338  2.8343  2.3090  0.0507
   8223SM   H3G10935   2.582   1.293  10.372 -0.9768 -1.0898  0.1966
   8223SM   C4F10936   2.714   1.279  10.538 -0.7114 -0.0060  0.3198
   8223SM   H4F10937   2.693   1.376  10.588 -0.1395  0.5080 -0.4085
   8223SM   H4G10938   2.821   1.257  10.561 -0.6265  0.3591  0.2876
   8223SM   C5F10939   2.640   1.153  10.581 -0.6846  0.4012  0.0772
   8223SM   H5F10940   2.693   1.056  10.569 -0.9455  0.3659 -0.8518
   8223SM   H5G10941   2.540   1.146  10.532  0.1768 -1.9962 -1.5122
   8223SM   C6F10942   2.602   1.160  10.734  0.0272 -0.1875 -0.0404
   8223SM   H6F10943   2.556   1.064  10.766  0.6758 -0.6109 -0.3445
   8223SM   H6G10944   2.533   1.245  10.753 -2.0688 -1.9037  0.4805
   8223SM   C7F10945   2.722   1.187  10.825  0.5799 -0.4028 -0.7053
   8223SM   H7F10946   2.757   1.293  10.831  0.7240 -0.5240  1.4318
   8223SM   H7G10947   2.807   1.128  10.785  0.4004  0.5020 -2.5421
   8223SM   C8F10948   2.677   1.146  10.973  0.2155  0.4659  0.4330
   8223SM   H8F10949   2.643   1.041  10.970 -0.1841  0.5545  1.6403
   8223SM   H8G10950   2.603   1.224  10.998 -0.9603 -0.3592 -0.3862
   8223SM   C9F10951   2.794   1.168  11.071 -0.2211  0.6073  0.5352
   8223SM   H9F10952   2.821   1.276  11.068  3.3469 -0.1723 -2.5874
   8223SM   H9G10953   2.883   1.117  11.029  1.0081  0.5748  2.9984
   8223SM  C10F10954   2.768   1.119  11.213 -0.1279 -0.2942  0.0497
   8223SM  H10F10955   2.769   1.008  11.221 -0.8975 -0.2418  0.9060
   8223SM  H10G10956   2.665   1.147  11.242 -1.4156 -2.5367 -1.9412
   8223SM  C11F10957   2.868   1.181  11.311 -0.5140 -0.0830 -0.2974
   8223SM  H11F10958   2.882   1.286  11.280 -1.1760 -0.1398 -0.8187
   8223SM  H11G10959   2.960   1.119  11.305  0.2011  0.9946 -0.8418
   8223SM  C12F10960   2.812   1.167  11.452 -0.3281 -0.2476  0.1083
   8223SM  H12F10961   2.707   1.204  11.451 -0.1870  0.3274  2.0189
   8223SM  H12G10962   2.872   1.216  11.531 -0.6261 -1.4426  1.1133
   8223SM  C13F10963   2.817   1.017  11.496 -0.5411  0.2399  0.3841
   8223SM  H13F10964   2.921   0.979  11.485 -0.8893 -0.4432 -0.6832
   8223SM  H13G10965   2.757   0.961  11.422  3.3953  0.3032 -3.2720
   8223SM  C14F10966   2.756   0.995  11.633 -0.0677 -0.5289 -0.6225
   8223SM  H14F10967   2.650   1.016  11.610 -0.5994 -2.3024  0.0344
   8223SM  H14G10968   2.801   1.070  11.701  0.2243 -0.3244 -1.0405
   8223SM  C15F10969   2.758   0.843  11.685 -0.5540 -0.1566 -0.0491
   8223SM  H15F10970   2.857   0.796  11.668 -0.3930 -0.4514  1.5391
   8223SM  H15G10971   2.679   0.791  11.626 -0.4817 -0.0638 -0.2299
   8223SM  C16F10972   2.716   0.830  11.831  0.7207  0.4306 -0.3941
   8223SM  H16F10973   2.693   0.723  11.850  2.0941  0.2680  0.5945
   8223SM  H16G10974   2.630   0.894  11.857 -0.1938 -0.6974 -0.5561
   8223SM  C17F10975   2.815   0.856  11.938  0.3248 -0.4772 -0.2852
   8223SM  H17F10976   2.876   0.945  11.911 -0.1601 -0.5514 -1.7449
   8223SM  H17G10977   2.886   0.770  11.943 -0.3100 -1.0273 -0.6373
   8223SM  C18F10978   2.767   0.875  12.083 -0.2409  1.3374  0.4653
   8223SM  H18F10979   2.722   0.786  12.131  1.3130  1.0233  1.4296
   8223SM  H18G10980   2.688   0.952  12.083 -1.6914 -0.0952 -0.2587
   8223SM  C19F10981   2.881   0.925  12.174  0.3306 -0.3143 -0.5753
   8223SM  H19F10982   2.896   1.030  12.139 -2.5222 -0.3546 -2.1526
   8223SM  H19G10983   2.981   0.877  12.164  0.0198 -0.9371 -0.7372
   8223SM  C20F10984   2.839   0.938  12.321 -0.1052  0.5229 -0.3690
   8223SM  H20F10985   2.803   0.841  12.360  1.8444 -1.0174 -2.1807
   8223SM  H20G10986   2.753   1.006  12.335 -2.2844 -2.2147  0.3299
   8223SM  C21F10987   2.944   0.988  12.407 -0.0312 -0.5663  0.2168
   8223SM  H21F10988   2.996   1.077  12.368 -2.7197  0.4796 -1.2889
   8223SM  H21G10989   3.021   0.908  12.414  0.2707 -0.1030  3.2374
   8223SM  C22F10990   2.896   1.007  12.550  0.0867  0.0309  0.1246
   8223SM  H22F10991   2.856   0.907  12.578 -0.3689  1.0468  3.5207
   8223SM  H22G10992   2.804   1.069  12.548 -0.5411 -0.8826 -0.1187
   8223SM  C23F10993   2.989   1.066  12.653 -0.0886  0.0356  0.1973
   8223SM  H23F10994   3.074   0.995  12.668 -1.5604 -1.7764  0.2778
   8223SM  H23G10995   2.931   1.082  12.747 -3.0539 -1.2078 -1.2958
   8223SM  H23H10996   3.016   1.168  12.620 -2.2469  0.8331  0.7809
   8323SM     N10997   3.493   0.470   9.346 -0.2596  0.3420  0.1552
   8323SM   C1510998   3.430   0.527   9.221  0.1449 -0.3121 -0.1852
   8323SM  H15A10999   3.323   0.515   9.234  0.1304 -0.1370 -0.1328
   8323SM  H15B11000   3.459   0.480   9.129 -2.1941 -0.5524 -0.8661
   8323SM  H15C11001   3.458   0.631   9.211 -1.1806  0.0398 -0.4207
   8323SM   C1411002   3.472   0.323   9.349 -0.1825 -0.2416  0.2671
   8323SM  H14A11003   3.367   0.300   9.358 -0.6709  2.2416  1.8122
   8323SM  H14B11004   3.518   0.266   9.428 -0.3403 -1.4190 -0.4667
   8323SM  H14C11005   3.517   0.281   9.260  0.2256 -0.1064  0.4102
   8323SM   C1311006   3.640   0.508   9.344 -0.1769  0.0601 -0.2345
   8323SM  H13A11007   3.688   0.462   9.429  2.9460 -0.3256 -2.0358
   8323SM  H13B11008   3.650   0.615   9.337  2.2299 -0.1250 -0.3868
   8323SM  H13C11009   3.697   0.476   9.258 -0.1922  0.9711 -0.6014
   8323SM   C1211010   3.431   0.529   9.468  0.1611 -0.5550 -0.7531
   8323SM  H12A11011   3.324   0.517   9.470  0.1800 -0.6895 -0.5225
   8323SM  H12B11012   3.440   0.637   9.469  0.6339 -0.5622 -2.0937
   8323SM   C1111013   3.480   0.484   9.608 -0.0798  0.0166  0.3402
   8323SM  H11A11014   3.464   0.374   9.608 -1.2729  0.0925 -2.6740
   8323SM  H11B11015   3.418   0.530   9.688 -0.2744  1.1665 -0.4548
   8323SM     P11016   3.675   0.655   9.687  0.5918  0.0844  0.5284
   8323SM   O1311017   3.820   0.657   9.685  0.0074 -0.2553  0.3133
   8323SM   O1411018   3.603   0.772   9.626 -0.3385 -0.2108  0.1993
   8323SM   O1111019   3.633   0.647   9.841  0.2481  0.6364 -0.2494
   8323SM   O1211020   3.618   0.513   9.629 -0.2277 -0.7947 -0.0422
   8323SM   C1S11021   3.691   0.546   9.925  1.0035  0.7882  0.6745
   8323SM   H1S11022   3.801   0.543   9.915  1.1195 -1.8874  1.9054
   8323SM   H1T11023   3.642   0.448   9.909  1.0318  0.9485 -0.4285
   8323SM    NF11024   3.767   0.503  10.154  0.7637  0.2422  0.1141
   8323SM   HNF11025   3.723   0.424  10.195 -0.4581  0.3734 -0.8803
   8323SM   C2S11026   3.677   0.583  10.073 -0.1857 -0.5820  0.8394
   8323SM   H2S11027   3.711   0.689  10.071  0.1335 -0.6564 -2.1925
   8323SM   C3S11028   3.523   0.573  10.113  0.2246  0.0502  0.0836
   8323SM   H3S11029   3.511   0.463  10.109 -0.2596  0.0101  2.0155
   8323SM    O311030   3.430   0.633  10.022  0.1948 -0.1621 -0.3194
   8323SM   HO311031   3.479   0.631   9.940 -0.5546  0.1165 -0.7824
   8323SM   C4S11032   3.506   0.614  10.255 -0.1995  0.4439 -0.3747
   8323SM   H4S11033   3.535   0.542  10.333 -2.4322  0.6341  0.7002
   8323SM   C5S11034   3.467   0.736  10.299 -0.1974 -0.3925  0.2441
   8323SM   H5S11035   3.435   0.810  10.224  0.5374 -1.2743 -0.9739
   8323SM   C6S11036   3.458   0.769  10.445  0.1704  0.3961  0.5399
   8323SM   H6S11037   3.354   0.796  10.471 -0.4498 -1.4331  0.0429
   8323SM   H6T11038   3.516   0.861  10.470  1.1717  0.0975 -0.5679
   8323SM   C7S11039   3.491   0.664  10.557 -0.3910  0.5238 -0.0116
   8323SM   H7S11040   3.590   0.616  10.538  0.2129  1.7758 -0.1822
   8323SM   H7T11041   3.409   0.590  10.557 -1.1864  1.3901 -0.0757
   8323SM   C8S11042   3.499   0.731  10.692 -0.4683 -0.3603  0.2492
   8323SM   H8S11043   3.399   0.778  10.707  0.3084  1.0995  1.0524
   8323SM   H8T11044   3.576   0.810  10.683 -0.0692 -0.7360  0.3230
   8323SM   C9S11045   3.532   0.624  10.800 -0.0232 -0.0149  0.5050
   8323SM   H9S11046   3.636   0.590  10.779  0.1461  0.1321  1.0818
   8323SM   H9T11047   3.466   0.535  10.799  0.3128 -0.2640  0.3600
   8323SM  C10S11048   3.536   0.687  10.940  0.5402 -0.8376  0.3415
   8323SM  H10S11049   3.435   0.718  10.972 -0.2605 -0.1898 -2.5041
   8323SM  H10T11050   3.605   0.774  10.939 -0.3905 -0.0886  0.4924
   8323SM  C11S11051   3.600   0.602  11.045  0.1919  0.4986 -0.6290
   8323SM  H11S11052   3.709   0.588  11.030  0.3024 -0.2030  0.6627
   8323SM  H11T11053   3.557   0.500  11.032  4.4229 -1.4370 -1.1739
   8323SM  C12S11054   3.576   0.664  11.179  0.1719  0.0160  0.1102
   8323SM  H12S11055   3.468   0.690  11.183  0.3558  1.2083 -1.5635
   8323SM  H12T11056   3.623   0.765  11.178  0.8154 -0.2568 -1.5736
   8323SM  C13S11057   3.614   0.573  11.295  0.4463 -0.9536  0.8008
   8323SM  H13S11058   3.715   0.534  11.271  0.2081  0.1551 -2.4599
   8323SM  H13T11059   3.531   0.503  11.269 -0.3204  0.1081  0.3289
   8323SM  C14S11060   3.590   0.635  11.434 -0.4419 -0.4070 -1.0588
   8323SM  H14S11061   3.495   0.693  11.440 -1.3722 -1.9447 -0.1184
   8323SM  H14T11062   3.668   0.711  11.453 -2.4031  1.4583 -0.0684
   8323SM  C15S11063   3.596   0.529  11.552  0.5744  0.0088 -0.9066
   8323SM  H15S11064   3.699   0.488  11.561 -0.3419 -2.1923  0.5459
   8323SM  H15T11065   3.522   0.452  11.521 -0.7475  0.6437  0.5071
   8323SM  C16S11066   3.548   0.588  11.685 -0.0014 -0.5797 -0.3333
   8323SM  H16S11067   3.562   0.518  11.770  0.1936  1.8483  1.7487
   8323SM  H16T11068   3.439   0.602  11.667  0.0554  1.6590  0.6395
   8323SM  C17S11069   3.596   0.726  11.733 -0.1868  0.1318 -0.0808
   8323SM  H17S11070   3.579   0.798  11.650 -1.0175 -2.0164 -1.8746
   8323SM  H17T11071   3.703   0.720  11.763 -0.8760  0.3832  2.7108
   8323SM  C18S11072   3.523   0.764  11.862 -0.1103 -0.0255  0.4487
   8323SM  H18S11073   3.555   0.865  11.895  1.2551  0.3923 -1.8658
   8323SM  H18T11074   3.547   0.680  11.931  1.2468 -1.1742 -1.3055
   8323SM  H18U11075   3.414   0.759  11.843  0.0103 -3.5332  0.1199
   8323SM   C1F11076   3.901   0.506  10.146  0.7694 -0.1299 -0.1460
   8323SM    OF11077   3.956   0.600  10.092 -0.0723 -0.3969 -0.2360
   8323SM   C2F11078   3.981   0.395  10.199 -0.2986  0.8207 -0.4319
   8323SM   H2F11079   3.951   0.299  10.152  0.6872  1.4798 -2.5548
   8323SM   H2G11080   3.954   0.376  10.305  0.5097 -3.8341 -0.8568
   8323SM   C3F11081   4.133   0.419  10.194  0.4673 -0.6399  0.3625
   8323SM   H3F11082   4.148   0.462  10.093 -0.3141  1.7417  1.1928
   8323SM   H3G11083   4.196   0.327  10.195  1.3175 -0.0678  0.2158
   8323SM   C4F11084   4.187   0.521  10.296 -0.2439 -0.3659 -0.1969
   8323SM   H4F11085   4.119   0.609  10.288 -0.7743 -0.8396 -0.9577
   8323SM   H4G11086   4.293   0.545  10.273  0.1897  0.2173  2.1215
   8323SM   C5F11087   4.182   0.472  10.441 -0.3265 -0.1278 -1.1100
   8323SM   H5F11088   4.235   0.375  10.453  0.9067  0.6858  0.3823
   8323SM   H5G11089   4.078   0.444  10.469 -0.3213  1.8299  1.2297
   8323SM   C6F11090   4.239   0.576  10.539  0.9619  0.2907  0.1841
   8323SM   H6F11091   4.168   0.662  10.538 -1.3825 -1.4509  2.5229
   8323SM   H6G11092   4.337   0.614  10.504  1.0359 -0.4847 -0.4942
   8323SM   C7F11093   4.249   0.513  10.674  0.5695 -0.1134 -0.3804
   8323SM   H7F11094   4.309   0.420  10.668  1.9594  0.7506 -0.2776
   8323SM   H7G11095   4.146   0.508  10.716  0.0818  3.9289 -0.7759
   8323SM   C8F11096   4.331   0.595  10.771 -0.1826 -0.7422 -1.0199
   8323SM   H8F11097   4.298   0.700  10.771  1.0650 -0.3133  0.3161
   8323SM   H8G11098   4.438   0.602  10.742  0.2860 -0.0008  0.7834
   8323SM   C9F11099   4.343   0.523  10.912 -0.2607 -0.2919  0.0899
   8323SM   H9F11100   4.392   0.424  10.899  0.0938 -0.1048 -0.0181
   8323SM   H9G11101   4.240   0.500  10.946 -0.2829 -1.9329 -0.9981
   8323SM  C10F11102   4.422   0.606  11.015  0.1090  0.6972  0.2479
   8323SM  H10F11103   4.376   0.706  11.027 -0.1906  0.6854 -0.6973
   8323SM  H10G11104   4.519   0.633  10.967 -1.8398  0.4950 -4.3550
   8323SM  C11F11105   4.415   0.545  11.154  0.3739 -0.2918 -0.2615
   8323SM  H11F11106   4.451   0.440  11.148  2.7458  0.3730  0.9353
   8323SM  H11G11107   4.313   0.546  11.197  1.2553 -0.1391  1.9922
   8323SM  C12F11108   4.524   0.602  11.245  0.1087  0.4446  0.3789
   8323SM  H12F11109   4.511   0.712  11.246  0.6969  0.7513 -4.0482
   8323SM  H12G11110   4.620   0.592  11.190 -0.6231 -0.1906 -0.8189
   8323SM  C13F11111   4.530   0.544  11.387 -0.0110 -0.0296 -0.3372
   8323SM  H13F11112   4.593   0.453  11.386  1.1098  0.6385  1.7677
   8323SM  H13G11113   4.431   0.511  11.425 -0.7367  1.2850 -0.9890
   8323SM  C14F11114   4.568   0.649  11.496 -0.2618 -0.0709 -0.4304
   8323SM  H14F11115   4.529   0.613  11.594  0.8849  0.0699  0.0967
   8323SM  H14G11116   4.523   0.749  11.480 -1.1180 -0.4137 -0.2534
   8323SM  C15F11117   4.722   0.660  11.517  0.3227 -0.2484  0.2379
   8323SM  H15F11118   4.769   0.712  11.431  0.6811 -0.8393  0.0752
   8323SM  H15G11119   4.763   0.557  11.519  1.0939  0.0385 -0.3092
   8323SM  C16F11120   4.763   0.723  11.651  0.1114 -0.0628 -0.0085
   8323SM  H16F11121   4.871   0.749  11.647 -0.1900  1.3517  0.4405
   8323SM  H16G11122   4.747   0.647  11.730 -0.4570 -1.3331 -1.2886
   8323SM  C17F11123   4.688   0.847  11.692  1.0013  0.3850  0.7154
   8323SM  H17F11124   4.582   0.814  11.696  0.8727  0.5303 -0.8346
   8323SM  H17G11125   4.721   0.935  11.632  3.1315  0.0866  1.3431
   8323SM  C18F11126   4.720   0.898  11.834  0.4112  0.6103 -0.1188
   8323SM  H18F11127   4.676   1.000  11.843 -3.2542 -0.5541 -2.6617
   8323SM  H18G11128   4.829   0.917  11.836  0.3548  1.4582 -2.4367
   8323SM  C19F11129   4.655   0.809  11.949 -0.1583 -0.3902  0.7246
   8323SM  H19F11130   4.695   0.839  12.049 -1.8228  1.3904  0.9050
   8323SM  H19G11131   4.675   0.703  11.924 -0.6409 -0.1316 -0.8566
   8323SM  C20F11132   4.502   0.820  11.947  0.4287 -0.5902  0.5605
   8323SM  H20F11133   4.456   0.736  12.002  1.0432 -0.6712  0.9653
   8323SM  H20G11134   4.467   0.810  11.842  1.6707 -0.6468  0.1343
   8323SM  C21F11135   4.447   0.955  12.010  0.9274 -0.8408 -0.8344
   8323SM  H21F11136   4.338   0.956  11.988  1.2615 -0.0704 -2.6411
   8323SM  H21G11137   4.475   1.038  11.941 -2.1564 -0.9737 -2.4556
   8323SM  C22F11138   4.478   0.988  12.153 -0.2427 -0.3306 -0.2675
   8323SM  H22F11139   4.467   1.098  12.163 -2.3655 -0.6828  1.9796
   8323SM  H22G11140   4.581   0.958  12.183 -0.6639 -0.8713  0.6689
   8323SM  C23F11141   4.386   0.934  12.258 -1.1950  0.2706 -0.7424
   8323SM  H23F11142   4.400   0.825  12.264  0.2311  0.5220  1.9924
   8323SM  H23G11143   4.279   0.964  12.246 -1.3242  1.3700  2.3295
   8323SM  H23H11144   4.414   0.961  12.362  0.4984 -0.6051 -0.9417
   8423SM     N11145   3.442   5.550   9.342  0.3771 -0.2230  0.0352
   8423SM   C1511146   3.467   5.624   9.208 -0.4092  0.3255 -0.4377
   8423SM  H15A11147   3.560   5.678   9.204 -1.6002  2.4277 -2.3974
   8423SM  H15B11148   3.397   5.704   9.188  1.5875  2.3791  0.3854
   8423SM  H15C11149   3.461   5.560   9.121  0.1066  1.8062 -1.6053
   8423SM   C1411150   3.300   5.495   9.335 -0.1217  0.3628  0.2843
   8423SM  H14A11151   3.235   5.575   9.303  2.1957  1.9835 -0.6420
   8423SM  H14B11152   3.259   5.448   9.424  1.1401  1.6379  1.6044
   8423SM  H14C11153   3.299   5.423   9.255  1.5632  1.0238 -0.3732
   8423SM   C1311154   3.544   5.440   9.344 -0.3047  0.5452 -0.8380
   8423SM  H13A11155   3.550   5.388   9.438 -1.5533 -1.8654 -2.0056
   8423SM  H13B11156   3.647   5.472   9.339 -0.4454  1.1528 -0.0271
   8423SM  H13C11157   3.513   5.371   9.267 -1.4145 -0.1003  0.1677
   8423SM   C1211158   3.458   5.634   9.462 -0.2641  0.4066 -0.3981
   8423SM  H12A11159   3.404   5.726   9.445 -0.8463 -0.1354 -1.6836
   8423SM  H12B11160   3.560   5.669   9.458 -0.8191  2.0117 -2.3834
   8423SM   C1111161   3.424   5.574   9.601  0.5419 -0.0451 -0.4102
   8423SM  H11A11162   3.317   5.549   9.588  0.2540  0.6657  0.4855
   8423SM  H11B11163   3.440   5.654   9.676 -0.6283 -0.9201  0.8143
   8423SM     P11164   3.632   5.474   9.717  0.1713 -0.1987  0.0102
   8423SM   O1311165   3.681   5.336   9.730 -0.3200 -0.2559  0.1489
   8423SM   O1411166   3.723   5.572   9.647  0.6770 -0.2365  0.2417
   8423SM   O1111167   3.590   5.524   9.857  0.0725  0.5408 -0.3139
   8423SM   O1211168   3.494   5.457   9.641 -0.4551 -0.0462  0.8640
   8423SM   C1S11169   3.518   5.437   9.949 -0.1314 -0.4772  0.3133
   8423SM   H1S11170   3.494   5.337   9.906 -1.9216  0.2356 -0.4381
   8423SM   H1T11171   3.424   5.490   9.973  0.3233 -0.7613  3.0495
   8423SM    NF11172   3.482   5.375  10.184  0.2918 -0.4592  0.4939
   8423SM   HNF11173   3.447   5.440  10.251 -0.9751 -0.2346 -0.3328
   8423SM   C2S11174   3.576   5.428  10.090  0.0898 -0.0763 -0.2620
   8423SM   H2S11175   3.660   5.356  10.087  0.3991  0.2991 -1.2878
   8423SM   C3S11176   3.630   5.569  10.139  0.5309  0.6036  0.1901
   8423SM   H3S11177   3.546   5.641  10.140 -0.2311 -0.1308 -2.3277
   8423SM    O311178   3.730   5.629  10.056 -0.4628  0.5615  0.1217
   8423SM   HO311179   3.714   5.602   9.966 -0.6055  0.4381  0.1843
   8423SM   C4S11180   3.696   5.557  10.268 -0.7762  0.2730  0.2858
   8423SM   H4S11181   3.789   5.499  10.267 -0.5843  0.5904 -0.0889
   8423SM   C5S11182   3.659   5.621  10.387 -0.2129  0.2826  0.4053
   8423SM   H5S11183   3.558   5.660  10.403  0.0041  1.2618 -0.5012
   8423SM   C6S11184   3.733   5.596  10.519 -0.3572 -0.1237  0.6898
   8423SM   H6S11185   3.750   5.701  10.550 -0.1782 -0.2484  1.0186
   8423SM   H6T11186   3.832   5.546  10.510 -0.8831 -1.8063  3.1811
   8423SM   C7S11187   3.649   5.532  10.631  0.8706 -1.0550  0.6474
   8423SM   H7S11188   3.639   5.423  10.610 -0.1876 -0.8510 -0.0047
   8423SM   H7T11189   3.553   5.587  10.621  1.0615 -1.0865 -2.3266
   8423SM   C8S11190   3.704   5.559  10.770 -0.3499 -0.5694 -0.8376
   8423SM   H8S11191   3.739   5.664  10.777 -2.0374 -0.0729  2.2368
   8423SM   H8T11192   3.795   5.496  10.779 -0.1051 -0.0979  0.1722
   8423SM   C9S11193   3.600   5.523  10.883 -0.7007  0.8554 -0.6055
   8423SM   H9S11194   3.576   5.414  10.879 -0.6344  0.7547  1.0343
   8423SM   H9T11195   3.502   5.566  10.854 -0.0356  1.6497 -1.7305
   8423SM  C10S11196   3.648   5.564  11.018  0.4159  0.5013  0.5515
   8423SM  H10S11197   3.642   5.675  11.016 -0.3872  0.4762  1.2211
   8423SM  H10T11198   3.752   5.530  11.041  0.6229  0.7686  0.0272
   8423SM  C11S11199   3.563   5.501  11.126  0.9548 -0.2036 -0.0403
   8423SM  H11S11200   3.569   5.391  11.108  0.1410 -0.4277  0.9832
   8423SM  H11T11201   3.459   5.541  11.116  0.4740 -1.2720  0.5220
   8423SM  C12S11202   3.611   5.535  11.268 -0.0869  0.2986 -0.5375
   8423SM  H12S11203   3.616   5.646  11.275 -1.3827  0.5026 -2.2076
   8423SM  H12T11204   3.713   5.493  11.277 -0.1995 -0.2626 -1.6324
   8423SM  C13S11205   3.532   5.499  11.391 -0.2653 -0.3551 -0.0567
   8423SM  H13S11206   3.491   5.398  11.373  3.2432 -2.0907  0.7154
   8423SM  H13T11207   3.435   5.554  11.393 -0.5880 -0.8598 -1.1885
   8423SM  C14S11208   3.602   5.521  11.531 -0.5385  0.0554 -1.1217
   8423SM  H14S11209   3.627   5.629  11.540 -2.8001  0.6172 -0.7773
   8423SM  H14T11210   3.689   5.453  11.526 -1.3636 -1.0213 -1.0844
   8423SM  C15S11211   3.510   5.481  11.650  0.2911  0.1166  0.1356
   8423SM  H15S11212   3.472   5.378  11.635  1.2677  0.1104 -2.9595
   8423SM  H15T11213   3.423   5.550  11.649 -1.1099 -1.3996 -4.0467
   8423SM  C16S11214   3.573   5.504  11.787  0.3334 -0.7082 -0.6079
   8423SM  H16S11215   3.607   5.610  11.779 -2.1827  0.0466 -2.4851
   8423SM  H16T11216   3.650   5.425  11.797  0.1554 -1.3303 -3.4088
   8423SM  C17S11217   3.481   5.487  11.902  0.1734 -0.2592 -0.2881
   8423SM  H17S11218   3.445   5.382  11.905  2.6912 -1.1626  1.2494
   8423SM  H17T11219   3.394   5.554  11.883  0.8500  1.1776  1.4408
   8423SM  C18S11220   3.545   5.522  12.034  0.4335  0.0853  0.5183
   8423SM  H18S11221   3.600   5.616  12.014 -0.4479  0.4561 -0.2219
   8423SM  H18T11222   3.605   5.437  12.074  0.6392  0.2231  0.4982
   8423SM  H18U11223   3.467   5.538  12.111  0.3001  0.9707  0.2107
   8423SM   C1F11224   3.413   5.265  10.174  0.2763  0.2169  0.0600
   8423SM    OF11225   3.417   5.190  10.078 -0.5744  0.2833  0.1589
   8423SM   C2F11226   3.326   5.242  10.300  0.1487 -0.7660 -0.1406
   8423SM   H2F11227   3.275   5.144  10.288 -0.7932 -0.3540  0.3698
   8423SM   H2G11228   3.245   5.317  10.287 -0.5580 -1.1873  1.5062
   8423SM   C3F11229   3.400   5.255  10.436 -0.0430 -0.1144 -0.2159
   8423SM   H3F11230   3.430   5.362  10.450  1.1503 -0.5697  0.9413
   8423SM   H3G11231   3.493   5.194  10.442  0.2575  0.4446  1.2291
   8423SM   C4F11232   3.314   5.230  10.565  1.0364 -0.3991 -0.0647
   8423SM   H4F11233   3.291   5.121  10.562 -0.7154 -0.0377 -0.5236
   8423SM   H4G11234   3.214   5.275  10.549  0.4361 -1.2835  1.0584
   8423SM   C5F11235   3.378   5.274  10.701 -0.1701  0.4939 -0.9517
   8423SM   H5F11236   3.398   5.381  10.681  2.2637  0.4171  0.4929
   8423SM   H5G11237   3.477   5.228  10.724 -1.1982 -1.3262  0.0839
   8423SM   C6F11238   3.276   5.253  10.821  0.8257 -0.0226  0.4846
   8423SM   H6F11239   3.237   5.150  10.809  0.1764  0.1038  1.4029
   8423SM   H6G11240   3.196   5.330  10.819  3.0770  2.4707 -0.5842
   8423SM   C7F11241   3.350   5.270  10.953 -0.4872  0.0808  0.3255
   8423SM   H7F11242   3.371   5.379  10.959 -1.3660  0.2292  0.8390
   8423SM   H7G11243   3.444   5.211  10.952  0.0338  0.7899 -2.6168
   8423SM   C8F11244   3.257   5.206  11.055 -0.3023  0.4240  0.2544
   8423SM   H8F11245   3.262   5.095  11.053  1.5057  0.4250  1.7004
   8423SM   H8G11246   3.153   5.244  11.053 -0.0274  1.1758 -0.3376
   8423SM   C9F11247   3.292   5.245  11.210  0.0075 -0.0534  0.8304
   8423SM   H9F11248   3.259   5.351  11.220  0.6808  0.3356 -0.6656
   8423SM   H9G11249   3.402   5.232  11.222  0.2190 -0.5184 -1.2356
   8423SM  C10F11250   3.220   5.140  11.292  0.1892  0.5841  0.0831
   8423SM  H10F11251   3.260   5.040  11.262 -0.7777  0.3587 -0.5309
   8423SM  H10G11252   3.110   5.133  11.274 -0.0790 -2.1319  2.0848
   8423SM  C11F11253   3.249   5.152  11.445 -0.4044  0.1324  0.8849
   8423SM  H11F11254   3.248   5.261  11.468 -0.0083  0.3418 -0.0493
   8423SM  H11G11255   3.352   5.115  11.462 -0.3439  0.8853  2.2330
   8423SM  C12F11256   3.156   5.087  11.547  0.5210  0.5908  0.3003
   8423SM  H12F11257   3.168   4.977  11.536  1.7182  0.7133  0.3457
   8423SM  H12G11258   3.055   5.121  11.514 -0.6254  0.5512  3.3756
   8423SM  C13F11259   3.179   5.136  11.693 -0.2662 -0.4408 -0.1633
   8423SM  H13F11260   3.174   5.246  11.676 -5.0692 -0.2580  1.0219
   8423SM  H13G11261   3.279   5.095  11.721 -0.2866 -2.0948 -2.3042
   8423SM  C14F11262   3.068   5.078  11.775 -0.3867 -0.1860 -0.7632
   8423SM  H14F11263   3.071   4.967  11.783 -1.3874 -0.1207  1.2545
   8423SM  H14G11264   2.973   5.111  11.728 -1.1184 -1.4698 -0.2566
   8423SM  C15F11265   3.077   5.130  11.921 -0.7126  0.1458 -0.5331
   8423SM  H15F11266   3.180   5.128  11.963 -0.7230  0.4055 -0.4938
   8423SM  H15G11267   3.019   5.059  11.984 -1.2023 -0.4159 -1.5976
   8423SM  C16F11268   3.022   5.273  11.942  0.2472 -0.0783 -0.1883
   8423SM  H16F11269   2.922   5.272  11.894  0.0782 -0.0693  0.1672
   8423SM  H16G11270   3.092   5.343  11.890  0.5009 -0.7965 -0.8373
   8423SM  C17F11271   2.996   5.314  12.088  0.4128  0.4517 -0.1264
   8423SM  H17F11272   3.095   5.339  12.134  0.2082 -1.8913  1.8070
   8423SM  H17G11273   2.945   5.232  12.144 -0.4889  0.4625 -0.9136
   8423SM  C18F11274   2.901   5.437  12.095 -0.0581 -0.3418  0.5587
   8423SM  H18F11275   2.805   5.412  12.045  0.4439  1.2800 -1.3547
   8423SM  H18G11276   2.940   5.522  12.036 -1.3014 -0.6094 -0.6801
   8423SM  C19F11277   2.865   5.481  12.237 -0.4737 -0.2175  0.4155
   8423SM  H19F11278   2.816   5.398  12.291 -1.4075  0.0723  0.0271
   8423SM  H19G11279   2.789   5.562  12.236  1.1045  1.3926 -2.0009
   8423SM  C20F11280   2.990   5.522  12.327  0.9814  0.2854 -0.2622
   8423SM  H20F11281   3.051   5.433  12.354  0.8282  0.8830  2.3811
   8423SM  H20G11282   2.950   5.561  12.423  0.7417  0.2313 -0.3380
   8423SM  C21F11283   3.073   5.632  12.268  0.6948 -0.2352 -0.1366
   8423SM  H21F11284   3.014   5.725  12.255 -0.3169 -0.6958  0.9950
   8423SM  H21G11285   3.121   5.600  12.173  1.8621 -0.5638  0.5468
   8423SM  C22F11286   3.190   5.666  12.361 -0.3345  0.7668  0.5621
   8423SM  H22F11287   3.245   5.755  12.322 -2.0481  0.7871 -2.0597
   8423SM  H22G11288   3.267   5.587  12.353 -0.4389  0.5537  1.5387
   8423SM  C23F11289   3.181   5.691  12.516  0.1231  0.8065  0.0480
   8423SM  H23F11290   3.286   5.684  12.552 -0.0953  0.0244  0.5696
   8423SM  H23G11291   3.115   5.617  12.566 -1.4303  0.6865 -2.0716
   8423SM  H23H11292   3.142   5.794  12.529 -0.5763  0.3158  2.2967
   8523SM     N11293   4.906   0.264   9.060 -1.2280  0.2267  0.0094
   8523SM   C1511294   4.762   0.256   9.026  0.0654  0.6136 -0.5825
   8523SM  H15A11295   4.728   0.154   9.032 -0.1108  0.7268  0.7253
   8523SM  H15B11296   4.735   0.300   8.932 -0.0672 -1.1141 -1.3818
   8523SM  H15C11297   4.705   0.306   9.104  1.0102 -0.5439  0.9212
   8523SM   C1411298   4.982   0.176   8.961  0.0830 -0.2082  0.0077
   8523SM  H14A11299   4.967   0.215   8.861  1.8804 -1.0180 -0.6207
   8523SM  H14B11300   4.945   0.074   8.961 -1.0998  0.2091  0.7663
   8523SM  H14C11301   5.089   0.190   8.960 -0.0889  1.4844 -1.5791
   8523SM   C1311302   4.947   0.409   9.049 -0.8155  0.3672  0.0779
   8523SM  H13A11303   4.954   0.437   8.945  4.0927  0.1927  0.1430
   8523SM  H13B11304   5.052   0.411   9.075  0.4241 -1.8521 -3.9751
   8523SM  H13C11305   4.873   0.472   9.097 -3.6339 -0.0005 -3.3446
   8523SM   C1211306   4.939   0.219   9.201 -0.1295  0.6998 -0.0815
   8523SM  H12A11307   4.877   0.280   9.265 -1.5447  1.7731 -2.3450
   8523SM  H12B11308   5.042   0.235   9.229 -0.3815  0.6738  0.9005
   8523SM   C1111309   4.912   0.066   9.230  0.6452 -0.2513 -1.0133
   8523SM  H11A11310   4.961   0.046   9.328  2.5168  0.5519 -1.7361
   8523SM  H11B11311   4.974  -0.002   9.168  2.5180  0.0591  0.4216
   8523SM     P11312   4.670   0.076   9.337 -0.1510  0.3885  0.4001
   8523SM   O1311313   4.683   0.224   9.355 -0.0920 -0.0024 -0.0127
   8523SM   O1411314   4.539   0.021   9.321  0.1152 -0.0956 -0.0464
   8523SM   O1111315   4.726   0.008   9.470 -0.5720 -0.3078 -0.1434
   8523SM   O1211316   4.776   0.027   9.221  0.4301  0.1074 -0.5629
   8523SM   C1S11317   4.716  -0.135   9.484  0.7217 -0.2579 -0.4597
   8523SM   H1S11318   4.794  -0.183   9.420  1.0520  1.9324 -1.7900
   8523SM   H1T11319   4.627  -0.187   9.443  0.1602 -0.6591  1.1725
   8523SM    NF11320   4.800  -0.304   9.656  0.4455  0.2568  0.3745
   8523SM   HNF11321   4.739  -0.380   9.679  1.9225 -2.2973 -3.2636
   8523SM   C2S11322   4.739  -0.173   9.642  0.2954 -0.2208 -0.2314
   8523SM   H2S11323   4.817  -0.100   9.673  1.3693 -1.6056  0.4306
   8523SM   C3S11324   4.609  -0.147   9.716  0.1741 -0.2720 -0.1248
   8523SM   H3S11325   4.547  -0.224   9.664  1.9174 -1.1849 -0.9664
   8523SM    O311326   4.554  -0.013   9.700  0.3567 -0.0079  0.3750
   8523SM   HO311327   4.596   0.026   9.624 -0.5850  0.4565  0.0805
   8523SM   C4S11328   4.616  -0.178   9.866 -0.1827 -0.9713 -0.0397
   8523SM   H4S11329   4.695  -0.120   9.915 -1.7120  1.2781 -0.0857
   8523SM   C5S11330   4.546  -0.263   9.948  0.4831  0.1031 -0.0577
   8523SM   H5S11331   4.489  -0.341   9.897  0.5032  0.4478 -0.6210
   8523SM   C6S11332   4.546  -0.265  10.102 -0.8337  0.2214 -0.5549
   8523SM   H6S11333   4.600  -0.355  10.139  0.9171  1.3781 -0.1389
   8523SM   H6T11334   4.441  -0.273  10.137 -1.1432  1.5094 -1.1397
   8523SM   C7S11335   4.623  -0.149  10.171  0.0813  0.0055 -0.2725
   8523SM   H7S11336   4.576  -0.052  10.144  2.4534  2.0406  2.3990
   8523SM   H7T11337   4.724  -0.137  10.127 -0.6790  0.8375 -1.9310
   8523SM   C8S11338   4.641  -0.165  10.317 -0.5824  0.4036 -0.6583
   8523SM   H8S11339   4.721  -0.237  10.345  0.4448  1.9468  0.6401
   8523SM   H8T11340   4.550  -0.197  10.371  0.9359  1.0000  2.5241
   8523SM   C9S11341   4.684  -0.033  10.385  0.1572  0.0785  0.3819
   8523SM   H9S11342   4.599   0.038  10.396 -0.1500 -0.0555 -0.8967
   8523SM   H9T11343   4.752   0.026  10.319 -0.7862  1.3356  0.4989
   8523SM  C10S11344   4.767  -0.059  10.516  0.0644 -0.4568 -0.2252
   8523SM  H10S11345   4.831   0.027  10.542  0.6783 -1.1721  0.6663
   8523SM  H10T11346   4.823  -0.155  10.519  0.4761 -0.1998  0.4643
   8523SM  C11S11347   4.655  -0.073  10.620 -0.8937 -0.5435  0.2801
   8523SM  H11S11348   4.587  -0.158  10.600 -2.3197  0.0590  2.2946
   8523SM  H11T11349   4.588   0.015  10.618  0.5463  0.6803 -3.0108
   8523SM  C12S11350   4.708  -0.095  10.755 -0.1249  0.1806  0.1176
   8523SM  H12S11351   4.752  -0.006  10.805 -0.9335  0.6700 -0.0239
   8523SM  H12T11352   4.789  -0.171  10.753  0.9533  1.3056 -0.4388
   8523SM  C13S11353   4.605  -0.161  10.855 -0.1159 -0.6148 -0.5602
   8523SM  H13S11354   4.572  -0.267  10.846 -1.1049 -0.4536  0.9034
   8523SM  H13T11355   4.520  -0.089  10.859  1.2971  1.1518 -0.8476
   8523SM  C14S11356   4.659  -0.150  10.995  0.1254 -0.1095  0.1685
   8523SM  H14S11357   4.679  -0.041  11.007 -0.1512  0.3671 -2.8343
   8523SM  H14T11358   4.750  -0.212  11.004  1.1961  1.0841 -1.7110
   8523SM  C15S11359   4.558  -0.215  11.099  0.0783 -0.6260  0.3325
   8523SM  H15S11360   4.585  -0.322  11.108  0.5383 -0.7099 -1.7192
   8523SM  H15T11361   4.456  -0.201  11.057  0.7297  0.5718 -0.9291
   8523SM  C16S11362   4.572  -0.147  11.237  0.0585 -0.1993 -0.3744
   8523SM  H16S11363   4.533  -0.043  11.234  2.3960  0.7292 -2.0917
   8523SM  H16T11364   4.677  -0.149  11.274  0.3747 -0.9913 -1.2793
   8523SM  C17S11365   4.498  -0.233  11.342 -0.6089 -0.1578  0.1674
   8523SM  H17S11366   4.529  -0.340  11.335 -1.6626 -0.4935  0.4259
   8523SM  H17T11367   4.396  -0.238  11.299 -0.9535  2.3444  0.5708
   8523SM  C18S11368   4.499  -0.184  11.486 -0.0134 -0.4443 -0.4251
   8523SM  H18S11369   4.597  -0.197  11.536 -0.9010 -0.1652  1.4887
   8523SM  H18T11370   4.427  -0.238  11.552 -0.8178  0.1387 -0.8087
   8523SM  H18U11371   4.489  -0.074  11.481  2.5049 -0.1944 -1.8296
   8523SM   C1F11372   4.933  -0.326   9.612 -0.0309  0.0508 -0.0262
   8523SM    OF11373   4.997  -0.242   9.554 -0.3299  0.6622  0.1118
   8523SM   C2F11374   4.979  -0.470   9.638  0.2450 -0.3179  0.3029
   8523SM   H2F11375   4.963  -0.517   9.539  1.1434 -1.9136  0.8820
   8523SM   H2G11376   4.900  -0.512   9.705 -1.5808  1.6569 -0.4834
   8523SM   C3F11377   5.113  -0.477   9.711  0.1673 -0.7383 -0.1327
   8523SM   H3F11378   5.199  -0.466   9.642 -0.6360  0.3873 -1.0018
   8523SM   H3G11379   5.110  -0.575   9.762 -2.3297 -0.5188  0.2627
   8523SM   C4F11380   5.133  -0.379   9.834  0.3802  0.0110  0.7801
   8523SM   H4F11381   5.100  -0.279   9.798 -1.4954 -0.8024  0.1110
   8523SM   H4G11382   5.242  -0.378   9.853  0.3732  0.0061  0.8209
   8523SM   C5F11383   5.046  -0.407   9.951 -0.6620  0.0277  0.8178
   8523SM   H5F11384   5.066  -0.511   9.981  3.6574  1.0079  1.9658
   8523SM   H5G11385   4.940  -0.388   9.922 -0.4871 -1.0273 -0.6081
   8523SM   C6F11386   5.090  -0.313  10.067 -0.4070  0.0988  0.9214
   8523SM   H6F11387   5.092  -0.212  10.020  0.3573 -0.8597 -1.2263
   8523SM   H6G11388   5.194  -0.336  10.097 -0.6893 -0.7076  1.3065
   8523SM   C7F11389   4.997  -0.315  10.189 -0.8587 -0.1005 -0.5195
   8523SM   H7F11390   4.988  -0.423  10.211  0.7950  0.0561  1.1538
   8523SM   H7G11391   4.908  -0.252  10.171  1.4613  2.9923 -2.2510
   8523SM   C8F11392   5.063  -0.261  10.317 -0.2364 -0.0746 -0.5675
   8523SM   H8F11393   4.988  -0.278  10.397 -1.8179  0.3459 -1.8880
   8523SM   H8G11394   5.087  -0.153  10.302 -0.4200 -0.1659 -1.6522
   8523SM   C9F11395   5.193  -0.334  10.358 -0.5009  0.1776 -0.2585
   8523SM   H9F11396   5.282  -0.302  10.300  1.3713  1.9328  3.2413
   8523SM   H9G11397   5.179  -0.445  10.354 -3.7088  0.4269  0.9588
   8523SM  C10F11398   5.234  -0.304  10.503 -0.1163  0.6521 -0.1853
   8523SM  H10F11399   5.150  -0.331  10.571  0.5528 -1.0616  0.0233
   8523SM  H10G11400   5.237  -0.194  10.512  0.4714  0.7285 -1.2737
   8523SM  C11F11401   5.366  -0.371  10.546  0.1511  0.0349  0.1384
   8523SM  H11F11402   5.434  -0.317  10.476 -0.0558  0.3452  0.1777
   8523SM  H11G11403   5.373  -0.480  10.527  2.7200 -0.0707  1.2417
   8523SM  C12F11404   5.394  -0.355  10.695 -0.1281  0.1555  0.0428
   8523SM  H12F11405   5.311  -0.395  10.757 -0.1121  0.3076  0.1628
   8523SM  H12G11406   5.405  -0.251  10.732  0.3004  0.1960 -0.1878
   8523SM  C13F11407   5.520  -0.424  10.745 -0.0650 -0.9704 -0.3798
   8523SM  H13F11408   5.599  -0.417  10.666  2.3745  1.4481  2.0516
   8523SM  H13G11409   5.503  -0.534  10.741 -3.5166 -0.5922  0.7006
   8523SM  C14F11410   5.572  -0.370  10.880  0.1410  0.0665  0.0931
   8523SM  H14F11411   5.582  -0.260  10.870 -0.4114  0.0082 -1.3479
   8523SM  H14G11412   5.667  -0.427  10.889 -0.0712 -0.5628 -1.4302
   8523SM  C15F11413   5.480  -0.421  10.989  0.5379 -0.5518  0.2239
   8523SM  H15F11414   5.459  -0.530  10.980 -0.9187 -0.2222 -0.8492
   8523SM  H15G11415   5.377  -0.380  10.981  0.2037 -1.1160  1.4690
   8523SM  C16F11416   5.532  -0.384  11.127  0.1395  0.3604 -0.1260
   8523SM  H16F11417   5.519  -0.274  11.133  1.8675  0.6832 -1.4452
   8523SM  H16G11418   5.639  -0.415  11.124  0.1954  0.6411 -1.9548
   8523SM  C17F11419   5.471  -0.445  11.254 -0.8020 -0.3516  0.1514
   8523SM  H17F11420   5.512  -0.547  11.271  0.7857  0.1393 -0.4789
   8523SM  H17G11421   5.363  -0.455  11.234 -1.0755 -0.4320  1.5771
   8523SM  C18F11422   5.502  -0.352  11.377 -0.8058 -0.3266  0.2685
   8523SM  H18F11423   5.481  -0.246  11.351 -0.6570  0.0899  1.7365
   8523SM  H18G11424   5.610  -0.375  11.393 -0.6539  0.6920  0.8238
   8523SM  C19F11425   5.419  -0.382  11.504  0.3582  0.2426 -0.4293
   8523SM  H19F11426   5.459  -0.478  11.543  4.1284  1.9218  0.2545
   8523SM  H19G11427   5.311  -0.393  11.481 -0.3815  2.3966  1.5778
   8523SM  C20F11428   5.428  -0.277  11.610  0.1066 -0.2991  0.1632
   8523SM  H20F11429   5.375  -0.188  11.572  0.1082  0.4549  1.8091
   8523SM  H20G11430   5.535  -0.248  11.625 -0.0617  1.2023 -1.2523
   8523SM  C21F11431   5.369  -0.313  11.744  0.3001  0.0406 -1.0273
   8523SM  H21F11432   5.315  -0.409  11.730 -0.8872  0.4895  0.1737
   8523SM  H21G11433   5.300  -0.227  11.761 -0.4812 -0.9817  1.3278
   8523SM  C22F11434   5.474  -0.317  11.857  1.3666 -0.0279  0.0304
   8523SM  H22F11435   5.531  -0.223  11.872 -0.0334  1.2318 -2.1210
   8523SM  H22G11436   5.552  -0.392  11.832  0.4898 -0.7545 -0.5821
   8523SM  C23F11437   5.413  -0.354  12.001 -0.2717 -0.2384  0.0540
   8523SM  H23F11438   5.329  -0.427  11.993  0.2388 -0.9420  0.9192
   8523SM  H23G11439   5.382  -0.270  12.067  1.5772 -0.7816  1.6985
   8523SM  H23H11440   5.490  -0.418  12.049  0.7463  1.2715  0.4986
   8623SM     N11441   3.160   3.882   9.863 -0.0851 -0.0362 -0.2984
   8623SM   C1511442   3.132   3.736   9.841 -0.3085  0.1715 -0.1433
   8623SM  H15A11443   3.129   3.676   9.931 -2.7822 -0.4355 -0.5622
   8623SM  H15B11444   3.212   3.694   9.782 -1.3937  0.1222 -1.6162
   8623SM  H15C11445   3.037   3.720   9.794 -0.4046 -2.3298  0.7535
   8623SM   C1411446   3.113   3.961   9.746 -0.6267 -0.5395 -0.5158
   8623SM  H14A11447   3.121   4.068   9.760  0.5771 -0.4510 -1.7019
   8623SM  H14B11448   3.006   3.948   9.735 -0.5008 -1.7916 -0.3789
   8623SM  H14C11449   3.163   3.939   9.653 -0.9461 -1.9212 -0.3869
   8623SM   C1311450   3.067   3.921   9.971 -0.4583  0.1549  0.0161
   8623SM  H13A11451   2.963   3.899   9.952 -1.0988  2.7687  0.0218
   8623SM  H13B11452   3.066   4.029   9.978 -0.1880  0.1371  0.3803
   8623SM  H13C11453   3.088   3.878  10.067  1.6878  4.2258  1.6490
   8623SM   C1211454   3.308   3.901   9.894 -0.1879 -0.1484  0.0615
   8623SM  H12A11455   3.363   3.868   9.806 -0.2705 -2.8401  0.9240
   8623SM  H12B11456   3.334   3.828   9.970  0.4851 -0.4715 -0.4594
   8623SM   C1111457   3.359   4.036   9.938  0.9483 -0.9946  0.0395
   8623SM  H11A11458   3.463   4.023   9.975  0.7891  0.3680  1.0402
   8623SM  H11B11459   3.308   4.070  10.031  1.9427 -1.0622  0.6226
   8623SM     P11460   3.327   4.288   9.851 -0.1473  0.2666 -0.3929
   8623SM   O1311461   3.388   4.363   9.739  0.0818  0.1227  0.6704
   8623SM   O1411462   3.177   4.304   9.871  0.3523 -0.5289 -0.0814
   8623SM   O1111463   3.394   4.324   9.983  0.1878  0.3131 -0.0178
   8623SM   O1211464   3.365   4.134   9.835  0.1608 -0.3794  0.7239
   8623SM   C1S11465   3.392   4.456  10.045 -0.1728 -0.5907 -0.4173
   8623SM   H1S11466   3.291   4.502  10.055 -0.1682 -0.5604 -0.5032
   8623SM   H1T11467   3.459   4.524   9.988  0.5886 -0.0542  1.0839
   8623SM    NF11468   3.451   4.594  10.242 -0.2884  0.4507  0.2270
   8623SM   HNF11469   3.532   4.650  10.256 -0.5534  1.0493 -0.5497
   8623SM   C2S11470   3.456   4.459  10.184  0.0445  0.3715 -0.1677
   8623SM   H2S11471   3.391   4.401  10.252 -2.0073  3.3869  0.6548
   8623SM   C3S11472   3.597   4.403  10.190  0.0205  0.7431 -0.4273
   8623SM   H3S11473   3.670   4.470  10.140  1.2927 -0.1256  0.2192
   8623SM    O311474   3.605   4.273  10.130  0.0671  0.0766 -0.2985
   8623SM   HO311475   3.526   4.272  10.076 -1.0575  1.9464  1.1710
   8623SM   C4S11476   3.643   4.398  10.333 -0.2338 -0.2810 -0.5916
   8623SM   H4S11477   3.690   4.483  10.385 -1.4710 -1.0832  2.0699
   8623SM   C5S11478   3.622   4.303  10.427  0.1884  0.2861 -0.5289
   8623SM   H5S11479   3.560   4.214  10.407  2.8719 -2.2597  1.4144
   8623SM   C6S11480   3.672   4.308  10.568  0.0312  0.4614 -0.0140
   8623SM   H6S11481   3.749   4.387  10.580  0.4706 -0.2217  2.0443
   8623SM   H6T11482   3.709   4.209  10.603 -2.0401 -1.3414 -2.5226
   8623SM   C7S11483   3.557   4.324  10.668  0.0895  0.2684  0.0256
   8623SM   H7S11484   3.492   4.234  10.663  1.4849 -0.7844  0.3684
   8623SM   H7T11485   3.496   4.414  10.644 -0.3700  0.1197  0.6156
   8623SM   C8S11486   3.607   4.327  10.809 -0.2042  0.2486 -0.4699
   8623SM   H8S11487   3.676   4.411  10.831  0.1240 -0.2377  0.4024
   8623SM   H8T11488   3.673   4.238  10.819 -3.3272 -1.9692  2.7113
   8623SM   C9S11489   3.494   4.326  10.909  0.5024 -0.1537  0.2139
   8623SM   H9S11490   3.424   4.243  10.883 -1.2520  1.0822  0.8249
   8623SM   H9T11491   3.420   4.408  10.898 -2.4771 -2.5994  0.7563
   8623SM  C10S11492   3.539   4.308  11.056  0.0197  0.2211  0.1298
   8623SM  H10S11493   3.601   4.399  11.073 -0.1834  0.5847 -0.9852
   8623SM  H10T11494   3.593   4.211  11.058  0.4184  0.4218 -0.5410
   8623SM  C11S11495   3.418   4.309  11.155 -0.2390 -0.0019 -0.1261
   8623SM  H11S11496   3.353   4.220  11.143 -0.5231  0.3566 -1.4270
   8623SM  H11T11497   3.364   4.406  11.142 -0.1834 -0.0746 -0.9357
   8623SM  C12S11498   3.465   4.313  11.304 -1.0932  0.3004 -0.3300
   8623SM  H12S11499   3.497   4.416  11.330  0.4933  0.0665 -1.2560
   8623SM  H12T11500   3.544   4.237  11.319  0.2316  1.9619  1.6269
   8623SM  C13S11501   3.352   4.289  11.406 -0.2760 -0.1059  0.1641
   8623SM  H13S11502   3.316   4.188  11.378 -0.2369  0.0826 -0.5954
   8623SM  H13T11503   3.274   4.367  11.394  0.3355  0.8365  1.9524
   8623SM  C14S11504   3.419   4.276  11.541 -0.1888  0.3844 -0.7842
   8623SM  H14S11505   3.469   4.371  11.572 -1.7669  1.0925 -0.2578
   8623SM  H14T11506   3.502   4.204  11.533  0.2243  0.7029  0.4451
   8623SM  C15S11507   3.320   4.222  11.646 -0.2227  0.0514 -0.3293
   8623SM  H15S11508   3.281   4.126  11.606 -0.4707  0.8680 -2.1537
   8623SM  H15T11509   3.233   4.290  11.649 -0.6674 -0.5367  0.2996
   8623SM  C16S11510   3.376   4.204  11.793  0.8328  0.1843  0.2436
   8623SM  H16S11511   3.406   4.300  11.840 -1.2553  0.2080  1.6390
   8623SM  H16T11512   3.461   4.132  11.792  2.4059  1.9594  0.3017
   8623SM  C17S11513   3.270   4.136  11.887 -0.1466  0.2271  0.1712
   8623SM  H17S11514   3.323   4.100  11.977  2.0693  0.0212 -1.1325
   8623SM  H17T11515   3.227   4.041  11.848  1.7265 -0.3292 -0.6391
   8623SM  C18S11516   3.163   4.243  11.931 -0.5444 -0.7273 -0.3740
   8623SM  H18S11517   3.208   4.344  11.939  2.6330 -2.1460  1.6110
   8623SM  H18T11518   3.116   4.228  12.030 -0.5545  3.1730  0.3528
   8623SM  H18U11519   3.091   4.261  11.848  0.7675  4.3221 -0.7119
   8623SM   C1F11520   3.333   4.649  10.277  0.2879 -0.5143 -0.3468
   8623SM    OF11521   3.234   4.580  10.287  0.2380 -0.1446  0.0168
   8623SM   C2F11522   3.325   4.795  10.311 -0.2939  0.0201  0.3156
   8623SM   H2F11523   3.224   4.831  10.281  0.7370  1.5011 -1.6872
   8623SM   H2G11524   3.402   4.852  10.253 -0.1825 -1.1763 -0.7663
   8623SM   C3F11525   3.344   4.827  10.464  0.7309 -0.6203  0.5049
   8623SM   H3F11526   3.279   4.764  10.528 -1.3145 -0.1914 -1.0563
   8623SM   H3G11527   3.309   4.929  10.490  3.1422  0.3366  0.3186
   8623SM   C4F11528   3.483   4.798  10.512 -0.1450  0.0252  0.0278
   8623SM   H4F11529   3.557   4.850  10.448 -0.1354  0.8105  0.6685
   8623SM   H4G11530   3.505   4.690  10.501 -2.1431 -0.2483 -2.2283
   8623SM   C5F11531   3.506   4.863  10.650 -0.1135  0.3208 -0.4043
   8623SM   H5F11532   3.522   4.972  10.632 -1.9158  0.8617  0.9579
   8623SM   H5G11533   3.602   4.835  10.697 -0.3478  0.0839 -0.0670
   8623SM   C6F11534   3.391   4.840  10.756  0.0019  0.0721 -0.3622
   8623SM   H6F11535   3.345   4.739  10.751 -2.1587  0.9250  0.9315
   8623SM   H6G11536   3.317   4.921  10.737 -1.2719 -1.3876 -1.9294
   8623SM   C7F11537   3.433   4.869  10.900 -0.0233  0.0463 -0.8548
   8623SM   H7F11538   3.340   4.870  10.962  1.7418 -0.4923  1.9695
   8623SM   H7G11539   3.485   4.967  10.909  3.1397 -1.6501  1.0335
   8623SM   C8F11540   3.512   4.757  10.957  0.1702  0.2297  0.4499
   8623SM   H8F11541   3.607   4.755  10.899 -0.1230  0.5389 -0.0486
   8623SM   H8G11542   3.460   4.661  10.937 -0.9545  1.1066 -1.0622
   8623SM   C9F11543   3.545   4.780  11.104 -0.4143 -1.0124  0.1577
   8623SM   H9F11544   3.566   4.884  11.136 -1.4708 -0.8635  0.3959
   8623SM   H9G11545   3.626   4.710  11.134  0.5282 -0.7282 -1.5959
   8623SM  C10F11546   3.426   4.739  11.186 -0.3978  0.3559 -0.1634
   8623SM  H10F11547   3.399   4.633  11.165 -2.5289  0.6265  0.8811
   8623SM  H10G11548   3.332   4.793  11.160 -0.1176  1.1161  0.3845
   8623SM  C11F11549   3.459   4.744  11.337  0.3648 -0.3529 -0.3934
   8623SM  H11F11550   3.513   4.841  11.348  1.6078 -1.2245  1.7498
   8623SM  H11G11551   3.535   4.673  11.376  0.3845 -0.4005 -0.5199
   8623SM  C12F11552   3.340   4.747  11.429  0.1688 -0.0846 -0.1533
   8623SM  H12F11553   3.259   4.679  11.395 -0.7269  0.1714  1.3913
   8623SM  H12G11554   3.298   4.848  11.447 -0.7312 -1.1111  4.7766
   8623SM  C13F11555   3.379   4.700  11.570  0.0198 -0.3813  0.7746
   8623SM  H13F11556   3.476   4.744  11.600 -0.0803 -0.6596  1.5191
   8623SM  H13G11557   3.399   4.591  11.563 -1.6785 -0.6889  0.2982
   8623SM  C14F11558   3.277   4.708  11.678 -0.4693  0.4698 -0.1034
   8623SM  H14F11559   3.186   4.657  11.642 -0.5661  0.0761  0.6744
   8623SM  H14G11560   3.261   4.815  11.704  1.5700  0.7682  0.1382
   8623SM  C15F11561   3.319   4.640  11.808 -0.3802  0.0272  0.0132
   8623SM  H15F11562   3.405   4.698  11.849 -0.6502  1.0842 -0.8778
   8623SM  H15G11563   3.356   4.536  11.808 -0.4643 -0.0140  0.7493
   8623SM  C16F11564   3.195   4.642  11.899 -0.4156 -0.8709  0.2245
   8623SM  H16F11565   3.113   4.582  11.854 -2.9408  1.9054  0.7837
   8623SM  H16G11566   3.147   4.742  11.900 -0.3547 -0.8147  2.5927
   8623SM  C17F11567   3.228   4.602  12.044  0.1484 -0.6801 -0.1653
   8623SM  H17F11568   3.295   4.676  12.092  0.8939 -2.1847  1.2135
   8623SM  H17G11569   3.286   4.507  12.044  2.3430  0.5870  0.5567
   8623SM  C18F11570   3.092   4.592  12.126 -1.6534 -0.1230 -0.2390
   8623SM  H18F11571   3.104   4.527  12.216 -3.8160  1.5667  1.3670
   8623SM  H18G11572   3.001   4.550  12.079 -1.3788 -1.4636  0.3825
   8623SM  C19F11573   3.039   4.728  12.182  0.4549  0.5879 -0.4873
   8623SM  H19F11574   2.996   4.770  12.088  2.5716 -0.3810 -1.9816
   8623SM  H19G11575   3.111   4.801  12.226  1.5925 -2.2853  2.8613
   8623SM  C20F11576   2.924   4.699  12.282  1.0677  0.0249 -0.4177
   8623SM  H20F11577   2.840   4.637  12.243  2.1424 -0.3380 -2.2774
   8623SM  H20G11578   2.875   4.798  12.292  0.5572 -0.2089 -0.5682
   8623SM  C21F11579   2.968   4.656  12.425  0.2535  0.2857 -0.6223
   8623SM  H21F11580   2.887   4.682  12.497  0.1495 -1.2086 -0.1508
   8623SM  H21G11581   3.057   4.712  12.461  0.5101 -0.4028 -0.1605
   8623SM  C22F11582   2.982   4.508  12.447 -0.4940  0.5190 -0.0855
   8623SM  H22F11583   3.078   4.480  12.398  0.5664  2.0687  1.0012
   8623SM  H22G11584   2.898   4.456  12.395 -0.3826 -0.7056  0.9211
   8623SM  C23F11585   2.991   4.465  12.595  0.3442  0.0341  0.2147
   8623SM  H23F11586   2.892   4.471  12.644  1.6221  0.5367  2.9353
   8623SM  H23G11587   3.064   4.524  12.654  3.1440 -2.7130 -0.1698
   8623SM  H23H11588   3.025   4.359  12.595  2.2262  0.5129  3.0974
   8723SM     N11589   3.784   4.286   9.789 -0.6487  0.1539 -1.0415
   8723SM   C1511590   3.725   4.165   9.860 -0.6289  0.2900 -0.3160
   8723SM  H15A11591   3.630   4.177   9.910 -0.0369 -1.7340  1.4359
   8723SM  H15B11592   3.789   4.110   9.927  2.8800  1.0351 -2.7450
   8723SM  H15C11593   3.692   4.093   9.787 -1.2024 -0.6614  0.8499
   8723SM   C1411594   3.896   4.238   9.711 -0.1115 -0.1037  0.6007
   8723SM  H14A11595   3.966   4.197   9.782 -0.1302 -0.3980  0.4482
   8723SM  H14B11596   3.937   4.328   9.667  1.7550 -0.2524  1.9225
   8723SM  H14C11597   3.869   4.163   9.639  1.6485  1.5711 -1.9636
   8723SM   C1311598   3.683   4.353   9.702  0.0732  0.0654  0.1811
   8723SM  H13A11599   3.639   4.281   9.635  1.2308 -1.0790  0.6133
   8723SM  H13B11600   3.736   4.430   9.649 -2.3652  0.1906 -2.3223
   8723SM  H13C11601   3.603   4.409   9.748 -1.2388 -0.9183 -0.7870
   8723SM   C1211602   3.837   4.383   9.899 -0.1224  0.0524  0.2247
   8723SM  H12A11603   3.894   4.325   9.970  2.5014 -0.1615 -1.8764
   8723SM  H12B11604   3.749   4.427   9.944 -0.6290 -1.1554  0.4489
   8723SM   C1111605   3.931   4.499   9.855 -0.2582 -0.2821  0.8641
   8723SM  H11A11606   4.026   4.458   9.815 -0.1781  0.7230 -0.0100
   8723SM  H11B11607   3.942   4.561   9.947 -0.9970  0.4264  0.4950
   8723SM     P11608   3.952   4.689   9.678  0.0777 -0.3514 -0.2245
   8723SM   O1311609   4.037   4.618   9.588 -0.2086  0.3494  0.4558
   8723SM   O1411610   3.862   4.792   9.621  0.2384 -0.0089 -0.4559
   8723SM   O1111611   4.054   4.757   9.781  0.8182 -0.3554  0.2125
   8723SM   O1211612   3.868   4.588   9.763 -0.5627  0.3204  0.7493
   8723SM   C1S11613   4.000   4.869   9.857 -0.2760  0.8435  0.0743
   8723SM   H1S11614   3.892   4.885   9.842 -0.7586 -0.9286  1.2482
   8723SM   H1T11615   4.058   4.961   9.834 -0.4394  0.1539 -3.6942
   8723SM    NF11616   3.988   4.974  10.074 -0.0455  1.1274 -0.2203
   8723SM   HNF11617   4.061   5.035  10.100 -0.9097  2.8125 -1.5661
   8723SM   C2S11618   4.025   4.851  10.008 -0.4976  0.1891  0.1119
   8723SM   H2S11619   3.958   4.769  10.043 -0.1024 -0.0265  0.3756
   8723SM   C3S11620   4.176   4.817  10.043 -0.2596  0.0983  0.4355
   8723SM   H3S11621   4.242   4.904  10.023  1.4948 -1.3239 -0.3718
   8723SM    O311622   4.229   4.705   9.972  0.8270 -0.4087 -0.3139
   8723SM   HO311623   4.160   4.677   9.912  0.0750 -0.7437  0.6791
   8723SM   C4S11624   4.195   4.791  10.191 -0.3203  0.4982 -0.3284
   8723SM   H4S11625   4.147   4.696  10.217 -1.2497  0.9931 -0.1671
   8723SM   C5S11626   4.262   4.858  10.290  0.2363 -0.1842  0.0153
   8723SM   H5S11627   4.325   4.944  10.263  0.3397 -0.1654  0.3142
   8723SM   C6S11628   4.268   4.812  10.437  0.3167  0.1004  0.5967
   8723SM   H6S11629   4.364   4.761  10.458 -0.5257 -1.3991  0.9449
   8723SM   H6T11630   4.193   4.731  10.442 -0.8762  1.2019  1.2950
   8723SM   C7S11631   4.241   4.919  10.542 -0.4914 -0.6611 -0.6257
   8723SM   H7S11632   4.131   4.933  10.550 -0.4328  0.1671 -1.1298
   8723SM   H7T11633   4.285   5.017  10.514  1.0903 -0.0766  3.3529
   8723SM   C8S11634   4.296   4.866  10.670 -0.3854 -0.3501 -0.3093
   8723SM   H8S11635   4.407   4.869  10.669 -0.3716  0.7343  1.1441
   8723SM   H8T11636   4.264   4.760  10.673 -1.5131 -0.0038  0.4547
   8723SM   C9S11637   4.246   4.952  10.787  0.9276  0.2384 -0.2284
   8723SM   H9S11638   4.136   4.958  10.776  0.9538  1.0192 -0.1396
   8723SM   H9T11639   4.278   5.058  10.779 -1.3162  0.9499 -0.3280
   8723SM  C10S11640   4.278   4.893  10.928  0.3618 -0.3521 -0.0414
   8723SM  H10S11641   4.388   4.883  10.940  0.2630 -2.0179 -0.2420
   8723SM  H10T11642   4.226   4.795  10.936 -0.9418  0.3738  0.7362
   8723SM  C11S11643   4.235   4.982  11.041 -0.5416  0.6096  0.3158
   8723SM  H11S11644   4.127   5.008  11.030 -1.0435 -1.1292  0.9106
   8723SM  H11T11645   4.292   5.077  11.031  0.2996  0.0408 -0.4288
   8723SM  C12S11646   4.250   4.918  11.178  0.1732 -0.4962 -0.6939
   8723SM  H12S11647   4.357   4.890  11.183 -0.0974 -1.3975  0.9428
   8723SM  H12T11648   4.179   4.833  11.189 -1.0415  0.5572 -0.0478
   8723SM  C13S11649   4.218   5.019  11.293 -0.5320  0.3002  0.7094
   8723SM  H13S11650   4.115   5.059  11.279 -0.4355 -0.2920 -2.6123
   8723SM  H13T11651   4.288   5.106  11.289 -1.1051  0.7218 -1.3457
   8723SM  C14S11652   4.219   4.961  11.434  0.5422 -0.2769  0.1615
   8723SM  H14S11653   4.322   4.926  11.457  0.7616  0.1803 -0.1194
   8723SM  H14T11654   4.163   4.865  11.426  0.4484 -0.3756  1.6931
   8723SM  C15S11655   4.159   5.059  11.539 -0.1594 -0.2234  0.3816
   8723SM  H15S11656   4.053   5.077  11.512  0.6979  1.5159 -2.1494
   8723SM  H15T11657   4.231   5.144  11.537  0.6652 -0.9062 -1.6400
   8723SM  C16S11658   4.150   4.986  11.671 -0.4346  0.4815 -0.1380
   8723SM  H16S11659   4.255   4.957  11.695 -0.4821  0.1112 -0.3726
   8723SM  H16T11660   4.084   4.899  11.651 -1.4391  0.7597  1.7826
   8723SM  C17S11661   4.087   5.067  11.783  0.2861  0.4509  0.4423
   8723SM  H17S11662   3.985   5.095  11.751  0.1357 -0.1772  0.3642
   8723SM  H17T11663   4.154   5.155  11.799  1.1723 -0.2954  0.9515
   8723SM  C18S11664   4.077   4.995  11.916 -0.8473 -0.6656  0.0152
   8723SM  H18S11665   3.997   4.918  11.922  0.6205 -2.1629  1.5017
   8723SM  H18T11666   4.054   5.068  11.996 -0.3997  1.4297 -1.6769
   8723SM  H18U11667   4.167   4.935  11.939 -0.3071  0.5321  1.1073
   8723SM   C1F11668   3.857   4.992  10.093  0.4496 -0.3003 -0.8429
   8723SM    OF11669   3.771   4.908  10.068 -0.3102  0.0535 -0.3542
   8723SM   C2F11670   3.816   5.125  10.154 -0.3749 -0.1381 -0.0973
   8723SM   H2F11671   3.791   5.201  10.077  2.3683  1.7179  0.6904
   8723SM   H2G11672   3.902   5.172  10.205 -1.6947  2.1578  0.1649
   8723SM   C3F11673   3.704   5.109  10.256  0.4226  0.1080 -0.1503
   8723SM   H3F11674   3.630   5.036  10.218  3.3095 -2.4870 -1.2838
   8723SM   H3G11675   3.646   5.203  10.266  0.4125  0.0928 -0.0650
   8723SM   C4F11676   3.746   5.066  10.398 -0.7295  0.1105 -0.4225
   8723SM   H4F11677   3.778   4.960  10.401  0.6260  0.5055  0.0466
   8723SM   H4G11678   3.652   5.068  10.457 -0.9427  0.4100 -0.7700
   8723SM   C5F11679   3.855   5.157  10.455 -0.2518  0.2006 -0.1593
   8723SM   H5F11680   3.819   5.262  10.457 -1.0996 -0.0250  3.3176
   8723SM   H5G11681   3.947   5.150  10.394 -0.4582 -1.5233 -0.3151
   8723SM   C6F11682   3.903   5.102  10.593  0.3046  0.1778 -0.1235
   8723SM   H6F11683   4.006   5.141  10.608 -0.4654  2.0564  0.6533
   8723SM   H6G11684   3.915   4.992  10.592 -1.3543 -0.0878  1.8757
   8723SM   C7F11685   3.815   5.151  10.705 -0.8172 -0.3212  0.1001
   8723SM   H7F11686   3.713   5.108  10.701 -0.4481 -1.3336  1.0485
   8723SM   H7G11687   3.818   5.262  10.702 -0.2716 -0.2099  2.7540
   8723SM   C8F11688   3.866   5.111  10.848 -0.0055 -0.3677  0.1541
   8723SM   H8F11689   3.962   5.161  10.873  1.0055 -2.7785  1.4952
   8723SM   H8G11690   3.896   5.006  10.866  1.2484  0.1982  1.5946
   8723SM   C9F11691   3.778   5.171  10.963  0.1074 -0.0821  0.6749
   8723SM   H9F11692   3.674   5.132  10.959  0.0638 -0.1436 -3.8698
   8723SM   H9G11693   3.787   5.282  10.960  0.0964 -0.0924 -0.4706
   8723SM  C10F11694   3.838   5.129  11.103 -0.3954  0.0064  0.2184
   8723SM  H10F11695   3.946   5.155  11.098 -1.0922  3.1934 -1.2522
   8723SM  H10G11696   3.844   5.021  11.127  1.2401 -0.2881 -1.2986
   8723SM  C11F11697   3.772   5.203  11.226 -0.0605  0.2415 -0.2028
   8723SM  H11F11698   3.665   5.220  11.199  0.1691  3.2425  0.4427
   8723SM  H11G11699   3.814   5.305  11.240 -2.2708  1.3412 -1.0590
   8723SM  C12F11700   3.789   5.116  11.356 -0.3827 -0.1283 -0.5289
   8723SM  H12F11701   3.885   5.146  11.404 -1.2903  0.6213  0.8882
   8723SM  H12G11702   3.795   5.009  11.326 -1.3911 -1.0616  2.3174
   8723SM  C13F11703   3.684   5.119  11.462 -0.5611  0.6229  0.3151
   8723SM  H13F11704   3.581   5.115  11.419 -0.3062  0.6264 -0.3019
   8723SM  H13G11705   3.680   5.222  11.504 -3.2706  0.5463  0.4669
   8723SM  C14F11706   3.716   5.013  11.567  0.4099  0.1594 -0.1568
   8723SM  H14F11707   3.823   5.007  11.595  0.7415 -0.4787 -1.5081
   8723SM  H14G11708   3.690   4.910  11.536 -3.3789  0.6346  0.9534
   8723SM  C15F11709   3.633   5.044  11.696 -0.2970 -1.0794  0.0115
   8723SM  H15F11710   3.525   5.059  11.679 -0.4077  2.6763  2.6273
   8723SM  H15G11711   3.668   5.146  11.727 -1.0512 -0.6493 -0.5246
   8723SM  C16F11712   3.655   4.939  11.797  0.1108 -0.5710 -0.0305
   8723SM  H16F11713   3.743   4.877  11.771 -0.4879 -1.5471  0.2419
   8723SM  H16G11714   3.569   4.869  11.796 -0.2508 -0.1516  0.9800
   8723SM  C17F11715   3.655   4.983  11.945  0.3846  0.1013  0.0071
   8723SM  H17F11716   3.738   5.052  11.972  1.2514 -0.9622  0.1699
   8723SM  H17G11717   3.669   4.896  12.013 -0.5360  0.2752  0.4297
   8723SM  C18F11718   3.517   5.044  11.972 -0.4386  0.4728  0.1946
   8723SM  H18F11719   3.433   4.973  11.959 -1.5035  1.6718  0.3248
   8723SM  H18G11720   3.488   5.127  11.904 -1.2343 -0.7378 -0.9850
   8723SM  C19F11721   3.519   5.091  12.121 -0.0550  0.0728 -0.4454
   8723SM  H19F11722   3.592   5.172  12.139  1.6537 -1.3653 -0.6258
   8723SM  H19G11723   3.545   5.004  12.185 -0.4633 -0.7229 -1.3183
   8723SM  C20F11724   3.387   5.148  12.175 -0.4425 -0.2152 -0.5988
   8723SM  H20F11725   3.303   5.076  12.162  1.5777 -3.4756  2.5882
   8723SM  H20G11726   3.354   5.244  12.129 -2.2773  1.2543  3.3586
   8723SM  C21F11727   3.403   5.191  12.321  0.5935  0.6837 -0.0332
   8723SM  H21F11728   3.494   5.253  12.334  0.9703 -0.2706  2.3396
   8723SM  H21G11729   3.415   5.094  12.373  0.0540 -0.5533 -2.0863
   8723SM  C22F11730   3.283   5.257  12.392 -0.5371  0.2942 -0.0058
   8723SM  H22F11731   3.197   5.186  12.387 -0.5610  0.3279 -0.0722
   8723SM  H22G11732   3.249   5.338  12.324  1.9244  0.8036 -0.6986
   8723SM  C23F11733   3.311   5.310  12.534 -0.1968  0.2503  0.0918
   8723SM  H23F11734   3.328   5.222  12.601 -0.8638 -0.2762 -0.4224
   8723SM  H23G11735   3.229   5.371  12.577 -0.8397  1.1574 -2.2752
   8723SM  H23H11736   3.402   5.374  12.527 -1.0057  1.2538 -2.0974
   8823SM     N11737   2.268   5.825   9.675  0.5035  0.1903  0.5421
   8823SM   C1511738   2.401   5.847   9.626 -0.1278 -0.0946  0.4529
   8823SM  H15A11739   2.476   5.804   9.690 -0.3424 -1.1461  0.0171
   8823SM  H15B11740   2.438   5.948   9.621 -0.5597  0.1658  1.9487
   8823SM  H15C11741   2.418   5.799   9.530 -1.4929 -0.0743  0.1688
   8823SM   C1411742   2.233   5.682   9.653  0.1374  1.0798 -0.3406
   8823SM  H14A11743   2.317   5.614   9.661 -0.8363 -0.0468  0.4800
   8823SM  H14B11744   2.209   5.653   9.552  2.1315 -3.0565  0.1695
   8823SM  H14C11745   2.146   5.652   9.709  0.6696  0.0070 -0.0636
   8823SM   C1311746   2.263   5.845   9.823 -0.1546 -0.7576 -0.2695
   8823SM  H13A11747   2.334   5.780   9.872  2.3886  1.1430 -1.2117
   8823SM  H13B11748   2.162   5.824   9.857  0.9569 -2.5273  2.2105
   8823SM  H13C11749   2.286   5.945   9.857 -1.0624 -0.3659 -0.7558
   8823SM   C1211750   2.172   5.916   9.605  0.3634 -0.0326  0.6831
   8823SM  H12A11751   2.184   5.913   9.498  0.9365 -2.9176  0.7390
   8823SM  H12B11752   2.195   6.019   9.629 -0.9846  0.8573 -1.5527
   8823SM   C1111753   2.022   5.898   9.647 -0.4334  0.0126  0.0543
   8823SM  H11A11754   1.990   5.792   9.649  1.2302 -0.5299 -0.2614
   8823SM  H11B11755   1.969   5.939   9.559  0.6369  0.9153 -0.1919
   8823SM     P11756   1.973   6.125   9.764  0.3342 -0.2391  0.3700
   8823SM   O1311757   2.062   6.184   9.661  0.3105 -0.1094 -0.0983
   8823SM   O1411758   1.824   6.144   9.758  0.1831 -0.6583  0.2746
   8823SM   O1111759   2.015   6.159   9.908 -0.3323 -0.4724  1.0335
   8823SM   O1211760   1.994   5.971   9.764 -0.1658 -0.3926 -0.7139
   8823SM   C1S11761   1.949   6.102  10.016 -0.1871  0.3847 -0.0564
   8823SM   H1S11762   1.972   5.995  10.036  0.5853  0.7083  0.8671
   8823SM   H1T11763   1.840   6.123  10.020 -0.5087 -0.7423 -1.8128
   8823SM    NF11764   1.946   6.117  10.271  0.4395 -0.7231 -0.3755
   8823SM   HNF11765   1.886   6.172  10.329  0.0155 -0.9421 -0.5987
   8823SM   C2S11766   1.996   6.177  10.145  0.9528 -0.9492 -0.2078
   8823SM   H2S11767   2.107   6.175  10.141  1.1650  1.8066  1.7162
   8823SM   C3S11768   1.967   6.338  10.127  0.3335 -0.4806 -0.7314
   8823SM   H3S11769   1.858   6.362  10.127  0.0406 -1.1412  2.8700
   8823SM    O311770   2.023   6.393  10.011  0.0884  0.6249  0.1981
   8823SM   HO311771   2.046   6.316   9.959  1.3406  0.5928  0.7429
   8823SM   C4S11772   2.048   6.396  10.234  0.2040 -0.2245 -0.2573
   8823SM   H4S11773   2.157   6.380  10.229  0.7809  3.0120  0.1144
   8823SM   C5S11774   2.004   6.447  10.349 -0.7952  0.1329  0.6548
   8823SM   H5S11775   1.897   6.428  10.365 -0.8671  0.7315  0.8896
   8823SM   C6S11776   2.092   6.491  10.458 -0.8748 -0.4337  0.6397
   8823SM   H6S11777   2.107   6.601  10.449  1.2220 -0.7978 -1.3571
   8823SM   H6T11778   2.197   6.461  10.437 -1.0240  1.3324 -3.4790
   8823SM   C7S11779   2.059   6.450  10.599  0.2769  0.4252  0.4321
   8823SM   H7S11780   2.090   6.344  10.611  0.2526  0.1415 -1.6593
   8823SM   H7T11781   1.952   6.467  10.621 -0.1341 -0.0912 -1.0504
   8823SM   C8S11782   2.136   6.529  10.699 -0.0398 -0.4603 -0.1709
   8823SM   H8S11783   2.080   6.622  10.720  1.6813  0.3435  1.2028
   8823SM   H8T11784   2.240   6.548  10.664 -0.0567  1.2970  0.6309
   8823SM   C9S11785   2.150   6.455  10.834  0.2592 -0.6143 -0.1836
   8823SM   H9S11786   2.220   6.505  10.905  1.1780  0.0088 -1.4901
   8823SM   H9T11787   2.204   6.359  10.814  0.7238 -1.1616  3.0555
   8823SM  C10S11788   2.011   6.438  10.899  0.8547  0.1174  0.1636
   8823SM  H10S11789   1.952   6.363  10.844 -0.7553  2.0439 -0.8728
   8823SM  H10T11790   1.952   6.532  10.899  0.2046 -0.2806 -0.6353
   8823SM  C11S11791   2.032   6.388  11.042  0.4273 -0.6474 -0.2313
   8823SM  H11S11792   2.119   6.320  11.034  1.0108 -0.0816  0.9725
   8823SM  H11T11793   1.950   6.323  11.080 -0.2544  0.0247 -0.5051
   8823SM  C12S11794   2.064   6.504  11.135 -0.1503  0.1248 -0.3866
   8823SM  H12S11795   1.998   6.587  11.103 -0.6807 -1.4023 -3.6326
   8823SM  H12T11796   2.172   6.531  11.125 -0.1619 -0.5744 -3.1560
   8823SM  C13S11797   2.022   6.475  11.286 -0.2218  0.1057  0.1633
   8823SM  H13S11798   2.059   6.374  11.313  0.7780  0.5066  0.3453
   8823SM  H13T11799   1.912   6.460  11.284 -0.0578 -1.1982 -1.0366
   8823SM  C14S11800   2.054   6.574  11.397 -0.1082  0.4740 -0.3163
   8823SM  H14S11801   2.043   6.677  11.357  2.4675  0.9100 -0.0929
   8823SM  H14T11802   2.162   6.555  11.415  0.1584  1.2598 -1.0168
   8823SM  C15S11803   1.958   6.548  11.517 -0.7305 -0.2944  0.0300
   8823SM  H15S11804   1.957   6.439  11.539  3.1065 -0.7228 -1.2450
   8823SM  H15T11805   1.861   6.591  11.484 -0.7415 -1.1036 -1.0716
   8823SM  C16S11806   2.001   6.611  11.646  0.2433 -0.0792  0.4134
   8823SM  H16S11807   2.081   6.548  11.689 -1.2720 -2.1304  0.3583
   8823SM  H16T11808   1.927   6.606  11.728 -0.6456 -2.5507 -0.4703
   8823SM  C17S11809   2.057   6.748  11.618 -0.0520  0.3513  0.5361
   8823SM  H17S11810   1.992   6.805  11.548 -0.1603 -0.1240  0.2506
   8823SM  H17T11811   2.154   6.738  11.564 -1.1590  0.7551 -1.6471
   8823SM  C18S11812   2.083   6.827  11.745  0.1589 -0.5085  0.6042
   8823SM  H18S11813   2.178   6.884  11.749  0.4504 -0.8801 -0.6214
   8823SM  H18T11814   2.097   6.757  11.830 -2.3183 -0.3880  1.1787
   8823SM  H18U11815   2.005   6.894  11.787  2.0937  1.5195  1.1939
   8823SM   C1F11816   1.952   5.994  10.307 -1.3980 -0.7111 -0.2332
   8823SM    OF11817   2.035   5.920  10.266 -0.5027 -0.3890  0.6560
   8823SM   C2F11818   1.866   5.954  10.426  0.3277  0.2165  0.0360
   8823SM   H2F11819   1.775   6.018  10.427  0.6887  0.7393 -0.0339
   8823SM   H2G11820   1.924   5.975  10.519 -0.4636 -0.3033  0.6569
   8823SM   C3F11821   1.822   5.807  10.417 -0.2933 -0.1797  0.1757
   8823SM   H3F11822   1.913   5.744  10.423 -0.2057  0.0374  1.2976
   8823SM   H3G11823   1.771   5.795  10.318 -2.2747  1.0794  0.9716
   8823SM   C4F11824   1.722   5.764  10.524  0.2973 -0.2594 -0.9159
   8823SM   H4F11825   1.682   5.662  10.504 -2.8783 -0.0566  3.0155
   8823SM   H4G11826   1.643   5.842  10.522  0.5442  0.4620  4.2653
   8823SM   C5F11827   1.787   5.767  10.663 -0.0727  0.4074 -0.7764
   8823SM   H5F11828   1.831   5.866  10.689 -2.5722  1.5709 -0.6726
   8823SM   H5G11829   1.864   5.688  10.671  0.7140  1.2343 -0.0276
   8823SM   C6F11830   1.680   5.724  10.769  0.3077 -0.2159  0.4229
   8823SM   H6F11831   1.636   5.630  10.730 -0.6169  1.2247 -2.2683
   8823SM   H6G11832   1.601   5.801  10.757  0.1586 -0.5002 -0.5144
   8823SM   C7F11833   1.741   5.716  10.915  0.5973 -0.5946  0.1352
   8823SM   H7F11834   1.783   5.814  10.948  1.7106 -1.1049  0.2688
   8823SM   H7G11835   1.832   5.652  10.920  1.1595  0.0278 -1.4094
   8823SM   C8F11836   1.635   5.677  11.025 -0.3789 -0.0801  0.0027
   8823SM   H8F11837   1.631   5.566  11.023 -2.0851 -0.0522 -0.0508
   8823SM   H8G11838   1.537   5.709  10.984  1.3316  2.3171 -2.6234
   8823SM   C9F11839   1.655   5.733  11.164 -0.3249 -0.3834  0.3642
   8823SM   H9F11840   1.657   5.843  11.178 -1.9368 -0.6052  2.9965
   8823SM   H9G11841   1.758   5.705  11.195 -0.6613 -2.1241  0.0480
   8823SM  C10F11842   1.567   5.671  11.275 -0.5174 -0.1105  0.6030
   8823SM  H10F11843   1.581   5.561  11.277  2.2412  0.1651  0.6636
   8823SM  H10G11844   1.466   5.688  11.231  0.5102  1.6242 -1.3267
   8823SM  C11F11845   1.597   5.718  11.419  0.1234 -0.6719 -0.0995
   8823SM  H11F11846   1.531   5.656  11.482 -0.9246 -0.0241 -0.5405
   8823SM  H11G11847   1.577   5.826  11.440  0.4169 -1.0611  2.5128
   8823SM  C12F11848   1.740   5.672  11.472 -0.4603 -0.5419  0.1441
   8823SM  H12F11849   1.821   5.717  11.411 -0.4759 -1.9852 -1.0260
   8823SM  H12G11850   1.744   5.564  11.446  1.8785 -0.3240 -0.6069
   8823SM  C13F11851   1.775   5.699  11.620  0.2812  0.5338  0.8386
   8823SM  H13F11852   1.847   5.624  11.659 -0.7857 -1.1046 -0.2081
   8823SM  H13G11853   1.684   5.670  11.677  1.4606 -0.6690  2.2002
   8823SM  C14F11854   1.825   5.834  11.644 -0.3032 -0.1762  0.0831
   8823SM  H14F11855   1.751   5.911  11.613 -1.3615 -0.7356  1.1451
   8823SM  H14G11856   1.920   5.838  11.586 -0.5948 -1.0925 -0.4888
   8823SM  C15F11857   1.837   5.869  11.795  0.0701 -0.3731 -0.4255
   8823SM  H15F11858   1.882   5.784  11.851 -2.1383 -1.8173 -0.7020
   8823SM  H15G11859   1.736   5.877  11.841  0.3719 -0.6594  0.3053
   8823SM  C16F11860   1.916   5.998  11.818  0.6380 -0.0528  0.4454
   8823SM  H16F11861   2.004   5.991  11.751  0.0523  0.4159 -0.3949
   8823SM  H16G11862   1.945   5.992  11.925  1.9792 -3.7609  0.0351
   8823SM  C17F11863   1.823   6.119  11.787 -0.2220  0.1612 -0.2081
   8823SM  H17F11864   1.729   6.100  11.843 -0.0538 -1.4631 -0.4293
   8823SM  H17G11865   1.803   6.120  11.678 -0.0763  0.1509 -0.2353
   8823SM  C18F11866   1.890   6.247  11.840  0.2398  0.1372 -0.5181
   8823SM  H18F11867   1.980   6.268  11.778 -0.1434 -1.6617 -1.7584
   8823SM  H18G11868   1.924   6.237  11.945  0.0581  0.6096 -0.4100
   8823SM  C19F11869   1.787   6.370  11.844 -0.5219  0.4645  0.2911
   8823SM  H19F11870   1.692   6.327  11.807  1.0177 -0.1075 -3.3483
   8823SM  H19G11871   1.822   6.445  11.770  0.9182  0.2078  0.6861
   8823SM  C20F11872   1.767   6.443  11.978  0.2097 -0.5899 -0.2775
   8823SM  H20F11873   1.710   6.382  12.050 -2.6608  0.6714 -1.3528
   8823SM  H20G11874   1.702   6.529  11.950  1.6479  0.3214 -0.9784
   8823SM  C21F11875   1.906   6.495  12.036  0.1158 -0.3340 -0.0586
   8823SM  H21F11876   1.970   6.530  11.952 -0.5625  0.2443 -0.3538
   8823SM  H21G11877   1.957   6.408  12.081  0.0987 -0.4938 -0.3421
   8823SM  C22F11878   1.897   6.609  12.139 -0.2290  0.1286 -0.0553
   8823SM  H22F11879   1.828   6.690  12.105 -0.4614  0.8840  2.0570
   8823SM  H22G11880   1.996   6.657  12.149  0.0728 -0.7240  1.3870
   8823SM  C23F11881   1.847   6.557  12.281 -0.1087  0.1986  0.3747
   8823SM  H23F11882   1.736   6.544  12.279 -0.6211  3.4067  1.3630
   8823SM  H23G11883   1.860   6.641  12.353 -2.4200  0.6664  0.3468
   8823SM  H23H11884   1.907   6.471  12.315 -1.6784 -0.8176  0.7034
   8923SM     N11885   5.471   4.644   9.819 -0.2073  0.4042 -0.5344
   8923SM   C1511886   5.467   4.769   9.743  0.2566 -0.1780  0.0209
   8923SM  H15A11887   5.524   4.759   9.652 -0.7273  1.7014 -0.8665
   8923SM  H15B11888   5.522   4.849   9.791  2.1044  0.5255 -2.9725
   8923SM  H15C11889   5.364   4.792   9.721 -0.2142  0.3049  2.4790
   8923SM   C1411890   5.372   4.548   9.755  0.1683 -0.0995  0.1927
   8923SM  H14A11891   5.274   4.591   9.770 -0.2745 -1.1468  0.3821
   8923SM  H14B11892   5.366   4.449   9.798 -2.0685  0.4885  1.3789
   8923SM  H14C11893   5.397   4.539   9.650  1.5177  1.3271  0.3524
   8923SM   C1311894   5.615   4.587   9.810  0.5501 -0.0071  0.1466
   8923SM  H13A11895   5.678   4.666   9.847 -1.4775  2.4167 -1.2745
   8923SM  H13B11896   5.646   4.566   9.709 -1.7516  1.1809 -0.8728
   8923SM  H13C11897   5.624   4.500   9.875  1.7223  0.4740  0.6541
   8923SM   C1211898   5.431   4.666   9.963  0.2295  0.5174 -0.1838
   8923SM  H12A11899   5.488   4.742  10.013  0.7875  0.7009 -1.0723
   8923SM  H12B11900   5.446   4.573  10.016 -0.7944  0.5366  0.1804
   8923SM   C1111901   5.284   4.711   9.987  0.3619  0.8057  0.3300
   8923SM  H11A11902   5.267   4.791   9.911 -2.6660  0.1155  0.1532
   8923SM  H11B11903   5.271   4.762  10.085 -0.5266  0.8876  0.1783
   8923SM     P11904   5.053   4.612   9.992  0.4050  0.2409  0.5920
   8923SM   O1311905   5.001   4.691   9.881 -0.1170  0.4753  0.0261
   8923SM   O1411906   4.992   4.480  10.011 -0.0278  0.1486  0.2531
   8923SM   O1111907   5.043   4.687  10.122 -0.0185 -0.5705 -0.4833
   8923SM   O1211908   5.206   4.593   9.968  0.0059  0.7857 -0.4247
   8923SM   C1S11909   5.103   4.630  10.247  0.0182  0.0725  0.9667
   8923SM   H1S11910   5.214   4.624  10.255  0.0169  1.5212  2.7852
   8923SM   H1T11911   5.073   4.525  10.270  2.0759 -0.4952  1.2369
   8923SM    NF11912   5.141   4.659  10.488 -0.1258  0.4597  0.0759
   8923SM   HNF11913   5.105   4.585  10.543  0.6064  0.2435  0.2861
   8923SM   C2S11914   5.060   4.709  10.375  0.4325 -0.1404 -0.3537
   8923SM   H2S11915   5.091   4.815  10.365  4.0450 -1.0160  0.3878
   8923SM   C3S11916   4.907   4.704  10.403  0.5708 -0.0922  0.5963
   8923SM   H3S11917   4.878   4.597  10.405  1.0577 -0.2327  0.3234
   8923SM    O311918   4.836   4.737  10.283  0.1741  0.2529 -0.7074
   8923SM   HO311919   4.907   4.748  10.220  0.7663 -0.7484 -0.2499
   8923SM   C4S11920   4.848   4.777  10.515 -0.5446  0.0433  0.0607
   8923SM   H4S11921   4.844   4.886  10.500  0.4557 -0.0973 -1.3229
   8923SM   C5S11922   4.802   4.729  10.627  0.5333  0.0458 -0.3327
   8923SM   H5S11923   4.797   4.619  10.629 -1.4903  0.0545  2.5226
   8923SM   C6S11924   4.742   4.817  10.737 -0.9723 -0.4019 -0.3335
   8923SM   H6S11925   4.632   4.820  10.744 -1.1243  1.6272 -2.2352
   8923SM   H6T11926   4.776   4.923  10.733  0.7912 -0.8238  1.4839
   8923SM   C7S11927   4.799   4.758  10.872  0.0439 -0.0875  0.4100
   8923SM   H7S11928   4.908   4.778  10.872  0.4745 -2.1885  0.6037
   8923SM   H7T11929   4.782   4.649  10.876  1.0941 -0.3013 -0.6709
   8923SM   C8S11930   4.751   4.827  10.999 -0.1216  0.5832 -0.3051
   8923SM   H8S11931   4.644   4.807  11.018 -0.3813  1.1294 -1.1089
   8923SM   H8T11932   4.753   4.938  10.990  0.5739  0.5818 -0.2014
   8923SM   C9S11933   4.816   4.772  11.129  0.0918 -0.0524 -0.3082
   8923SM   H9S11934   4.926   4.792  11.129  0.5015 -2.0576 -1.6951
   8923SM   H9T11935   4.797   4.663  11.128  0.0256 -0.1790  2.9671
   8923SM  C10S11936   4.749   4.825  11.263 -0.0910 -0.1688  0.2224
   8923SM  H10S11937   4.647   4.786  11.281 -1.5966  2.4210 -1.9207
   8923SM  H10T11938   4.737   4.933  11.241 -2.3347 -0.8606 -2.5407
   8923SM  C11S11939   4.840   4.808  11.385  0.2567 -0.1374  0.0214
   8923SM  H11S11940   4.908   4.894  11.398  0.4119 -0.2208 -0.2221
   8923SM  H11T11941   4.905   4.719  11.375 -0.4451 -0.4791 -2.2332
   8923SM  C12S11942   4.762   4.785  11.514 -0.0169 -0.9171  0.2124
   8923SM  H12S11943   4.689   4.701  11.513 -0.5347 -0.4760  0.0643
   8923SM  H12T11944   4.693   4.873  11.516 -1.9169 -2.2798 -1.4727
   8923SM  C13S11945   4.845   4.788  11.643 -0.9558  0.3822  0.4561
   8923SM  H13S11946   4.926   4.712  11.640 -1.5226 -0.2015 -0.1386
   8923SM  H13T11947   4.776   4.760  11.726  2.0569 -1.5971  2.5153
   8923SM  C14S11948   4.909   4.930  11.673  0.6316  0.1745 -0.2152
   8923SM  H14S11949   4.818   4.992  11.682 -0.6731 -1.9230  2.1104
   8923SM  H14T11950   4.984   4.950  11.593  1.3122 -2.1420 -0.2357
   8923SM  C15S11951   4.980   4.931  11.816 -0.9208 -0.0487  0.4640
   8923SM  H15S11952   5.067   4.862  11.813 -0.2715  0.5759  2.5353
   8923SM  H15T11953   4.910   4.897  11.896 -0.4367 -2.2949 -0.0053
   8923SM  C16S11954   5.033   5.071  11.869 -1.1720 -0.2147 -0.1420
   8923SM  H16S11955   4.945   5.128  11.905 -1.5319 -1.0809  0.3915
   8923SM  H16T11956   5.076   5.121  11.780  0.4091  0.2335  0.8322
   8923SM  C17S11957   5.140   5.073  11.984 -0.0905 -0.1935 -0.1586
   8923SM  H17S11958   5.156   4.973  12.031  1.0592 -0.1401 -0.4241
   8923SM  H17T11959   5.105   5.147  12.059  0.9706  0.4972 -0.3323
   8923SM  C18S11960   5.282   5.114  11.933  0.3800 -0.1571  0.2230
   8923SM  H18S11961   5.311   5.060  11.840 -3.1830  0.8033 -1.6230
   8923SM  H18T11962   5.356   5.104  12.016 -1.5399  0.1317  2.0736
   8923SM  H18U11963   5.281   5.223  11.912  0.6297 -0.1345  0.3264
   8923SM   C1F11964   5.271   4.690  10.500 -0.2753  0.1233  0.0087
   8923SM    OF11965   5.316   4.781  10.429 -0.1559 -0.2972 -0.3180
   8923SM   C2F11966   5.349   4.618  10.607  0.5871  0.0843 -0.3699
   8923SM   H2F11967   5.285   4.534  10.641 -0.3225  0.5793 -0.8272
   8923SM   H2G11968   5.376   4.678  10.696 -0.2213 -1.1967  0.7724
   8923SM   C3F11969   5.475   4.555  10.546 -0.0237  0.7510 -0.0856
   8923SM   H3F11970   5.550   4.637  10.538  1.4593 -0.3691  1.4072
   8923SM   H3G11971   5.458   4.505  10.448 -0.0462 -0.2578  0.4222
   8923SM   C4F11972   5.536   4.452  10.640 -0.4792  0.1343 -0.0586
   8923SM   H4F11973   5.627   4.429  10.582 -0.8962  0.6715 -0.9410
   8923SM   H4G11974   5.485   4.353  10.643 -0.3157  0.0490 -0.1174
   8923SM   C5F11975   5.569   4.499  10.778  0.5486 -0.2357 -0.2637
   8923SM   H5F11976   5.475   4.504  10.837 -0.3018 -0.5067 -1.5486
   8923SM   H5G11977   5.600   4.605  10.767 -1.8618  0.5646  0.1494
   8923SM   C6F11978   5.683   4.415  10.852  0.4200 -0.7108 -0.1975
   8923SM   H6F11979   5.775   4.437  10.793  0.9063 -1.6325  0.2100
   8923SM   H6G11980   5.649   4.310  10.852 -0.7266 -0.3697 -1.0783
   8923SM   C7F11981   5.699   4.476  10.994 -0.3948  0.1745  0.7340
   8923SM   H7F11982   5.599   4.512  11.025 -0.7235  1.2484 -1.4080
   8923SM   H7G11983   5.765   4.564  10.976  0.5660 -0.4026  1.3380
   8923SM   C8F11984   5.767   4.379  11.085  0.3502 -0.1191  0.7482
   8923SM   H8F11985   5.805   4.436  11.172 -0.7322  1.2609  0.3717
   8923SM   H8G11986   5.851   4.340  11.024 -1.0114 -0.0555 -1.2845
   8923SM   C9F11987   5.679   4.267  11.136  0.6891 -0.7071 -0.1654
   8923SM   H9F11988   5.735   4.197  11.201  1.5751  0.4281  0.3477
   8923SM   H9G11989   5.638   4.205  11.054 -0.2362  0.1815 -0.4030
   8923SM  C10F11990   5.551   4.311  11.228 -0.6570 -0.1734  0.4153
   8923SM  H10F11991   5.457   4.290  11.173  0.5869 -0.8826 -1.5374
   8923SM  H10G11992   5.564   4.417  11.259  1.5442 -0.6755  1.4161
   8923SM  C11F11993   5.558   4.238  11.366  0.6712  0.3301  0.1655
   8923SM  H11F11994   5.648   4.275  11.419 -1.3701  0.3180  4.0107
   8923SM  H11G11995   5.566   4.128  11.347 -1.3104  0.2781 -0.5939
   8923SM  C12F11996   5.442   4.292  11.454 -0.5535 -0.0772 -0.6509
   8923SM  H12F11997   5.348   4.244  11.421 -1.5005  1.2219  0.0356
   8923SM  H12G11998   5.430   4.402  11.445 -3.1347 -0.3981 -2.0018
   8923SM  C13F11999   5.463   4.252  11.603  0.4390 -0.2256  0.7988
   8923SM  H13F12000   5.474   4.142  11.609 -0.0243 -0.2331  1.6378
   8923SM  H13G12001   5.364   4.266  11.652  0.5113 -0.4559  1.0109
   8923SM  C14F12002   5.571   4.338  11.676 -0.4420 -0.0260 -0.0265
   8923SM  H14F12003   5.534   4.442  11.686  2.7267  1.2552 -0.3637
   8923SM  H14G12004   5.654   4.355  11.603 -0.5196 -0.2410 -0.1644
   8923SM  C15F12005   5.618   4.284  11.819  0.0226 -0.5532  0.4967
   8923SM  H15F12006   5.714   4.325  11.858 -0.4481  0.9373  0.1446
   8923SM  H15G12007   5.641   4.177  11.803 -0.2135 -0.2387 -2.3839
   8923SM  C16F12008   5.515   4.306  11.938  0.4095  0.1376 -0.5703
   8923SM  H16F12009   5.524   4.225  12.013  0.4893 -0.4111 -1.1643
   8923SM  H16G12010   5.409   4.293  11.904  0.1666  1.2273 -0.2481
   8923SM  C17F12011   5.538   4.447  12.013 -0.0666 -0.4414  0.4700
   8923SM  H17F12012   5.491   4.528  11.953  0.7552 -0.2254  0.1056
   8923SM  H17G12013   5.647   4.466  12.021 -0.2189  0.0806  1.5610
   8923SM  C18F12014   5.477   4.467  12.155 -0.2776 -0.7678  0.9233
   8923SM  H18F12015   5.366   4.475  12.155 -0.1395  2.5934  0.6043
   8923SM  H18G12016   5.515   4.562  12.198 -0.3696 -0.8776  1.2509
   8923SM  C19F12017   5.498   4.350  12.251 -0.0026 -0.5151  0.0076
   8923SM  H19F12018   5.609   4.343  12.258 -0.0366 -0.1080  1.1734
   8923SM  H19G12019   5.456   4.250  12.228 -0.4151 -0.6329  1.2043
   8923SM  C20F12020   5.453   4.396  12.392  0.2032 -0.4056 -0.5853
   8923SM  H20F12021   5.346   4.417  12.375  0.0828 -1.2712 -0.9685
   8923SM  H20G12022   5.488   4.500  12.410  0.8594 -0.2909 -2.3196
   8923SM  C21F12023   5.490   4.298  12.502  0.3799 -1.0245  0.0317
   8923SM  H21F12024   5.599   4.280  12.497  0.5305 -0.2359  0.2596
   8923SM  H21G12025   5.445   4.199  12.478  0.7560 -0.6489 -2.5979
   8923SM  C22F12026   5.455   4.337  12.649 -0.3475  0.3608  0.0309
   8923SM  H22F12027   5.516   4.421  12.688 -2.4739  1.0747  2.0417
   8923SM  H22G12028   5.495   4.249  12.704  0.4728  0.7797  0.1109
   8923SM  C23F12029   5.303   4.380  12.669 -0.0386 -0.2054 -0.4897
   8923SM  H23F12030   5.273   4.468  12.608  0.0618  0.6463  0.6377
   8923SM  H23G12031   5.286   4.400  12.777 -0.5786 -2.2550 -0.1561
   8923SM  H23H12032   5.241   4.292  12.642 -0.8325 -0.0883  0.8583
   9023SM     N12033   4.186   5.027   9.541  0.0624 -0.2467  0.6682
   9023SM   C1512034   4.080   4.981   9.439 -0.2674  0.7701 -0.0467
   9023SM  H15A12035   3.985   4.952   9.482 -0.6405  2.9134  0.6602
   9023SM  H15B12036   4.122   4.897   9.385 -0.9354 -0.6032  1.4856
   9023SM  H15C12037   4.068   5.060   9.367  1.5814  1.0938 -0.0453
   9023SM   C1412038   4.299   5.095   9.469  0.0899 -0.6755  0.6122
   9023SM  H14A12039   4.332   5.026   9.392  1.5437  0.6600 -0.0264
   9023SM  H14B12040   4.389   5.114   9.525  0.2807 -1.8011  0.7197
   9023SM  H14C12041   4.269   5.191   9.431  3.5577  0.9897  1.6733
   9023SM   C1312042   4.128   5.132   9.633 -0.0193 -0.0950  0.0218
   9023SM  H13A12043   4.029   5.107   9.668 -0.0399 -0.9351 -0.6286
   9023SM  H13B12044   4.101   5.219   9.575 -0.9186 -1.0310 -0.9867
   9023SM  H13C12045   4.196   5.163   9.712 -1.2296  1.4787  0.4875
   9023SM   C1212046   4.250   4.907   9.611 -0.0367 -0.2842  0.1402
   9023SM  H12A12047   4.297   4.844   9.537  2.7782  2.3543 -0.5215
   9023SM  H12B12048   4.166   4.861   9.663  0.8332 -0.8750  1.0541
   9023SM   C1112049   4.356   4.926   9.715 -0.2285 -0.3174  0.2914
   9023SM  H11A12050   4.370   4.840   9.784  0.8884 -0.9490 -0.6641
   9023SM  H11B12051   4.316   5.007   9.779 -0.3620  0.6560 -0.9942
   9023SM     P12052   4.585   4.846   9.619 -0.2572  0.5768  0.0468
   9023SM   O1312053   4.516   4.735   9.547 -0.2355  0.6929 -0.8418
   9023SM   O1412054   4.677   4.915   9.526  0.0296  0.0986 -0.6733
   9023SM   O1112055   4.662   4.787   9.747 -0.3026  0.1578  0.4762
   9023SM   O1212056   4.479   4.950   9.654 -0.5423  0.1087  0.4484
   9023SM   C1S12057   4.696   4.855   9.864 -0.2555 -0.3244 -0.0779
   9023SM   H1S12058   4.669   4.963   9.855  0.8351 -0.1112 -1.1598
   9023SM   H1T12059   4.804   4.845   9.890 -0.0361 -0.9869 -1.1989
   9023SM    NF12060   4.653   4.872  10.107  0.0192  0.5322 -0.8085
   9023SM   HNF12061   4.702   4.815  10.173  0.1202  0.6898 -0.7458
   9023SM   C2S12062   4.616   4.801   9.985 -0.1867 -0.3149 -0.6587
   9023SM   H2S12063   4.510   4.826   9.966 -1.0956 -2.5391  1.0259
   9023SM   C3S12064   4.628   4.647   9.995 -0.4663  0.6180 -0.0870
   9023SM   H3S12065   4.735   4.619  10.007 -0.4903  0.0537 -1.0787
   9023SM    O312066   4.595   4.567   9.878  0.0580 -0.1816 -0.0002
   9023SM   HO312067   4.578   4.634   9.811  0.9563  0.3333  0.2674
   9023SM   C4S12068   4.553   4.596  10.113 -0.6194 -0.4346 -0.2982
   9023SM   H4S12069   4.448   4.627  10.124 -0.5407 -0.9130  2.9867
   9023SM   C5S12070   4.590   4.501  10.202  0.8690 -0.4907 -0.2677
   9023SM   H5S12071   4.687   4.450  10.198 -0.0433 -2.2524 -1.3270
   9023SM   C6S12072   4.508   4.438  10.313 -0.4640 -0.4167  0.4407
   9023SM   H6S12073   4.521   4.328  10.305  1.4414 -0.1273 -1.3127
   9023SM   H6T12074   4.401   4.456  10.291 -0.3000  1.9101  1.2931
   9023SM   C7S12075   4.544   4.489  10.448 -0.1418  0.1576  0.4314
   9023SM   H7S12076   4.557   4.599  10.450  1.4182  0.0193 -0.2365
   9023SM   H7T12077   4.649   4.453  10.459 -0.9118 -2.8668 -1.1131
   9023SM   C8S12078   4.457   4.450  10.562  0.6988  0.1460 -0.0932
   9023SM   H8S12079   4.419   4.346  10.561 -0.1927  0.4440 -2.0175
   9023SM   H8T12080   4.370   4.519  10.563  0.0086 -0.7082 -0.1769
   9023SM   C9S12081   4.525   4.477  10.703 -0.5278 -0.4517 -0.4120
   9023SM   H9S12082   4.573   4.576  10.686  1.6204 -1.7714 -2.7333
   9023SM   H9T12083   4.600   4.403  10.736  0.7257  0.9862  0.0884
   9023SM  C10S12084   4.428   4.489  10.820  0.0242 -0.7559 -0.6862
   9023SM  H10S12085   4.377   4.393  10.845 -2.9329  0.8332 -0.1124
   9023SM  H10T12086   4.356   4.570  10.796 -3.2406 -3.2462 -0.0500
   9023SM  C11S12087   4.491   4.541  10.942 -0.5471  0.3917 -0.1974
   9023SM  H11S12088   4.529   4.644  10.928  0.6876  0.4984  2.9931
   9023SM  H11T12089   4.575   4.475  10.972  0.4037  0.7471 -1.9546
   9023SM  C12S12090   4.385   4.558  11.053 -0.1058  0.0783 -0.2919
   9023SM  H12S12091   4.341   4.459  11.079  0.5205  0.0716  0.7790
   9023SM  H12T12092   4.296   4.616  11.020 -0.9150 -0.1700  1.3757
   9023SM  C13S12093   4.449   4.618  11.178  0.5843  0.2786  0.3148
   9023SM  H13S12094   4.472   4.727  11.168  0.2654  0.3402  0.2179
   9023SM  H13T12095   4.538   4.557  11.201 -1.1515 -2.3043  0.5858
   9023SM  C14S12096   4.364   4.597  11.303 -0.1854  0.1156  0.3956
   9023SM  H14S12097   4.330   4.493  11.325 -1.1110  0.7656  2.2833
   9023SM  H14T12098   4.272   4.655  11.282  0.9717  1.7733 -0.3047
   9023SM  C15S12099   4.430   4.635  11.436 -0.1195  0.1325 -0.0242
   9023SM  H15S12100   4.452   4.744  11.438  3.3075 -0.4470 -0.4607
   9023SM  H15T12101   4.526   4.581  11.451 -0.0409  0.4724  0.7442
   9023SM  C16S12102   4.336   4.601  11.556 -0.7603 -0.3164 -0.5043
   9023SM  H16S12103   4.299   4.497  11.571 -0.1842 -0.7255 -1.8224
   9023SM  H16T12104   4.239   4.655  11.549 -0.6235  0.1827  1.1420
   9023SM  C17S12105   4.403   4.628  11.698  0.5275  0.0838  0.0473
   9023SM  H17S12106   4.462   4.722  11.704 -0.2222  0.5701 -0.1782
   9023SM  H17T12107   4.480   4.550  11.717 -0.3459 -1.0632 -1.0003
   9023SM  C18S12108   4.291   4.630  11.802 -0.8234 -0.7221 -0.5312
   9023SM  H18S12109   4.332   4.660  11.900 -0.0665  2.0678 -1.5938
   9023SM  H18T12110   4.232   4.536  11.804 -0.8412 -0.6988  0.9756
   9023SM  H18U12111   4.226   4.715  11.770  0.0643  0.4992  0.8168
   9023SM   C1F12112   4.619   4.996  10.138  0.0430  0.1767  0.9256
   9023SM    OF12113   4.568   5.073  10.057  0.4254 -1.0101  0.1714
   9023SM   C2F12114   4.654   5.050  10.276  0.3595  0.1158  0.0707
   9023SM   H2F12115   4.726   5.133  10.263  0.6268 -0.2770 -1.0773
   9023SM   H2G12116   4.690   4.965  10.338 -0.7705 -1.0487 -0.8247
   9023SM   C3F12117   4.540   5.103  10.356  0.4854  0.2834  0.5963
   9023SM   H3F12118   4.495   5.016  10.409 -1.0749  0.5722 -0.1774
   9023SM   H3G12119   4.462   5.148  10.290  0.8266  0.2087  0.1343
   9023SM   C4F12120   4.572   5.190  10.478 -0.4532  0.0866  0.1960
   9023SM   H4F12121   4.482   5.246  10.511  0.6183  2.1420 -0.2515
   9023SM   H4G12122   4.638   5.277  10.460 -0.1264 -0.5018 -1.7487
   9023SM   C5F12123   4.605   5.115  10.612  0.7670 -0.2264 -0.5485
   9023SM   H5F12124   4.711   5.084  10.602  0.0494 -2.5678 -1.5676
   9023SM   H5G12125   4.553   5.016  10.608  0.3824  0.0127 -3.0478
   9023SM   C6F12126   4.584   5.204  10.744 -0.1633  0.6163  0.8345
   9023SM   H6F12127   4.478   5.237  10.748 -1.4130 -2.7758 -0.4733
   9023SM   H6G12128   4.643   5.296  10.723 -1.0804  0.4978 -2.9348
   9023SM   C7F12129   4.609   5.129  10.868  0.3906 -0.8764 -0.1125
   9023SM   H7F12130   4.717   5.118  10.889  0.3074 -1.6175 -0.0425
   9023SM   H7G12131   4.558   5.030  10.873  0.1675 -0.7604 -0.0401
   9023SM   C8F12132   4.556   5.216  10.982  0.3761  0.0799 -0.1795
   9023SM   H8F12133   4.449   5.237  10.964  0.2707 -0.2877  0.0028
   9023SM   H8G12134   4.619   5.307  10.986  0.6161 -0.0670 -0.4890
   9023SM   C9F12135   4.576   5.146  11.115 -0.4310  0.2728 -0.7914
   9023SM   H9F12136   4.677   5.101  11.125  0.3805  2.3641  1.3641
   9023SM   H9G12137   4.497   5.069  11.130 -1.0790  0.8435 -1.2420
   9023SM  C10F12138   4.554   5.241  11.232  0.2653 -0.0169 -0.2862
   9023SM  H10F12139   4.448   5.275  11.227  1.0327  3.1047  1.7164
   9023SM  H10G12140   4.617   5.329  11.204 -2.1681  1.6935 -0.7698
   9023SM  C11F12141   4.572   5.177  11.367 -0.1336 -1.1404 -0.4566
   9023SM  H11F12142   4.675   5.135  11.376  0.9265  0.8350 -2.4547
   9023SM  H11G12143   4.516   5.081  11.369 -1.7798 -0.2325 -1.3591
   9023SM  C12F12144   4.524   5.262  11.480  0.3434  0.0460 -0.0201
   9023SM  H12F12145   4.419   5.297  11.468  1.2538  2.4591 -1.7042
   9023SM  H12G12146   4.583   5.355  11.492 -0.7933  0.8589 -0.5149
   9023SM  C13F12147   4.528   5.175  11.613 -0.2266  0.0928  0.4140
   9023SM  H13F12148   4.630   5.133  11.611 -0.5559 -0.7234 -0.5533
   9023SM  H13G12149   4.465   5.083  11.604  2.2305 -1.6917  0.5885
   9023SM  C14F12150   4.481   5.256  11.730  0.3306  0.2953  0.3023
   9023SM  H14F12151   4.370   5.250  11.719  0.5767 -0.5423 -2.8322
   9023SM  H14G12152   4.508   5.364  11.720  0.3996  0.3886  1.3625
   9023SM  C15F12153   4.537   5.216  11.867  0.1822 -0.2142  0.1727
   9023SM  H15F12154   4.525   5.302  11.936 -0.1963  0.4694 -0.7223
   9023SM  H15G12155   4.646   5.194  11.872  0.4900  1.1019 -0.3162
   9023SM  C16F12156   4.444   5.105  11.930 -0.2470 -0.2690  0.6181
   9023SM  H16F12157   4.430   5.024  11.855  1.7264  0.4288 -0.6033
   9023SM  H16G12158   4.346   5.146  11.963 -0.5533  0.3501 -0.9451
   9023SM  C17F12159   4.506   5.036  12.050 -0.0483  0.0849 -0.2735
   9023SM  H17F12160   4.514   5.103  12.138 -0.6595  0.7670 -0.7309
   9023SM  H17G12161   4.613   5.012  12.028 -0.5983 -2.2193 -0.6975
   9023SM  C18F12162   4.440   4.901  12.074  0.0189  0.2040 -0.1381
   9023SM  H18F12163   4.440   4.843  11.979  2.8218  1.6527 -1.1325
   9023SM  H18G12164   4.333   4.916  12.100  0.1220 -0.9720  1.0594
   9023SM  C19F12165   4.508   4.820  12.182 -0.9115 -0.8887  0.0718
   9023SM  H19F12166   4.518   4.883  12.273  0.8759  0.1871 -0.8133
   9023SM  H19G12167   4.612   4.792  12.158 -0.8366  0.5610 -1.4670
   9023SM  C20F12168   4.421   4.705  12.236  0.0728  0.5439 -0.3797
   9023SM  H20F12169   4.393   4.638  12.152 -1.2705 -0.2420  0.6589
   9023SM  H20G12170   4.326   4.744  12.278 -0.4034 -0.0532 -0.8843
   9023SM  C21F12171   4.488   4.623  12.348  0.6549 -0.0910 -0.0475
   9023SM  H21F12172   4.497   4.699  12.429 -0.1871 -0.0493  0.0149
   9023SM  H21G12173   4.587   4.587  12.313  0.5262 -0.7817  0.2800
   9023SM  C22F12174   4.401   4.504  12.392 -0.5722 -0.0121 -0.3194
   9023SM  H22F12175   4.365   4.463  12.295 -0.4116  1.3707 -0.9701
   9023SM  H22G12176   4.310   4.544  12.442 -1.0647 -0.7134 -0.6265
   9023SM  C23F12177   4.470   4.394  12.478  0.5135  0.2408 -0.0042
   9023SM  H23F12178   4.463   4.423  12.585  0.1441 -1.5521  0.4925
   9023SM  H23G12179   4.575   4.380  12.444  0.6566  2.3710 -0.6078
   9023SM  H23H12180   4.414   4.299  12.478  0.0680  0.4579 -2.3519
   9123SM     N12181   5.768   0.558   9.103  0.4358  0.1861  0.1745
   9123SM   C1512182   5.873   0.622   9.186 -0.2265 -0.0949  0.2077
   9123SM  H15A12183   5.946   0.554   9.227 -0.4688  0.3163  1.3522
   9123SM  H15B12184   5.834   0.677   9.270  1.5642  3.5998 -1.1325
   9123SM  H15C12185   5.905   0.708   9.128 -0.3880  0.6572  1.2120
   9123SM   C1412186   5.680   0.663   9.042 -0.4222 -0.1633 -0.4763
   9123SM  H14A12187   5.602   0.621   8.979 -1.3259  2.0880 -0.9723
   9123SM  H14B12188   5.738   0.734   8.984 -4.3742  1.2719 -3.1412
   9123SM  H14C12189   5.631   0.719   9.120 -1.1528 -0.8430 -0.4317
   9123SM   C1312190   5.839   0.471   8.998 -0.1128 -1.2149 -0.2932
   9123SM  H13A12191   5.894   0.397   9.055 -0.7702 -0.8662  0.8225
   9123SM  H13B12192   5.912   0.528   8.943 -1.1522  0.0203 -0.4258
   9123SM  H13C12193   5.779   0.414   8.928  1.2975  0.2263 -2.8182
   9123SM   C1212194   5.677   0.468   9.184  0.1637  0.4598 -0.1225
   9123SM  H12A12195   5.615   0.520   9.255 -1.4321  0.0382 -1.1420
   9123SM  H12B12196   5.745   0.408   9.243  0.3267  0.9132  0.1491
   9123SM   C1112197   5.592   0.358   9.118  0.6175  0.3744 -0.3334
   9123SM  H11A12198   5.538   0.295   9.193 -0.8183  0.2131 -1.4528
   9123SM  H11B12199   5.651   0.280   9.067  1.0959  1.8778 -2.1554
   9123SM     P12200   5.364   0.475   9.067 -0.1036  0.1582  0.3521
   9123SM   O1312201   5.350   0.610   9.010 -0.0533  0.3804 -0.0975
   9123SM   O1412202   5.256   0.377   9.021 -0.1033  0.0750  0.1272
   9123SM   O1112203   5.372   0.473   9.226 -0.6071 -0.3429  0.0837
   9123SM   O1212204   5.503   0.409   9.023 -0.5163  0.3940 -0.3170
   9123SM   C1S12205   5.256   0.474   9.311 -0.2879  0.7738  0.3840
   9123SM   H1S12206   5.176   0.410   9.268  0.8096  0.0152 -0.5916
   9123SM   H1T12207   5.218   0.578   9.313  1.4428  1.4614  2.9361
   9123SM    NF12208   5.160   0.418   9.524  0.1771 -0.2114  0.5222
   9123SM   HNF12209   5.116   0.501   9.559  0.8907  0.1123  0.6638
   9123SM   C2S12210   5.285   0.443   9.451 -0.3556 -0.2443 -0.6201
   9123SM   H2S12211   5.338   0.345   9.454 -0.6807 -0.3993  0.8030
   9123SM   C3S12212   5.374   0.553   9.518 -0.0939 -0.6175 -0.0189
   9123SM   H3S12213   5.320   0.651   9.518  1.1509  0.1046  1.6269
   9123SM    O312214   5.496   0.584   9.451  0.0651  0.4664 -0.0551
   9123SM   HO312215   5.481   0.545   9.365 -0.8457 -2.6558  1.3575
   9123SM   C4S12216   5.402   0.529   9.665 -0.7487 -0.4492 -0.3103
   9123SM   H4S12217   5.446   0.431   9.689 -2.1572 -0.5486  2.3153
   9123SM   C5S12218   5.394   0.621   9.757  0.1678 -0.0389 -0.0321
   9123SM   H5S12219   5.359   0.724   9.744  0.0475 -0.1261 -0.4058
   9123SM   C6S12220   5.422   0.591   9.906  0.5375 -0.6226 -1.0131
   9123SM   H6S12221   5.332   0.624   9.962  1.1230 -1.5748  0.5447
   9123SM   H6T12222   5.514   0.644   9.939  0.3884 -0.5771 -0.6681
   9123SM   C7S12223   5.422   0.445   9.936 -0.4735  0.4297 -0.6477
   9123SM   H7S12224   5.506   0.396   9.883  2.2908  3.7011  0.4199
   9123SM   H7T12225   5.320   0.409   9.910 -0.1350 -0.3674 -0.9092
   9123SM   C8S12226   5.425   0.418  10.087 -0.0778  0.5591  0.5498
   9123SM   H8S12227   5.393   0.312  10.094  0.0918  0.5275  0.8607
   9123SM   H8T12228   5.349   0.473  10.146  0.3942  1.5999  0.2257
   9123SM   C9S12229   5.568   0.432  10.150  0.3891  0.4016  0.3580
   9123SM   H9S12230   5.592   0.537  10.120 -3.3460  1.0208 -1.0275
   9123SM   H9T12231   5.635   0.357  10.103  1.1520  0.2425  1.6523
   9123SM  C10S12232   5.564   0.423  10.302  0.7849  0.2497 -0.5502
   9123SM  H10S12233   5.559   0.316  10.329  1.9450  0.8605  2.4700
   9123SM  H10T12234   5.463   0.455  10.335  0.8654 -1.2154  1.2978
   9123SM  C11S12235   5.677   0.508  10.372 -0.4436 -0.1872  0.4732
   9123SM  H11S12236   5.640   0.613  10.371  0.6127  0.1988 -0.9567
   9123SM  H11T12237   5.773   0.500  10.317 -0.4328 -0.8199  0.5756
   9123SM  C12S12238   5.716   0.464  10.511 -0.4387  0.1099  0.0619
   9123SM  H12S12239   5.786   0.535  10.560  1.0176 -1.7925  0.8585
   9123SM  H12T12240   5.770   0.368  10.498 -1.0966 -0.2107 -0.3789
   9123SM  C13S12241   5.590   0.451  10.597  0.6579  0.3889 -0.0194
   9123SM  H13S12242   5.514   0.382  10.554 -1.7398  2.2806  0.9380
   9123SM  H13T12243   5.536   0.548  10.587 -0.0142 -0.2078 -4.3270
   9123SM  C14S12244   5.623   0.433  10.745 -0.1153  0.0908  0.1355
   9123SM  H14S12245   5.679   0.526  10.769  0.5587 -0.8465  2.4390
   9123SM  H14T12246   5.694   0.350  10.762 -2.1787 -2.6837 -3.3043
   9123SM  C15S12247   5.507   0.427  10.840  0.2250 -0.2512 -0.9313
   9123SM  H15S12248   5.477   0.324  10.868 -3.3974  1.0598  0.7043
   9123SM  H15T12249   5.410   0.468  10.803  0.7106 -0.6406 -2.7076
   9123SM  C16S12250   5.523   0.524  10.963  0.3538  0.1359 -0.0463
   9123SM  H16S12251   5.552   0.621  10.918  1.4084 -0.1935 -0.1060
   9123SM  H16T12252   5.616   0.498  11.019 -0.3136  0.3916  1.2117
   9123SM  C17S12253   5.410   0.536  11.060 -0.0192 -0.5213  0.0227
   9123SM  H17S12254   5.314   0.525  11.005 -0.5509 -0.1792  0.8672
   9123SM  H17T12255   5.404   0.643  11.091 -3.4164 -1.2020  2.1523
   9123SM  C18S12256   5.425   0.444  11.177 -0.1100  0.6863 -0.3902
   9123SM  H18S12257   5.517   0.462  11.237 -0.4880  0.8403  0.1418
   9123SM  H18T12258   5.433   0.339  11.140 -0.4075  0.1505  0.9986
   9123SM  H18U12259   5.346   0.450  11.254 -1.5597  0.6870 -1.8344
   9123SM   C1F12260   5.091   0.298   9.515 -0.0109 -0.0135  0.3059
   9123SM    OF12261   5.147   0.197   9.465  0.3038 -0.2576  0.7453
   9123SM   C2F12262   4.961   0.295   9.582  0.2314  0.1201  0.4171
   9123SM   H2F12263   4.880   0.281   9.507  2.0934 -1.6741 -1.3623
   9123SM   H2G12264   4.951   0.390   9.639  0.0244  0.9014 -0.8754
   9123SM   C3F12265   4.944   0.174   9.678 -0.2498  0.6289 -0.2516
   9123SM   H3F12266   4.935   0.085   9.612  1.2949  0.3520 -0.1313
   9123SM   H3G12267   4.844   0.182   9.727  0.5240  0.2534  1.4797
   9123SM   C4F12268   5.048   0.154   9.784  0.5156  0.6051  0.4278
   9123SM   H4F12269   5.150   0.145   9.742 -0.7220 -3.1424 -2.2854
   9123SM   H4G12270   5.036   0.048   9.815  0.5985  0.3899 -0.2776
   9123SM   C5F12271   5.036   0.238   9.905  0.7383 -0.2063  0.8860
   9123SM   H5F12272   4.931   0.258   9.936  0.3842  0.4958 -0.6731
   9123SM   H5G12273   5.060   0.343   9.878 -0.9308  0.4094  1.6117
   9123SM   C6F12274   5.113   0.186  10.033  0.5276 -0.1262  0.6436
   9123SM   H6F12275   5.221   0.204  10.016  0.4866  0.2012  0.7209
   9123SM   H6G12276   5.083   0.082  10.055 -0.8253 -0.1248 -0.9171
   9123SM   C7F12277   5.068   0.265  10.153  0.4204  0.4184 -0.0900
   9123SM   H7F12278   4.958   0.256  10.172  0.2082 -2.6625 -2.0260
   9123SM   H7G12279   5.088   0.373  10.137  1.3946  0.4255  1.0473
   9123SM   C8F12280   5.132   0.216  10.279 -0.4269 -0.3090 -0.7047
   9123SM   H8F12281   5.242   0.222  10.274 -0.3485  0.1218  1.0573
   9123SM   H8G12282   5.117   0.106  10.272  2.9609 -0.8294 -1.2309
   9123SM   C9F12283   5.084   0.277  10.417 -0.1688  0.5742  0.1352
   9123SM   H9F12284   4.973   0.268  10.411 -0.2353  1.4094  0.0909
   9123SM   H9G12285   5.106   0.385  10.425  0.4351  0.4755 -0.1438
   9123SM  C10F12286   5.142   0.194  10.536 -0.4751  0.5285 -0.4730
   9123SM  H10F12287   5.252   0.182  10.535 -0.6057 -1.2877 -3.0329
   9123SM  H10G12288   5.092   0.095  10.529  0.1978  0.1300  0.2089
   9123SM  C11F12289   5.125   0.257  10.679 -0.3431 -0.2021  0.1396
   9123SM  H11F12290   5.014   0.259  10.685 -0.4940  0.6160 -1.8225
   9123SM  H11G12291   5.157   0.363  10.689  0.1569 -0.4564  1.3941
   9123SM  C12F12292   5.192   0.187  10.787  0.3403  0.3862  0.0604
   9123SM  H12F12293   5.187   0.250  10.879 -0.4122 -1.5075  1.3879
   9123SM  H12G12294   5.294   0.170  10.749  0.2993 -0.1453  0.1788
   9123SM  C13F12295   5.137   0.057  10.836 -0.5642  0.6286 -0.3585
   9123SM  H13F12296   5.147  -0.020  10.757  3.8852  0.9731 -0.3845
   9123SM  H13G12297   5.031   0.080  10.858 -0.5299 -1.4412  2.5673
   9123SM  C14F12298   5.190  -0.010  10.964 -0.6814  0.5642  0.5670
   9123SM  H14F12299   5.293  -0.047  10.943 -0.8833  0.1286  0.3530
   9123SM  H14G12300   5.125  -0.097  10.983  1.0742 -1.0183 -0.3121
   9123SM  C15F12301   5.203   0.077  11.090 -0.3154 -0.3379 -0.2671
   9123SM  H15F12302   5.112   0.139  11.105  0.1168 -0.4411  4.2523
   9123SM  H15G12303   5.293   0.140  11.071 -0.3702 -0.1694  0.0252
   9123SM  C16F12304   5.229   0.009  11.228 -0.2440  0.1541 -1.0275
   9123SM  H16F12305   5.333  -0.026  11.242  0.4843  2.5345 -0.0601
   9123SM  H16G12306   5.156  -0.073  11.248 -0.5497  1.0404  1.8797
   9123SM  C17F12307   5.230   0.107  11.348 -0.5964  0.7455  0.0537
   9123SM  H17F12308   5.151   0.184  11.333 -0.3423  1.3695  1.7334
   9123SM  H17G12309   5.322   0.166  11.363 -0.2278  0.0551  0.5261
   9123SM  C18F12310   5.200   0.033  11.486  0.3768  0.1742 -0.0501
   9123SM  H18F12311   5.268  -0.053  11.500 -2.9897 -2.5481  1.0898
   9123SM  H18G12312   5.101  -0.016  11.477  0.2043  0.4442  0.3321
   9123SM  C19F12313   5.199   0.136  11.594  0.0782 -0.3325 -0.1616
   9123SM  H19F12314   5.119   0.211  11.578  0.3010 -0.2339 -0.8338
   9123SM  H19G12315   5.296   0.190  11.592 -1.5346  2.7635 -0.5348
   9123SM  C20F12316   5.172   0.084  11.739  0.8455  0.9902  0.3128
   9123SM  H20F12317   5.262   0.033  11.779  0.4034  0.5563  0.7604
   9123SM  H20G12318   5.089   0.011  11.729  0.6958  1.2357 -0.3309
   9123SM  C21F12319   5.132   0.191  11.837 -0.4077 -0.4955 -0.6452
   9123SM  H21F12320   5.102   0.145  11.933  0.8372  1.5947  0.8265
   9123SM  H21G12321   5.041   0.231  11.788 -0.3709 -1.2930 -1.4082
   9123SM  C22F12322   5.240   0.298  11.857 -0.0412  0.8655 -0.2682
   9123SM  H22F12323   5.189   0.391  11.891 -0.5398  0.2891  0.5806
   9123SM  H22G12324   5.283   0.318  11.756  1.5680  0.7102  0.3644
   9123SM  C23F12325   5.347   0.266  11.961 -0.4425  0.4967 -0.2042
   9123SM  H23F12326   5.296   0.259  12.059 -0.8749  1.8576 -0.3108
   9123SM  H23G12327   5.419   0.351  11.960 -1.1283  1.0849 -0.8337
   9123SM  H23H12328   5.387   0.163  11.948 -1.1415  0.4448 -2.4200
   9223SM     N12329   4.340   4.366   9.732 -0.2224  0.2794  0.9016
   9223SM   C1512330   4.481   4.307   9.710  0.4022  0.2833 -0.3090
   9223SM  H15A12331   4.486   4.225   9.780 -3.3974  0.1753  0.0339
   9223SM  H15B12332   4.563   4.375   9.729 -1.0624  1.6129  1.7748
   9223SM  H15C12333   4.477   4.266   9.611 -1.4802 -2.2635  0.7097
   9223SM   C1412334   4.324   4.468   9.625 -0.2570  0.3248  0.1859
   9223SM  H14A12335   4.411   4.531   9.612  1.3398 -1.7453  0.1764
   9223SM  H14B12336   4.236   4.529   9.633  0.0487  0.7742  0.1534
   9223SM  H14C12337   4.321   4.418   9.530  2.7846  2.0232 -0.9387
   9223SM   C1312338   4.233   4.264   9.705  0.4286  0.0768 -0.0195
   9223SM  H13A12339   4.245   4.201   9.619 -3.6294 -0.9216 -0.0526
   9223SM  H13B12340   4.134   4.307   9.696 -0.3611 -1.0500  2.3739
   9223SM  H13C12341   4.234   4.192   9.786  1.1018 -0.4903 -0.5186
   9223SM   C1212342   4.324   4.414   9.873  0.4122 -0.7708 -0.6018
   9223SM  H12A12343   4.230   4.465   9.886  0.6073 -0.8150  1.2928
   9223SM  H12B12344   4.388   4.499   9.894 -0.0833  0.3477 -3.2249
   9223SM   C1112345   4.338   4.299   9.984 -0.1378 -0.5941 -0.1153
   9223SM  H11A12346   4.339   4.353  10.081 -0.8122  0.3729 -0.6322
   9223SM  H11B12347   4.433   4.241   9.979 -0.2634 -1.0357  1.6469
   9223SM     P12348   4.125   4.210  10.103 -0.0342 -0.1643 -0.2042
   9223SM   O1312349   4.054   4.338  10.111 -0.3373  0.0656  0.4041
   9223SM   O1412350   4.040   4.090  10.085 -0.1888  0.5361  0.1192
   9223SM   O1112351   4.207   4.176  10.228  0.8144  0.3158 -0.3196
   9223SM   O1212352   4.230   4.206   9.981 -0.4824 -0.4110 -0.3521
   9223SM   C1S12353   4.197   4.237  10.358 -0.9533  0.0709  0.4960
   9223SM   H1S12354   4.195   4.347  10.349  1.0353  0.0382 -1.3239
   9223SM   H1T12355   4.284   4.204  10.420 -0.2156 -0.5569 -0.8308
   9223SM    NF12356   4.069   4.268  10.582 -0.2619  0.1411  0.1940
   9223SM   HNF12357   4.073   4.229  10.673  0.0761  0.3490  0.2725
   9223SM   C2S12358   4.077   4.190  10.453 -0.0164 -0.5318 -0.3332
   9223SM   H2S12359   3.979   4.210  10.405 -0.2335 -1.2504 -0.1990
   9223SM   C3S12360   4.075   4.035  10.468 -0.0705 -0.5945  1.1747
   9223SM   H3S12361   4.169   4.012  10.523  1.2448 -1.7450 -1.3531
   9223SM    O312362   4.083   3.957  10.351 -0.3977  0.2843  0.0670
   9223SM   HO312363   4.107   4.020  10.282  0.6020 -1.2970 -1.0969
   9223SM   C4S12364   3.950   3.992  10.557 -0.0281  0.1904 -0.8825
   9223SM   H4S12365   3.968   3.998  10.666 -0.9882 -0.5544 -0.6770
   9223SM   C5S12366   3.826   3.957  10.521  0.1238  0.6910 -0.5878
   9223SM   H5S12367   3.814   3.940  10.413 -0.9551 -0.5287 -0.3010
   9223SM   C6S12368   3.703   3.928  10.613 -0.4938  0.2950 -0.1888
   9223SM   H6S12369   3.673   3.826  10.583  1.0317  0.0368 -0.9028
   9223SM   H6T12370   3.616   3.996  10.595 -2.2349 -1.6313  0.5362
   9223SM   C7S12371   3.727   3.944  10.765  0.1645  0.4342 -0.4548
   9223SM   H7S12372   3.770   4.043  10.791  0.5337 -0.3951  2.4540
   9223SM   H7T12373   3.805   3.869  10.793 -1.0379 -1.7537 -2.5633
   9223SM   C8S12374   3.609   3.913  10.847  0.3504 -0.1078  0.2486
   9223SM   H8S12375   3.572   3.817  10.805  1.9903 -0.7422  0.1683
   9223SM   H8T12376   3.536   3.993  10.823  1.7042  1.2956  0.6286
   9223SM   C9S12377   3.639   3.914  11.002  0.5094 -0.5118 -0.5512
   9223SM   H9S12378   3.676   4.017  11.017 -0.2056 -0.0632 -1.7262
   9223SM   H9T12379   3.711   3.837  11.038 -1.5082 -1.3662  1.9467
   9223SM  C10S12380   3.514   3.895  11.088  0.5843  0.5456 -0.1593
   9223SM  H10S12381   3.459   3.803  11.062  0.6091  0.7193 -0.8324
   9223SM  H10T12382   3.437   3.974  11.076 -2.9422 -2.8169 -1.6736
   9223SM  C11S12383   3.546   3.891  11.237  0.4468 -0.4239  0.1959
   9223SM  H11S12384   3.577   3.990  11.278 -2.6249  0.7061  0.0739
   9223SM  H11T12385   3.637   3.832  11.261  0.9566  0.0296 -0.5741
   9223SM  C12S12386   3.416   3.848  11.315  0.1636  0.3016 -0.2275
   9223SM  H12S12387   3.394   3.744  11.282 -1.3732  0.6137 -0.2377
   9223SM  H12T12388   3.325   3.908  11.294  0.3964  0.1168 -1.9064
   9223SM  C13S12389   3.444   3.853  11.465  0.4053  0.0421  0.2084
   9223SM  H13S12390   3.447   3.962  11.489 -3.9567 -0.1600  2.5748
   9223SM  H13T12391   3.544   3.815  11.496  0.3720  0.0096  0.2778
   9223SM  C14S12392   3.339   3.790  11.560 -0.0449  0.3746 -0.2357
   9223SM  H14S12393   3.324   3.683  11.534  2.2297  0.0396 -0.3729
   9223SM  H14T12394   3.240   3.840  11.561 -0.8704 -1.2172  0.1945
   9223SM  C15S12395   3.385   3.780  11.709  0.0817  0.0193  0.8199
   9223SM  H15S12396   3.299   3.772  11.778 -2.4464 -0.6667 -2.1828
   9223SM  H15T12397   3.431   3.881  11.719 -1.1076  0.6877 -0.1143
   9223SM  C16S12398   3.471   3.658  11.733 -0.2420  0.1176 -0.0503
   9223SM  H16S12399   3.573   3.663  11.690 -0.1026 -0.5148  0.1873
   9223SM  H16T12400   3.412   3.572  11.695 -1.0729  1.4271 -1.8866
   9223SM  C17S12401   3.490   3.629  11.890 -0.1008 -0.9935  0.3072
   9223SM  H17S12402   3.575   3.557  11.897  1.9300  1.3613  1.8972
   9223SM  H17T12403   3.399   3.583  11.934 -0.8267 -1.2673 -1.3934
   9223SM  C18S12404   3.528   3.749  11.972 -0.0538  0.5200  0.2893
   9223SM  H18S12405   3.553   3.718  12.076 -1.3506 -1.0334  0.1650
   9223SM  H18T12406   3.449   3.827  11.972 -0.8714 -0.2333 -2.0466
   9223SM  H18U12407   3.615   3.806  11.931  0.9672  0.4881  2.2713
   9223SM   C1F12408   4.059   4.399  10.593  0.7208 -0.7438  0.3482
   9223SM    OF12409   4.073   4.469  10.492 -0.4395 -0.1922 -0.1099
   9223SM   C2F12410   4.027   4.463  10.726  0.0801  0.4969 -0.5373
   9223SM   H2F12411   4.121   4.485  10.782  0.2529 -2.3607  0.4739
   9223SM   H2G12412   3.959   4.388  10.772 -0.0248  0.6155 -0.5006
   9223SM   C3F12413   3.937   4.583  10.701 -1.0593 -0.1077 -0.2389
   9223SM   H3F12414   3.835   4.549  10.673 -2.1335  1.7182  1.1952
   9223SM   H3G12415   3.966   4.651  10.618 -0.6246  1.3621  1.0723
   9223SM   C4F12416   3.912   4.668  10.829  0.3109  0.0118 -0.0209
   9223SM   H4F12417   3.822   4.731  10.814 -0.7708 -1.3562  0.4824
   9223SM   H4G12418   3.994   4.739  10.851  1.0026 -1.0346  0.9100
   9223SM   C5F12419   3.893   4.593  10.963  0.2177  0.2122  0.2652
   9223SM   H5F12420   3.983   4.529  10.971  0.4481  0.5147  0.1279
   9223SM   H5G12421   3.803   4.529  10.958  0.9440 -0.7776 -0.6238
   9223SM   C6F12422   3.897   4.697  11.081 -0.2486  0.5159 -0.4184
   9223SM   H6F12423   3.812   4.766  11.062 -2.3397 -1.0262  2.4758
   9223SM   H6G12424   3.995   4.744  11.100  0.2222 -0.9255  0.9291
   9223SM   C7F12425   3.871   4.613  11.210  0.2667 -0.1843 -0.6190
   9223SM   H7F12426   3.944   4.529  11.216 -1.2375 -1.4569  1.3721
   9223SM   H7G12427   3.776   4.556  11.200  0.0707 -0.2304  1.1387
   9223SM   C8F12428   3.883   4.687  11.347  0.6724  0.0607 -0.5304
   9223SM   H8F12429   3.792   4.750  11.360 -0.4764 -0.8878 -3.3040
   9223SM   H8G12430   3.973   4.751  11.347  1.8164 -1.4906 -0.4779
   9223SM   C9F12431   3.883   4.599  11.471 -0.6297  0.1531 -0.1441
   9223SM   H9F12432   3.908   4.654  11.564  0.7953 -0.1926 -0.3012
   9223SM   H9G12433   3.965   4.528  11.447 -0.1892  0.2622  0.9590
   9223SM  C10F12434   3.761   4.505  11.491  0.3864 -0.0245  0.9409
   9223SM  H10F12435   3.755   4.443  11.399 -0.0291 -0.2061  1.0887
   9223SM  H10G12436   3.670   4.568  11.499  0.5313  0.3861 -0.3671
   9223SM  C11F12437   3.764   4.425  11.621  0.6695  0.7715 -0.4493
   9223SM  H11F12438   3.869   4.394  11.636 -0.3500 -2.9831  0.1412
   9223SM  H11G12439   3.698   4.335  11.616  1.5230  0.1811 -1.9053
   9223SM  C12F12440   3.715   4.508  11.747 -0.0328 -0.4390  0.3393
   9223SM  H12F12441   3.622   4.562  11.720  1.0751  0.9796 -0.8180
   9223SM  H12G12442   3.795   4.580  11.776 -0.3772 -0.1128  0.4770
   9223SM  C13F12443   3.709   4.408  11.871 -0.2404 -1.0303  0.4426
   9223SM  H13F12444   3.798   4.341  11.873  0.6942  0.0367 -1.8883
   9223SM  H13G12445   3.624   4.340  11.847 -0.8542  0.4607 -1.9796
   9223SM  C14F12446   3.667   4.488  11.998 -0.1230 -0.4356  0.1978
   9223SM  H14F12447   3.562   4.524  11.983 -0.3218 -1.0547  0.0699
   9223SM  H14G12448   3.736   4.574  12.009 -0.0876 -0.3759 -0.4433
   9223SM  C15F12449   3.655   4.416  12.135  0.4655  0.5003 -0.4131
   9223SM  H15F12450   3.694   4.481  12.217  0.3158  0.2867 -0.1705
   9223SM  H15G12451   3.705   4.317  12.128 -0.5785 -0.0701  0.1248
   9223SM  C16F12452   3.512   4.387  12.180  0.1133  0.2875 -0.8308
   9223SM  H16F12453   3.462   4.320  12.106  2.2366 -0.7190 -1.4520
   9223SM  H16G12454   3.445   4.475  12.176 -0.1522  0.0614 -1.6720
   9223SM  C17F12455   3.504   4.326  12.327  0.2642 -0.2169 -0.7668
   9223SM  H17F12456   3.556   4.399  12.393  1.0875  0.2237 -1.8695
   9223SM  H17G12457   3.558   4.229  12.327  0.5117 -0.0871 -0.0585
   9223SM  C18F12458   3.357   4.299  12.380 -0.1288 -0.1215  0.0130
   9223SM  H18F12459   3.294   4.371  12.325 -2.9858 -1.5787  1.1555
   9223SM  H18G12460   3.354   4.313  12.490  3.1219 -1.3336  0.3746
   9223SM  C19F12461   3.294   4.163  12.350 -0.4389 -0.6003 -0.6490
   9223SM  H19F12462   3.353   4.086  12.404 -0.6806 -0.2580  0.1225
   9223SM  H19G12463   3.298   4.160  12.239 -0.5285 -2.3031 -0.6302
   9223SM  C20F12464   3.150   4.145  12.396 -0.4456 -0.2018 -0.0732
   9223SM  H20F12465   3.082   4.205  12.332 -0.2056  0.9115  0.6805
   9223SM  H20G12466   3.147   4.191  12.497 -1.1072  0.4174 -0.3700
   9223SM  C21F12467   3.109   4.000  12.405  0.6203  0.3727  0.4664
   9223SM  H21F12468   3.153   3.951  12.494 -1.1626 -1.7145  0.3013
   9223SM  H21G12469   3.140   3.937  12.318 -1.3960 -0.6634  0.4409
   9223SM  C22F12470   2.962   3.982  12.430  0.8156  0.6738  0.3508
   9223SM  H22F12471   2.911   4.014  12.337  2.1907 -1.6290 -1.2869
   9223SM  H22G12472   2.935   4.050  12.514 -0.7555 -0.8062  1.1132
   9223SM  C23F12473   2.915   3.834  12.457 -0.0789 -0.1207  0.1814
   9223SM  H23F12474   2.812   3.829  12.499  0.3049 -0.3519  1.1347
   9223SM  H23G12475   2.986   3.778  12.522  0.4514  1.0905  0.6958
   9223SM  H23H12476   2.897   3.777  12.364 -1.1942  0.8527 -0.2281
   9323SM     N12477   5.537   5.515   9.397  0.1521  0.1459  0.0519
   9323SM   C1512478   5.686   5.522   9.391 -0.1058 -0.4270  0.1229
   9323SM  H15A12479   5.713   5.626   9.395  1.0946 -0.7552  2.1157
   9323SM  H15B12480   5.723   5.479   9.300 -0.6964 -3.2106  1.0927
   9323SM  H15C12481   5.730   5.489   9.484 -1.4410  0.4361  1.1046
   9323SM   C1412482   5.478   5.596   9.286  0.0035  0.6739 -0.3910
   9323SM  H14A12483   5.520   5.695   9.291  1.7963 -0.0763  0.2974
   9323SM  H14B12484   5.371   5.606   9.286 -0.0692  0.0093  0.7254
   9323SM  H14C12485   5.508   5.549   9.193  0.3213 -0.9272  0.4830
   9323SM   C1312486   5.497   5.371   9.394  0.1844 -0.5161 -0.5505
   9323SM  H13A12487   5.393   5.360   9.421  0.2774  0.0867  0.0908
   9323SM  H13B12488   5.546   5.312   9.469  2.4356  0.6847 -0.9889
   9323SM  H13C12489   5.526   5.314   9.307 -0.1421  0.0726 -1.0617
   9323SM   C1212490   5.496   5.571   9.533 -0.5958 -0.0968  0.3678
   9323SM  H12A12491   5.390   5.559   9.543 -0.6645 -0.7992 -1.0040
   9323SM  H12B12492   5.525   5.676   9.533  1.4968 -0.5651 -2.2207
   9323SM   C1112493   5.567   5.515   9.660  0.2541 -0.2017  0.0753
   9323SM  H11A12494   5.574   5.405   9.646 -0.3459 -0.3627  0.9312
   9323SM  H11B12495   5.505   5.522   9.752  2.8618 -1.0461  2.0306
   9323SM     P12496   5.720   5.720   9.724 -0.0584 -0.0947  0.6749
   9323SM   O1312497   5.866   5.744   9.736  0.6186 -0.1835 -0.2797
   9323SM   O1412498   5.650   5.809   9.627 -0.0890  0.5389 -0.3732
   9323SM   O1112499   5.663   5.733   9.866  0.7676 -0.8827 -0.1488
   9323SM   O1212500   5.700   5.569   9.684 -0.2759  0.5140  0.0884
   9323SM   C1S12501   5.694   5.646   9.977 -0.7987  0.1901  0.2421
   9323SM   H1S12502   5.800   5.614   9.969  0.0630  3.0818 -1.5263
   9323SM   H1T12503   5.637   5.550   9.977 -2.0019  0.8785  1.4677
   9323SM    NF12504   5.761   5.656  10.207  0.3524  0.4381 -0.7238
   9323SM   HNF12505   5.725   5.587  10.270 -1.0703  0.1844 -1.7618
   9323SM   C2S12506   5.674   5.712  10.114  0.1994 -0.8902  0.3161
   9323SM   H2S12507   5.705   5.819  10.112  2.3878 -1.4056  2.3360
   9323SM   C3S12508   5.523   5.719  10.162 -0.1923 -0.1807  0.2418
   9323SM   H3S12509   5.482   5.618  10.181  1.5912 -0.4122  3.6029
   9323SM    O312510   5.446   5.780  10.057 -0.2702  0.5190 -0.0303
   9323SM   HO312511   5.510   5.808   9.992  0.7211  0.6412  0.9559
   9323SM   C4S12512   5.515   5.789  10.294  0.1604 -0.0756  0.0204
   9323SM   H4S12513   5.561   5.733  10.376  0.5615  0.6600  0.3072
   9323SM   C5S12514   5.458   5.912  10.323  0.3790 -0.2640 -0.3845
   9323SM   H5S12515   5.400   5.969  10.249  1.8786 -0.2467 -1.5989
   9323SM   C6S12516   5.456   5.974  10.458  0.0982 -0.3498  0.2606
   9323SM   H6S12517   5.353   6.015  10.467  0.5934  0.5616  2.3592
   9323SM   H6T12518   5.523   6.062  10.469 -0.6725  0.7539 -2.8524
   9323SM   C7S12519   5.486   5.880  10.576 -0.1483  0.1036  0.2255
   9323SM   H7S12520   5.591   5.842  10.574 -0.6765 -1.4202  0.1218
   9323SM   H7T12521   5.420   5.792  10.561  0.3463 -0.6243  2.0655
   9323SM   C8S12522   5.470   5.957  10.709 -0.1082 -0.2794  0.2768
   9323SM   H8S12523   5.371   6.007  10.713  1.3689  2.9427 -0.3160
   9323SM   H8T12524   5.553   6.030  10.703 -0.6879  0.2517 -2.6185
   9323SM   C9S12525   5.489   5.868  10.831  0.2107  0.4633 -0.8705
   9323SM   H9S12526   5.587   5.817  10.816  0.1028  0.2582 -0.8861
   9323SM   H9T12527   5.418   5.783  10.821  1.8369 -1.6312  3.1043
   9323SM  C10S12528   5.478   5.939  10.965  0.3075 -0.0426  0.2151
   9323SM  H10S12529   5.404   6.021  10.964  1.1309  0.7129 -0.6081
   9323SM  H10T12530   5.577   5.988  10.975  1.0010 -1.6981  2.3645
   9323SM  C11S12531   5.456   5.852  11.086 -0.2251  0.2813 -0.2414
   9323SM  H11S12532   5.548   5.792  11.106 -1.0059 -1.2389 -1.0252
   9323SM  H11T12533   5.370   5.784  11.072  0.0266 -0.1527  0.2604
   9323SM  C12S12534   5.432   5.940  11.220  0.2248  0.5766 -0.6667
   9323SM  H12S12535   5.345   6.006  11.199 -0.4888  0.4165  1.4902
   9323SM  H12T12536   5.522   5.999  11.245  1.5606 -1.7365  0.3276
   9323SM  C13S12537   5.395   5.851  11.342  0.2329  0.1838  0.4730
   9323SM  H13S12538   5.482   5.782  11.352  2.4875  2.9605  1.4227
   9323SM  H13T12539   5.304   5.791  11.322  0.9661 -1.0317  0.6724
   9323SM  C14S12540   5.376   5.917  11.474 -0.6463  0.2982 -0.0590
   9323SM  H14S12541   5.285   5.982  11.473  1.0698  2.8570 -0.4346
   9323SM  H14T12542   5.457   5.990  11.494 -0.1754  0.0611 -1.0424
   9323SM  C15S12543   5.357   5.818  11.589  0.3454 -0.2759  0.4229
   9323SM  H15S12544   5.280   5.743  11.564 -1.6991  1.2232  1.8564
   9323SM  H15T12545   5.453   5.765  11.603  1.1257  1.5080  2.4290
   9323SM  C16S12546   5.307   5.879  11.717 -0.0340 -0.7454  0.3663
   9323SM  H16S12547   5.306   5.795  11.790  2.3898 -0.7262  0.4897
   9323SM  H16T12548   5.200   5.906  11.707 -0.0022 -0.6408  0.3011
   9323SM  C17S12549   5.395   5.990  11.770 -0.0859  0.3726  0.0914
   9323SM  H17S12550   5.418   6.062  11.689  0.2425  1.8460  1.4498
   9323SM  H17T12551   5.485   5.944  11.815  0.1440 -0.9462 -1.6293
   9323SM  C18S12552   5.328   6.077  11.874 -0.2680  0.8254 -0.3017
   9323SM  H18S12553   5.237   6.120  11.827 -1.5563  0.1968  1.4980
   9323SM  H18T12554   5.393   6.166  11.891 -0.4659  0.7975  0.6933
   9323SM  H18U12555   5.312   6.029  11.973  2.1933  0.2589 -0.1195
   9323SM   C1F12556   5.892   5.680  10.206  0.1214 -0.2006 -0.3187
   9323SM    OF12557   5.947   5.752  10.126  0.2265  0.0911 -0.1370
   9323SM   C2F12558   5.963   5.594  10.313 -0.0755 -0.7723 -0.2040
   9323SM   H2F12559   6.046   5.536  10.266  0.5522 -0.5528  0.6059
   9323SM   H2G12560   5.886   5.521  10.346  1.1261 -1.8542  0.2774
   9323SM   C3F12561   6.010   5.683  10.430  0.3440 -0.5573 -1.0258
   9323SM   H3F12562   5.922   5.732  10.476  0.0362 -0.9719 -1.1703
   9323SM   H3G12563   6.081   5.757  10.387  1.3966 -0.3656  0.9058
   9323SM   C4F12564   6.085   5.608  10.540 -0.3864 -0.7180 -0.3159
   9323SM   H4F12565   6.185   5.581  10.498  0.3295  0.4769  0.5867
   9323SM   H4G12566   6.047   5.505  10.557  0.2153 -0.7351  1.0698
   9323SM   C5F12567   6.086   5.680  10.676 -0.3007  0.5410  0.7776
   9323SM   H5F12568   5.983   5.700  10.713 -0.6131  2.5177 -0.9708
   9323SM   H5G12569   6.136   5.778  10.666 -0.5401  0.5774 -0.0830
   9323SM   C6F12570   6.154   5.586  10.778 -0.0262 -0.3849 -0.6996
   9323SM   H6F12571   6.250   5.545  10.742 -0.3053 -0.7362 -1.0587
   9323SM   H6G12572   6.082   5.502  10.769 -0.1003 -0.3420 -0.5001
   9323SM   C7F12573   6.168   5.650  10.917  0.5075  0.0545  0.1093
   9323SM   H7F12574   6.074   5.703  10.944  1.0816  0.9871  0.3355
   9323SM   H7G12575   6.241   5.734  10.908 -0.9103  1.4449  1.0463
   9323SM   C8F12576   6.213   5.554  11.024 -0.0067  0.6215  0.1686
   9323SM   H8F12577   6.314   5.519  10.996 -0.6344  0.8034 -2.6160
   9323SM   H8G12578   6.149   5.464  11.007  0.7041 -0.6396  3.4512
   9323SM   C9F12579   6.199   5.599  11.169 -0.3725 -0.1664  0.4864
   9323SM   H9F12580   6.234   5.508  11.222  0.2456  1.9352  4.0333
   9323SM   H9G12581   6.093   5.626  11.191  0.2416  1.5257  1.6062
   9323SM  C10F12582   6.283   5.721  11.200  0.5322  0.1574 -0.5008
   9323SM  H10F12583   6.279   5.809  11.132  0.2085 -0.3508 -1.1526
   9323SM  H10G12584   6.385   5.682  11.178  0.4811 -0.3900  0.1964
   9323SM  C11F12585   6.258   5.771  11.339  0.6113  0.3907 -0.5858
   9323SM  H11F12586   6.151   5.799  11.352  0.4072 -0.2016 -0.9454
   9323SM  H11G12587   6.322   5.858  11.366  0.4404  0.7310 -1.2548
   9323SM  C12F12588   6.287   5.670  11.460 -0.2606 -0.6127 -0.6020
   9323SM  H12F12589   6.390   5.634  11.440 -0.0024  0.0268 -0.4594
   9323SM  H12G12590   6.221   5.581  11.461  1.1740 -1.8459  3.2366
   9323SM  C13F12591   6.276   5.743  11.599  0.1739  0.3139 -0.6085
   9323SM  H13F12592   6.172   5.780  11.611  0.3347  0.7876 -0.6622
   9323SM  H13G12593   6.342   5.832  11.602  0.6525 -0.0463 -0.2908
   9323SM  C14F12594   6.321   5.649  11.712  0.6699  0.0123  0.0221
   9323SM  H14F12595   6.426   5.625  11.686  0.4918 -0.5664 -0.1732
   9323SM  H14G12596   6.266   5.553  11.704 -1.2918  1.1949 -1.7662
   9323SM  C15F12597   6.308   5.730  11.845 -0.0131 -0.1119 -1.2204
   9323SM  H15F12598   6.349   5.831  11.820 -1.1405  0.2259 -1.7547
   9323SM  H15G12599   6.387   5.690  11.912  0.9412 -0.2643 -2.3799
   9323SM  C16F12600   6.167   5.742  11.892  0.7919 -0.1689 -0.1400
   9323SM  H16F12601   6.124   5.641  11.910  2.9818 -1.6728 -2.6731
   9323SM  H16G12602   6.113   5.782  11.803 -0.5541  2.9207  1.8530
   9323SM  C17F12603   6.151   5.828  12.019  0.3172 -0.7195 -0.2358
   9323SM  H17F12604   6.201   5.926  12.006 -0.6628 -0.3607 -1.5655
   9323SM  H17G12605   6.205   5.776  12.101  0.7563  1.0408  0.6245
   9323SM  C18F12606   6.002   5.856  12.051  1.5061  0.6032  0.0082
   9323SM  H18F12607   5.956   5.759  12.078  0.0039  1.8431  2.2573
   9323SM  H18G12608   5.947   5.897  11.964 -0.4973 -2.2543 -0.1954
   9323SM  C19F12609   5.987   5.957  12.169 -0.7707  0.5190  1.3461
   9323SM  H19F12610   6.063   6.037  12.156 -1.5123  1.2520  1.4160
   9323SM  H19G12611   6.009   5.886  12.252  1.3440 -0.6138 -0.0969
   9323SM  C20F12612   5.842   6.022  12.185 -0.7361  0.6639  0.0409
   9323SM  H20F12613   5.792   5.961  12.263  0.2176  1.4092  1.2749
   9323SM  H20G12614   5.778   6.000  12.097 -0.3815 -0.6945  0.0934
   9323SM  C21F12615   5.843   6.167  12.228  0.2770 -0.2580  0.1745
   9323SM  H21F12616   5.742   6.213  12.222 -0.6435 -2.1475  0.3953
   9323SM  H21G12617   5.915   6.231  12.173 -1.1383  1.5216  0.3122
   9323SM  C22F12618   5.886   6.172  12.376 -0.1859  0.6334  0.0351
   9323SM  H22F12619   5.991   6.137  12.377  0.2523  1.7241 -1.7206
   9323SM  H22G12620   5.836   6.088  12.428  0.9717  0.9767  1.7837
   9323SM  C23F12621   5.872   6.313  12.441 -0.4458  0.0332 -0.0879
   9323SM  H23F12622   5.919   6.393  12.380  3.6484  0.8833  3.6260
   9323SM  H23G12623   5.922   6.315  12.541 -2.5922  2.4888  1.0472
   9323SM  H23H12624   5.764   6.337  12.449 -0.9781 -1.5149 -1.8481
   9423SM     N12625   5.077   2.059   9.268 -0.3869  0.5447 -0.6662
   9423SM   C1512626   4.932   2.017   9.279  1.0430 -0.6091 -0.0030
   9423SM  H15A12627   4.875   2.030   9.188  0.3715  0.7823  0.5783
   9423SM  H15B12628   4.883   2.080   9.352  0.8036  0.0242 -0.6860
   9423SM  H15C12629   4.922   1.917   9.316 -0.7306 -0.0443  1.1574
   9423SM   C1412630   5.139   1.970   9.165 -0.3082  0.0392  0.3571
   9423SM  H14A12631   5.241   2.002   9.152 -0.8685  1.4962 -0.7508
   9423SM  H14B12632   5.084   1.983   9.072 -2.4881 -0.7953  1.4668
   9423SM  H14C12633   5.142   1.864   9.182 -0.0757 -0.2037 -1.0462
   9423SM   C1312634   5.088   2.201   9.224  0.4363 -1.0552  0.0538
   9423SM  H13A12635   5.190   2.235   9.227 -0.1779  0.8555  0.7529
   9423SM  H13B12636   5.033   2.268   9.289  1.4182  1.2637 -1.4077
   9423SM  H13C12637   5.039   2.213   9.129  0.4223 -3.8244 -0.3588
   9423SM   C1212638   5.135   2.031   9.409 -0.4363 -1.0046  0.3055
   9423SM  H12A12639   5.239   2.062   9.406 -1.3124  2.2155 -1.3555
   9423SM  H12B12640   5.134   1.925   9.428 -1.7200 -1.3539 -1.4751
   9423SM   C1112641   5.066   2.101   9.522 -0.0661 -0.4980 -0.0238
   9423SM  H11A12642   5.121   2.069   9.613  2.9425  1.3668 -1.0323
   9423SM  H11B12643   4.963   2.062   9.524 -0.6442  0.9555  1.3002
   9423SM     P12644   5.164   2.343   9.582  0.2883 -0.2246  0.3985
   9423SM   O1312645   5.294   2.320   9.518 -0.0539 -0.2556 -0.1326
   9423SM   O1412646   5.113   2.480   9.579  0.7210 -0.2225  0.4135
   9423SM   O1112647   5.164   2.287   9.730  0.1333  0.1139  0.3359
   9423SM   O1212648   5.066   2.244   9.504  0.1771  0.1465  0.2275
   9423SM   C1S12649   5.041   2.277   9.808 -0.0977 -0.1210 -0.1954
   9423SM   H1S12650   4.982   2.200   9.753 -0.0440 -0.2551 -0.0674
   9423SM   H1T12651   4.988   2.373   9.822  1.7526  1.3672 -2.5451
   9423SM    NF12652   4.934   2.194  10.019  0.0216 -0.6616 -0.3841
   9423SM   HNF12653   4.933   2.263  10.091  1.2278 -0.4873 -0.5072
   9423SM   C2S12654   5.061   2.210   9.950 -0.2235 -0.7234 -0.5073
   9423SM   H2S12655   5.114   2.113   9.940  2.8162  0.3556  2.8334
   9423SM   C3S12656   5.175   2.291  10.025  0.8829 -0.0155 -0.2114
   9423SM   H3S12657   5.143   2.395  10.045 -0.1509 -0.8419  2.9751
   9423SM    O312658   5.300   2.297   9.964  0.1973 -0.0229  0.4147
   9423SM   HO312659   5.268   2.277   9.875  0.6816 -0.4140  0.3240
   9423SM   C4S12660   5.188   2.220  10.158 -0.1403  0.6712 -0.4115
   9423SM   H4S12661   5.259   2.135  10.153 -0.7977  0.0402  0.5888
   9423SM   C5S12662   5.164   2.270  10.279 -0.4103  0.4441 -0.1116
   9423SM   H5S12663   5.135   2.376  10.288 -0.4669  0.4617 -0.4654
   9423SM   C6S12664   5.202   2.206  10.408 -0.1419 -0.6532  0.0830
   9423SM   H6S12665   5.125   2.238  10.481 -0.4328 -0.3203 -0.3592
   9423SM   H6T12666   5.301   2.248  10.439  0.2580 -2.5401  1.5125
   9423SM   C7S12667   5.206   2.054  10.406  0.9521 -0.7542 -0.3266
   9423SM   H7S12668   5.301   2.022  10.359  0.2613 -1.2291 -1.4355
   9423SM   H7T12669   5.121   2.016  10.345  0.3617  0.2943 -0.1902
   9423SM   C8S12670   5.216   1.993  10.549  0.7924  0.4146  0.0402
   9423SM   H8S12671   5.219   1.884  10.526 -1.2716  0.4953 -0.7878
   9423SM   H8T12672   5.137   2.037  10.614 -0.0213  0.5028 -0.9807
   9423SM   C9S12673   5.346   2.033  10.622  0.1209 -0.2281  0.3605
   9423SM   H9S12674   5.355   2.143  10.616  2.5555 -0.4318 -1.8522
   9423SM   H9T12675   5.439   1.995  10.574 -0.1813  1.1951 -1.4843
   9423SM  C10S12676   5.344   1.971  10.764  0.6772  0.5475 -0.5344
   9423SM  H10S12677   5.314   1.865  10.749 -0.1478  0.5725  0.7687
   9423SM  H10T12678   5.260   2.006  10.827  0.9988 -0.2217  0.3570
   9423SM  C11S12679   5.482   1.989  10.834 -0.8334 -0.1555  0.5420
   9423SM  H11S12680   5.494   2.097  10.859 -1.3379  0.0407 -0.0316
   9423SM  H11T12681   5.563   1.968  10.761 -0.9099 -0.1779  0.4632
   9423SM  C12S12682   5.496   1.921  10.969 -0.2872  0.4984  0.1695
   9423SM  H12S12683   5.597   1.958  10.997  0.7485 -2.0158  0.0561
   9423SM  H12T12684   5.496   1.812  10.948  1.3666  0.3130  0.9833
   9423SM  C13S12685   5.402   1.978  11.080 -0.0772  0.6834  0.0879
   9423SM  H13S12686   5.297   1.948  11.058 -0.2610  0.6214  0.9742
   9423SM  H13T12687   5.399   2.089  11.072 -2.6480  0.7047  0.4389
   9423SM  C14S12688   5.455   1.928  11.214  0.3207  0.0294  0.7447
   9423SM  H14S12689   5.552   1.982  11.216 -1.1268  2.9736 -0.6955
   9423SM  H14T12690   5.472   1.819  11.215 -0.7578 -0.1584 -0.1399
   9423SM  C15S12691   5.365   1.968  11.331 -0.2534 -0.5856 -0.1283
   9423SM  H15S12692   5.299   1.881  11.348  1.2279 -1.6168  0.5391
   9423SM  H15T12693   5.319   2.066  11.307  1.2320  0.5412  1.3795
   9423SM  C16S12694   5.442   1.981  11.461  0.3351  0.5671  0.5158
   9423SM  H16S12695   5.534   2.042  11.447 -0.7816  1.9656 -1.1156
   9423SM  H16T12696   5.476   1.877  11.484  0.3175  0.2692 -0.7531
   9423SM  C17S12697   5.361   2.035  11.572 -0.7393 -0.4176 -0.2700
   9423SM  H17S12698   5.265   1.982  11.590 -0.7530  0.3299  2.2962
   9423SM  H17T12699   5.325   2.136  11.544  0.9081 -0.2344 -1.8136
   9423SM  C18S12700   5.437   2.044  11.707 -0.4495  0.6295 -0.1919
   9423SM  H18S12701   5.458   1.945  11.753 -1.0025  0.6807  0.1757
   9423SM  H18T12702   5.374   2.090  11.786  0.4915  0.5452  0.6273
   9423SM  H18U12703   5.537   2.093  11.703 -0.8336  1.3677 -1.4246
   9423SM   C1F12704   4.850   2.104   9.991  0.4402 -0.0332  0.5424
   9423SM    OF12705   4.878   2.026   9.902 -0.2849 -0.2449  0.6449
   9423SM   C2F12706   4.725   2.092  10.060  0.1414  0.6902  0.2438
   9423SM   H2F12707   4.656   2.017  10.016  0.2708 -0.7956  2.4123
   9423SM   H2G12708   4.666   2.185  10.044 -0.0082  0.6665  0.6405
   9423SM   C3F12709   4.745   2.067  10.207 -0.3539 -0.2119 -0.6840
   9423SM   H3F12710   4.641   2.072  10.246 -0.9327 -2.8212 -1.6837
   9423SM   H3G12711   4.818   2.137  10.253 -0.9792  0.1615 -0.2438
   9423SM   C4F12712   4.804   1.928  10.245  0.0655  0.3041 -0.2718
   9423SM   H4F12713   4.889   1.907  10.178 -0.9052 -1.4630 -1.0190
   9423SM   H4G12714   4.724   1.853  10.230  0.2360  0.1786 -0.5451
   9423SM   C5F12715   4.848   1.923  10.386 -0.3526  0.7563 -0.1897
   9423SM   H5F12716   4.760   1.931  10.452  1.4066 -2.2044  2.8220
   9423SM   H5G12717   4.918   2.006  10.409  0.3575 -0.1256  0.9778
   9423SM   C6F12718   4.907   1.781  10.417  0.0052  0.8807  0.4213
   9423SM   H6F12719   5.003   1.770  10.362  1.2741  1.2715  2.4565
   9423SM   H6G12720   4.837   1.703  10.382 -0.1802  0.9644  0.6063
   9423SM   C7F12721   4.942   1.767  10.568  0.2772  0.7255 -0.2387
   9423SM   H7F12722   4.846   1.769  10.625 -0.6586 -3.0831 -1.3464
   9423SM   H7G12723   5.013   1.845  10.603  1.7914 -1.1639  1.1326
   9423SM   C8F12724   4.984   1.623  10.602 -0.4191  0.1885  0.1093
   9423SM   H8F12725   5.071   1.604  10.535 -1.0279  0.1907 -0.6968
   9423SM   H8G12726   4.902   1.552  10.577 -0.5659  0.7752 -1.1853
   9423SM   C9F12727   5.064   1.607  10.739  0.8525 -0.5217 -0.5708
   9423SM   H9F12728   5.146   1.682  10.740 -0.6803  1.2425 -1.1614
   9423SM   H9G12729   5.101   1.502  10.746 -0.3429 -1.1077 -2.4342
   9423SM  C10F12730   4.973   1.629  10.863  0.4215  0.1198  0.3239
   9423SM  H10F12731   4.890   1.555  10.862 -0.3529  0.9671  0.8370
   9423SM  H10G12732   4.926   1.729  10.852 -1.7044 -0.9743 -1.1718
   9423SM  C11F12733   5.058   1.627  10.988  0.2632 -0.0867 -0.4955
   9423SM  H11F12734   5.107   1.726  10.989  1.0079 -0.4444 -0.9721
   9423SM  H11G12735   5.139   1.552  11.000  0.7126  0.2289 -1.5359
   9423SM  C12F12736   4.980   1.608  11.122 -0.1164  0.9034  0.3142
   9423SM  H12F12737   4.945   1.503  11.119 -0.5363  1.0516 -0.2070
   9423SM  H12G12738   4.890   1.673  11.130  0.0543  0.9630  1.9586
   9423SM  C13F12739   5.065   1.643  11.245  0.0486  0.2007  0.1088
   9423SM  H13F12740   5.110   1.744  11.235 -2.7565  1.6502  1.2645
   9423SM  H13G12741   5.149   1.569  11.244  0.1326  0.2945  0.3357
   9423SM  C14F12742   4.979   1.650  11.371 -1.1212  0.0759  0.7955
   9423SM  H14F12743   4.944   1.546  11.389  3.6866 -2.3732 -2.0158
   9423SM  H14G12744   4.892   1.719  11.368  1.9585  4.5131  2.6135
   9423SM  C15F12745   5.061   1.688  11.500  0.3657  0.1189  0.2654
   9423SM  H15F12746   5.110   1.788  11.488 -2.2195  1.6148  1.3242
   9423SM  H15G12747   5.145   1.620  11.524  0.8695  0.0458 -1.5277
   9423SM  C16F12748   4.968   1.690  11.622  0.1770  0.2915 -0.4055
   9423SM  H16F12749   4.908   1.598  11.637  0.2967 -0.0469 -1.8243
   9423SM  H16G12750   4.898   1.773  11.599  1.5245  0.7955 -3.2214
   9423SM  C17F12751   5.044   1.721  11.757  0.1417 -0.2046 -0.3929
   9423SM  H17F12752   5.134   1.780  11.733  0.2617 -0.8401 -1.6186
   9423SM  H17G12753   5.087   1.625  11.793  0.7408  0.3490  0.4072
   9423SM  C18F12754   4.959   1.793  11.870  0.5927  0.6083 -0.3178
   9423SM  H18F12755   5.022   1.787  11.961  0.1079 -1.5434 -0.0566
   9423SM  H18G12756   4.867   1.730  11.878 -0.1965  1.5620 -1.5496
   9423SM  C19F12757   4.911   1.934  11.843 -0.7687 -0.2628  0.1983
   9423SM  H19F12758   4.831   1.939  11.766  1.7117  1.2038 -2.4734
   9423SM  H19G12759   4.985   2.002  11.796 -1.7952  0.1534 -0.8515
   9423SM  C20F12760   4.863   2.009  11.972  0.2908  0.0131 -0.7422
   9423SM  H20F12761   4.852   2.114  11.937 -1.1833 -0.1177 -0.7323
   9423SM  H20G12762   4.939   2.006  12.053 -0.4671 -2.0373 -0.0526
   9423SM  C21F12763   4.727   1.958  12.028 -0.4477 -0.6569 -0.7688
   9423SM  H21F12764   4.738   1.853  12.062 -1.1309 -1.2788 -2.3724
   9423SM  H21G12765   4.649   1.959  11.949 -2.5277  0.2828  1.1585
   9423SM  C22F12766   4.687   2.046  12.146 -0.5605 -0.4506 -0.2243
   9423SM  H22F12767   4.767   2.036  12.223  0.2398 -0.7083 -1.0709
   9423SM  H22G12768   4.586   2.020  12.183 -2.1100  2.6079 -1.9486
   9423SM  C23F12769   4.678   2.193  12.105 -0.0075 -0.6026 -0.1305
   9423SM  H23F12770   4.776   2.246  12.108 -0.1610 -0.2229 -1.2351
   9423SM  H23G12771   4.610   2.242  12.177 -2.0533 -1.3974 -1.4501
   9423SM  H23H12772   4.619   2.200  12.011 -0.2489  1.1715  0.1106
   9523SM     N12773   0.661   5.876   9.316  0.3858 -0.5164 -0.2494
   9523SM   C1512774   0.556   5.976   9.366  0.6568 -0.5283 -0.0824
   9523SM  H15A12775   0.601   6.074   9.368  1.9530 -1.0734  2.9380
   9523SM  H15B12776   0.509   5.951   9.460  0.3683 -1.2659 -0.4183
   9523SM  H15C12777   0.479   5.974   9.291  1.2269  2.3573 -0.8428
   9523SM   C1412778   0.613   5.749   9.277  1.2287 -0.3268  0.0206
   9523SM  H14A12779   0.579   5.685   9.358 -1.1446 -0.1512 -0.7570
   9523SM  H14B12780   0.691   5.690   9.231 -0.1788 -2.3828  0.1225
   9523SM  H14C12781   0.537   5.760   9.201  2.4064 -1.0849 -1.2985
   9523SM   C1312782   0.712   5.945   9.187  0.0422  0.2383  0.7376
   9523SM  H13A12783   0.752   6.042   9.212  0.5607  0.3873 -0.5374
   9523SM  H13B12784   0.629   5.957   9.118 -0.5897 -0.4384  1.3662
   9523SM  H13C12785   0.795   5.892   9.142  0.5589  1.4139  0.2525
   9523SM   C1212786   0.769   5.872   9.426 -0.3265 -0.6955 -0.0077
   9523SM  H12A12787   0.789   5.969   9.468  0.9472 -0.7465 -0.4278
   9523SM  H12B12788   0.859   5.838   9.375  0.1151  4.4530 -3.4181
   9523SM   C1112789   0.748   5.801   9.560  0.1343 -0.0615  0.4734
   9523SM  H11A12790   0.659   5.845   9.608  1.0650 -0.4221  2.6137
   9523SM  H11B12791   0.829   5.832   9.628  0.8215 -0.7521 -0.0071
   9523SM     P12792   0.643   5.576   9.643 -0.1592  0.1620 -0.1016
   9523SM   O1312793   0.507   5.633   9.645  0.6614  0.0178 -0.2571
   9523SM   O1412794   0.653   5.429   9.625  0.0686  0.2508  0.1038
   9523SM   O1112795   0.716   5.619   9.786 -0.2561 -0.1026 -0.4983
   9523SM   O1212796   0.741   5.656   9.538  0.0458  0.5101 -0.5391
   9523SM   C1S12797   0.847   5.567   9.806 -0.8330  0.6334 -0.4652
   9523SM   H1S12798   0.913   5.614   9.730 -0.9486  0.7359 -0.5007
   9523SM   H1T12799   0.857   5.457   9.790 -2.7030  0.0715  1.6421
   9523SM    NF12800   1.031   5.545   9.961  0.5679 -0.4763 -0.1652
   9523SM   HNF12801   1.056   5.467  10.018 -0.4479  0.2367  1.3042
   9523SM   C2S12802   0.894   5.591   9.946  0.1618 -0.2775 -0.5206
   9523SM   H2S12803   0.901   5.702   9.960 -0.6695 -0.1188 -1.2960
   9523SM   C3S12804   0.784   5.534  10.054 -0.3215  0.4048  0.3577
   9523SM   H3S12805   0.784   5.426  10.028  0.7042  0.8160 -1.5302
   9523SM    O312806   0.648   5.582  10.041 -0.3176 -0.2763 -0.3878
   9523SM   HO312807   0.653   5.642   9.967 -1.1023  0.2957  0.0142
   9523SM   C4S12808   0.831   5.568  10.189  0.2645  0.4696  0.1453
   9523SM   H4S12809   0.859   5.671  10.217  1.7693 -0.1246  0.9270
   9523SM   C5S12810   0.844   5.468  10.282 -0.0546  0.1073  0.0207
   9523SM   H5S12811   0.807   5.366  10.264  2.5811 -0.7168 -1.3656
   9523SM   C6S12812   0.906   5.487  10.423  0.3754  0.1886  0.9010
   9523SM   H6S12813   0.956   5.585  10.435 -1.7818  1.3246  1.0228
   9523SM   H6T12814   0.982   5.407  10.441  1.0495  1.2487  3.1348
   9523SM   C7S12815   0.798   5.462  10.537 -0.4158  0.5084 -0.3136
   9523SM   H7S12816   0.746   5.364  10.531  0.9408 -0.2806  0.3177
   9523SM   H7T12817   0.722   5.540  10.518  0.7473  1.5371 -0.9553
   9523SM   C8S12818   0.855   5.480  10.682  0.3889  0.1908  0.1431
   9523SM   H8S12819   0.893   5.584  10.674 -0.7651  0.5574 -0.9169
   9523SM   H8T12820   0.948   5.421  10.696  0.0169 -0.1971  1.0536
   9523SM   C9S12821   0.756   5.467  10.797 -0.8219 -0.6252 -0.5527
   9523SM   H9S12822   0.686   5.382  10.783  0.6399 -1.9046 -0.4135
   9523SM   H9T12823   0.692   5.557  10.806  0.9618  0.6336  0.1842
   9523SM  C10S12824   0.825   5.463  10.935 -0.4168 -0.2812  0.4354
   9523SM  H10S12825   0.879   5.557  10.960 -2.1264  1.5521 -2.3152
   9523SM  H10T12826   0.887   5.370  10.936 -1.7363 -1.1884  1.2687
   9523SM  C11S12827   0.731   5.437  11.057 -0.0314 -0.2102 -0.2309
   9523SM  H11S12828   0.674   5.351  11.018 -0.3444 -0.0529 -0.1171
   9523SM  H11T12829   0.654   5.514  11.079 -1.4920 -1.6744 -0.0976
   9523SM  C12S12830   0.791   5.406  11.187  0.7256  0.2245 -0.8028
   9523SM  H12S12831   0.828   5.497  11.238  3.0855 -1.3306  0.4456
   9523SM  H12T12832   0.874   5.332  11.192  0.0851 -0.5927 -1.8385
   9523SM  C13S12833   0.688   5.334  11.271  0.1283  0.4684  0.6051
   9523SM  H13S12834   0.655   5.241  11.221  2.0066  0.8460 -1.5027
   9523SM  H13T12835   0.599   5.397  11.291 -0.7318 -0.1370 -1.1773
   9523SM  C14S12836   0.744   5.300  11.406 -0.1191 -0.1514  0.2328
   9523SM  H14S12837   0.851   5.270  11.401 -0.0255  0.0984  0.6965
   9523SM  H14T12838   0.693   5.218  11.461 -0.0148  0.6833  1.6227
   9523SM  C15S12839   0.737   5.404  11.518 -0.0219 -0.3377 -0.4694
   9523SM  H15S12840   0.636   5.448  11.529  0.1146  0.0518 -0.7564
   9523SM  H15T12841   0.792   5.494  11.484  0.9304 -0.5009  0.5705
   9523SM  C16S12842   0.797   5.363  11.654  0.0142  0.5364 -0.0916
   9523SM  H16S12843   0.786   5.461  11.706  0.9369  0.9648 -0.6778
   9523SM  H16T12844   0.906   5.340  11.644 -0.2956 -1.2994  0.4258
   9523SM  C17S12845   0.709   5.270  11.743  0.5762 -0.0631 -0.1512
   9523SM  H17S12846   0.732   5.166  11.710  1.3315 -0.8599  2.5945
   9523SM  H17T12847   0.602   5.291  11.720  0.1023 -1.3275  0.7741
   9523SM  C18S12848   0.728   5.277  11.901  0.2295 -0.6294  0.3980
   9523SM  H18S12849   0.817   5.215  11.923  0.2546 -0.2947  1.2737
   9523SM  H18T12850   0.630   5.264  11.953  0.1002  0.2004  0.3756
   9523SM  H18U12851   0.766   5.380  11.921 -2.3344  0.3481  0.6467
   9523SM   C1F12852   1.139   5.601   9.900  0.2968 -0.5108  0.0299
   9523SM    OF12853   1.131   5.703   9.831 -0.0268  0.1089 -0.1816
   9523SM   C2F12854   1.267   5.534   9.912 -0.2665 -0.2128  0.9274
   9523SM   H2F12855   1.336   5.601   9.857 -1.6543  2.1571  1.9445
   9523SM   H2G12856   1.274   5.432   9.867  3.5332 -0.8950  2.6169
   9523SM   C3F12857   1.311   5.528  10.062 -0.4159 -0.1707  0.3893
   9523SM   H3F12858   1.395   5.456  10.075 -1.9008 -2.3335 -1.3377
   9523SM   H3G12859   1.228   5.491  10.125 -1.1676  0.5583 -0.1516
   9523SM   C4F12860   1.350   5.666  10.122 -0.1165 -0.3833 -0.1917
   9523SM   H4F12861   1.269   5.740  10.105  1.0276  0.2685 -3.7758
   9523SM   H4G12862   1.438   5.700  10.063  0.4042 -2.7902 -0.9400
   9523SM   C5F12863   1.397   5.643  10.265 -0.3750  0.0181  0.2375
   9523SM   H5F12864   1.456   5.729  10.303 -2.1253  1.7098 -0.6869
   9523SM   H5G12865   1.466   5.555  10.270  0.9807  1.0039 -0.4308
   9523SM   C6F12866   1.280   5.626  10.360 -0.3658  0.3573 -0.9056
   9523SM   H6F12867   1.199   5.562  10.318 -0.0660  0.0903 -1.0761
   9523SM   H6G12868   1.233   5.724  10.384  0.0457  0.3048  0.1545
   9523SM   C7F12869   1.340   5.588  10.497 -0.5135  0.3788 -0.3094
   9523SM   H7F12870   1.404   5.674  10.523 -0.6110 -0.2757  2.3806
   9523SM   H7G12871   1.395   5.492  10.487 -1.6211 -0.1516 -1.6516
   9523SM   C8F12872   1.231   5.579  10.612 -0.0355  0.6218  0.6009
   9523SM   H8F12873   1.161   5.494  10.598  0.3366  0.0115  2.2783
   9523SM   H8G12874   1.180   5.678  10.604  0.4766  0.8560  0.2413
   9523SM   C9F12875   1.294   5.570  10.754 -0.3009 -0.2433  0.2462
   9523SM   H9F12876   1.337   5.671  10.770  2.4704 -1.1168 -0.9484
   9523SM   H9G12877   1.382   5.503  10.738  2.3957  3.1809 -0.4746
   9523SM  C10F12878   1.201   5.523  10.866 -0.7007 -0.3072 -0.9385
   9523SM  H10F12879   1.178   5.415  10.853  1.2494 -1.3376  2.7445
   9523SM  H10G12880   1.111   5.586  10.851  0.3745  1.5294  0.0244
   9523SM  C11F12881   1.257   5.555  11.007  0.7278  0.1797  0.3541
   9523SM  H11F12882   1.259   5.664  11.025  0.3040  0.0950  0.9298
   9523SM  H11G12883   1.363   5.523  11.006  0.6994 -0.4694 -4.5080
   9523SM  C12F12884   1.177   5.490  11.123 -0.6273  0.8849 -0.0690
   9523SM  H12F12885   1.215   5.387  11.140 -2.1295  0.0461 -1.4466
   9523SM  H12G12886   1.070   5.475  11.096 -0.5271 -0.0893  0.0492
   9523SM  C13F12887   1.181   5.576  11.249  0.0290 -0.3934 -0.4179
   9523SM  H13F12888   1.147   5.681  11.230  0.1386 -0.4103 -0.7146
   9523SM  H13G12889   1.289   5.581  11.272  0.3949  1.9115 -2.2063
   9523SM  C14F12890   1.099   5.509  11.363  0.2227 -0.2141 -0.9109
   9523SM  H14F12891   1.105   5.399  11.372 -2.1604 -0.2437  1.8811
   9523SM  H14G12892   0.991   5.525  11.345  0.1818  0.0000 -0.4838
   9523SM  C15F12893   1.133   5.564  11.501 -0.3131  0.1595 -0.1143
   9523SM  H15F12894   1.055   5.533  11.573 -0.2897 -0.1726 -0.2281
   9523SM  H15G12895   1.154   5.673  11.494  0.7080 -0.0066  0.1747
   9523SM  C16F12896   1.258   5.491  11.559 -0.7231  0.1773 -0.0358
   9523SM  H16F12897   1.340   5.497  11.484  1.0623 -1.3707  1.6901
   9523SM  H16G12898   1.248   5.384  11.587 -0.0799  0.1762  0.2189
   9523SM  C17F12899   1.298   5.570  11.683  0.8753  0.5218 -0.2356
   9523SM  H17F12900   1.225   5.651  11.707  0.2369 -0.5048  1.5477
   9523SM  H17G12901   1.392   5.628  11.671  0.8531  0.5202 -0.4148
   9523SM  C18F12902   1.323   5.479  11.807  0.2760  0.0834  0.2045
   9523SM  H18F12903   1.387   5.392  11.778  1.6452  1.5563 -1.4157
   9523SM  H18G12904   1.227   5.437  11.844  0.8981 -0.3379  1.3823
   9523SM  C19F12905   1.391   5.555  11.918  0.1424 -0.3279 -0.7604
   9523SM  H19F12906   1.308   5.602  11.975 -1.1991 -2.2080 -1.0725
   9523SM  H19G12907   1.461   5.632  11.880 -1.1869  0.9600 -0.6930
   9523SM  C20F12908   1.463   5.472  12.022 -0.1246 -0.3372  0.2939
   9523SM  H20F12909   1.548   5.422  11.970  0.8895 -0.6788  2.2112
   9523SM  H20G12910   1.398   5.393  12.065  0.9280 -0.3946  1.8625
   9523SM  C21F12911   1.526   5.559  12.139  0.4563  0.3065  0.0951
   9523SM  H21F12912   1.614   5.616  12.103  0.8682 -0.2005  0.2904
   9523SM  H21G12913   1.563   5.490  12.218  1.4796  1.1065  0.3371
   9523SM  C22F12914   1.435   5.666  12.200  0.4175 -0.0081 -0.4891
   9523SM  H22F12915   1.348   5.608  12.238 -0.2091  0.7629 -0.6988
   9523SM  H22G12916   1.398   5.736  12.122  0.4360  1.7497  1.0006
   9523SM  C23F12917   1.490   5.750  12.315 -0.1021 -0.1332  0.0198
   9523SM  H23F12918   1.531   5.690  12.399 -0.0542  0.5613  0.5026
   9523SM  H23G12919   1.404   5.804  12.360 -0.1820  0.8626 -1.2698
   9523SM  H23H12920   1.566   5.826  12.286  1.3416 -1.1819  0.9151
   9623SM     N12921   2.307   4.385   9.531  0.4070 -0.2719  0.2111
   9623SM   C1512922   2.396   4.399   9.408  0.4490 -0.7311 -0.1607
   9623SM  H15A12923   2.485   4.338   9.411  0.8595 -0.1045  1.7816
   9623SM  H15B12924   2.426   4.502   9.393 -0.3137 -0.6259 -1.0543
   9623SM  H15C12925   2.344   4.369   9.318 -1.5508 -2.0773  1.3548
   9623SM   C1412926   2.284   4.240   9.542 -0.2076  0.6127  0.0477
   9623SM  H14A12927   2.378   4.194   9.570  0.3459  0.3444 -2.0721
   9623SM  H14B12928   2.254   4.194   9.449  1.9198  0.9229 -0.8397
   9623SM  H14C12929   2.219   4.206   9.621 -0.5036  0.1768 -0.3741
   9623SM   C1312930   2.386   4.448   9.637 -0.1813 -0.1709 -0.5920
   9623SM  H13A12931   2.332   4.444   9.731 -1.3296  4.2646 -0.8362
   9623SM  H13B12932   2.395   4.553   9.614  0.4777 -0.2587 -0.7396
   9623SM  H13C12933   2.481   4.397   9.643 -1.0729 -2.0121 -1.3978
   9623SM   C1212934   2.180   4.472   9.507  0.1087  0.5089 -0.3926
   9623SM  H12A12935   2.118   4.429   9.430 -1.2076 -0.4498  1.1376
   9623SM  H12B12936   2.206   4.570   9.470  0.9756  1.6697  2.9300
   9623SM   C1112937   2.078   4.499   9.618  0.0219  0.4232  0.7779
   9623SM  H11A12938   2.010   4.580   9.586  0.9088  1.5965  1.7923
   9623SM  H11B12939   2.135   4.547   9.700 -0.1118 -1.5569  2.0887
   9623SM     P12940   1.903   4.321   9.561 -0.2490  0.2165 -0.4946
   9623SM   O1312941   1.929   4.348   9.418 -0.4207 -0.4501 -0.2095
   9623SM   O1412942   1.894   4.180   9.595 -0.8895 -0.3664  0.6331
   9623SM   O1112943   1.770   4.389   9.604  1.0164 -0.5106  0.2826
   9623SM   O1212944   2.010   4.383   9.657  0.3988 -0.0417  0.6728
   9623SM   C1S12945   1.719   4.393   9.737 -0.4864  0.1195  0.6213
   9623SM   H1S12946   1.739   4.297   9.790  2.4141 -0.2392 -0.9482
   9623SM   H1T12947   1.608   4.397   9.729 -0.5963  0.8285  2.0748
   9623SM    NF12948   1.735   4.492   9.957 -0.4611  0.2316  0.1566
   9623SM   HNF12949   1.662   4.545  10.000  0.7412  2.0839  0.0696
   9623SM   C2S12950   1.760   4.517   9.817 -0.5552 -0.0475 -0.3541
   9623SM   H2S12951   1.869   4.529   9.800 -0.5549 -1.5960 -1.7534
   9623SM   C3S12952   1.693   4.645   9.759 -0.2468  0.1184 -0.1275
   9623SM   H3S12953   1.582   4.641   9.771 -0.1572 -0.4007  0.6449
   9623SM    O312954   1.715   4.659   9.622 -0.0089 -0.0608 -0.7353
   9623SM   HO312955   1.719   4.571   9.584 -0.4723  0.5811 -2.3604
   9623SM   C4S12956   1.727   4.770   9.837  0.0417 -0.3888  0.3389
   9623SM   H4S12957   1.647   4.804   9.903 -0.4423 -0.1364 -0.3653
   9623SM   C5S12958   1.837   4.849   9.825  0.2894 -0.6756 -0.0607
   9623SM   H5S12959   1.899   4.828   9.736 -1.4310 -0.8498 -1.2736
   9623SM   C6S12960   1.887   4.970   9.912 -1.0358 -0.9916 -0.2918
   9623SM   H6S12961   1.844   5.067   9.881 -2.5186 -1.1728  1.0192
   9623SM   H6T12962   1.998   4.973   9.918 -0.9455 -0.5643 -1.8874
   9623SM   C7S12963   1.846   4.961  10.065  0.7850  1.0112 -0.0788
   9623SM   H7S12964   1.756   4.901  10.086  1.8326 -0.3144  0.8054
   9623SM   H7T12965   1.827   5.065  10.100  0.3847  1.0052 -0.2760
   9623SM   C8S12966   1.955   4.922  10.168  0.8703  0.0597  0.0374
   9623SM   H8S12967   2.032   5.001  10.158  1.7736 -0.9182 -1.0981
   9623SM   H8T12968   1.992   4.820  10.143 -2.1460 -1.1434 -0.0752
   9623SM   C9S12969   1.898   4.924  10.305  0.1246  0.3454  0.0770
   9623SM   H9S12970   1.805   4.863  10.308  0.1228  0.2664 -1.0968
   9623SM   H9T12971   1.875   5.029  10.334 -0.6340  0.4244 -0.7663
   9623SM  C10S12972   1.998   4.884  10.408  0.6184  0.1959 -0.4396
   9623SM  H10S12973   2.093   4.942  10.404 -0.8367  2.8981  1.1004
   9623SM  H10T12974   2.017   4.775  10.395 -3.5829 -0.6993 -0.5286
   9623SM  C11S12975   1.941   4.906  10.547 -0.6895  0.1678  0.0729
   9623SM  H11S12976   1.843   4.856  10.563 -0.3261 -0.3992  0.6248
   9623SM  H11T12977   1.926   5.016  10.554  1.7643  0.5460  0.1074
   9623SM  C12S12978   2.039   4.873  10.667 -0.2759  0.3162 -0.4029
   9623SM  H12S12979   2.133   4.928  10.645 -0.0978 -0.2257 -1.0065
   9623SM  H12T12980   2.060   4.765  10.672  2.0993  0.7790  2.7455
   9623SM  C13S12981   1.980   4.917  10.798  1.0088 -0.4500  0.2389
   9623SM  H13S12982   1.893   4.851  10.815  0.1041  1.0623  1.8306
   9623SM  H13T12983   1.939   5.019  10.781 -0.8178 -1.2295 -0.3245
   9623SM  C14S12984   2.071   4.913  10.920  0.5602 -0.2283 -0.4701
   9623SM  H14S12985   2.165   4.967  10.895  1.3239 -0.1731  2.2483
   9623SM  H14T12986   2.088   4.806  10.944 -2.9499 -1.0556 -1.1241
   9623SM  C15S12987   2.008   4.962  11.054  0.5688  0.5170 -0.1044
   9623SM  H15S12988   1.929   4.887  11.073 -0.7576  2.2161  1.4885
   9623SM  H15T12989   1.957   5.060  11.047 -1.5144 -0.3555  1.7239
   9623SM  C16S12990   2.112   4.968  11.165  0.2820 -0.0330  0.0408
   9623SM  H16S12991   2.201   5.029  11.139  1.1169 -1.3607 -0.3288
   9623SM  H16T12992   2.145   4.865  11.190  0.0912 -0.0936  0.0500
   9623SM  C17S12993   2.055   5.032  11.292 -0.3936 -0.3452  0.1980
   9623SM  H17S12994   2.019   5.134  11.267  0.3116 -0.1459 -0.0253
   9623SM  H17T12995   2.136   5.048  11.367  1.6069  2.5391 -2.3463
   9623SM  C18S12996   1.939   4.941  11.342  0.1773  0.1197  0.0188
   9623SM  H18S12997   1.966   4.846  11.393 -0.3300 -0.3552 -0.5819
   9623SM  H18T12998   1.865   4.920  11.263  0.0831 -2.4707  0.7101
   9623SM  H18U12999   1.882   4.998  11.419 -1.8010 -3.0308  1.0703
   9623SM   C1F13000   1.794   4.403  10.030 -0.5584  0.1935 -0.1579
   9623SM    OF13001   1.900   4.353   9.995 -0.3708 -0.4716  0.7235
   9623SM   C2F13002   1.735   4.365  10.163 -0.2622 -0.1800  0.5156
   9623SM   H2F13003   1.764   4.259  10.180  0.8195  0.0934  0.4310
   9623SM   H2G13004   1.626   4.381  10.150 -0.1691  0.1315  0.1088
   9623SM   C3F13005   1.797   4.449  10.277  0.0287 -0.0531  0.5787
   9623SM   H3F13006   1.908   4.443  10.272  0.1886  2.2402  0.5998
   9623SM   H3G13007   1.763   4.399  10.371 -0.0077 -2.8273 -0.7889
   9623SM   C4F13008   1.770   4.602  10.281  0.0060  0.0471 -0.1119
   9623SM   H4F13009   1.795   4.654  10.186 -0.1371  1.7605  0.7544
   9623SM   H4G13010   1.821   4.649  10.367  0.0703 -0.1551 -0.0388
   9623SM   C5F13011   1.623   4.622  10.298  0.5863  0.7453 -0.4992
   9623SM   H5F13012   1.558   4.534  10.283 -0.2900  1.2851  0.0075
   9623SM   H5G13013   1.589   4.709  10.237  3.8267  0.7411 -2.5666
   9623SM   C6F13014   1.577   4.665  10.446  0.1532 -0.4045 -0.0223
   9623SM   H6F13015   1.599   4.773  10.453 -0.3659  0.0977 -3.8757
   9623SM   H6G13016   1.649   4.619  10.517  1.5511  0.5493 -0.7935
   9623SM   C7F13017   1.434   4.627  10.478  0.0715 -0.1660 -1.3751
   9623SM   H7F13018   1.434   4.516  10.468 -0.6237 -0.1200 -1.9476
   9623SM   H7G13019   1.352   4.671  10.416  1.7313  1.1152 -2.7629
   9623SM   C8F13020   1.398   4.668  10.628  0.3376  0.7207  0.0666
   9623SM   H8F13021   1.294   4.635  10.649  1.4043 -2.1000  1.4844
   9623SM   H8G13022   1.395   4.779  10.628 -1.1227  0.7332  1.4754
   9623SM   C9F13023   1.502   4.636  10.739 -0.2071 -0.2244 -0.7527
   9623SM   H9F13024   1.592   4.700  10.726 -0.1079 -0.0345  0.7144
   9623SM   H9G13025   1.524   4.530  10.717 -2.5758 -1.0367  0.3734
   9623SM  C10F13026   1.446   4.650  10.879 -0.3080  0.1586  0.4994
   9623SM  H10F13027   1.379   4.563  10.896  0.5171 -0.5675  0.0919
   9623SM  H10G13028   1.383   4.742  10.884 -0.5364 -0.0175  0.9749
   9623SM  C11F13029   1.559   4.667  10.973 -0.0679  0.0276 -0.1325
   9623SM  H11F13030   1.644   4.726  10.934  0.8049 -0.9492  0.2429
   9623SM  H11G13031   1.612   4.571  10.991 -1.6389 -0.9313 -0.3870
   9623SM  C12F13032   1.504   4.717  11.109  0.3006  0.4799 -0.3135
   9623SM  H12F13033   1.449   4.631  11.153 -1.6816 -0.2273 -3.8221
   9623SM  H12G13034   1.439   4.807  11.105 -0.6881 -0.0740  1.7500
   9623SM  C13F13035   1.631   4.756  11.196  0.0108 -0.6230 -0.1132
   9623SM  H13F13036   1.689   4.830  11.136 -1.0349  1.0663  0.8717
   9623SM  H13G13037   1.693   4.665  11.205  1.0256 -0.0785 -1.2571
   9623SM  C14F13038   1.614   4.811  11.332 -0.0962 -0.6978 -0.0805
   9623SM  H14F13039   1.564   4.910  11.329  3.6644  1.4937  1.8814
   9623SM  H14G13040   1.707   4.837  11.388  0.4108 -2.5509  0.0133
   9623SM  C15F13041   1.531   4.717  11.428  0.4103  0.6038  0.9992
   9623SM  H15F13042   1.601   4.631  11.427  0.6167  0.7595 -0.4758
   9623SM  H15G13043   1.430   4.683  11.394  0.4632 -1.5321  2.7887
   9623SM  C16F13044   1.514   4.789  11.563 -0.5322 -0.0025 -0.4778
   9623SM  H16F13045   1.468   4.887  11.538  1.5345  0.6175 -2.2112
   9623SM  H16G13046   1.605   4.816  11.621  0.0405 -0.5426 -1.1092
   9623SM  C17F13047   1.415   4.719  11.661 -0.2716  0.0596 -0.3991
   9623SM  H17F13048   1.460   4.637  11.722  0.9150  0.9162 -0.0823
   9623SM  H17G13049   1.319   4.688  11.614 -0.2587 -0.0494 -0.3550
   9623SM  C18F13050   1.390   4.820  11.771  0.8298  0.0037 -0.7806
   9623SM  H18F13051   1.285   4.800  11.800  0.6946  1.6399 -0.0341
   9623SM  H18G13052   1.393   4.919  11.721  0.1902  0.9093  0.8814
   9623SM  C19F13053   1.481   4.821  11.896 -0.7238  0.8021 -0.0162
   9623SM  H19F13054   1.586   4.807  11.862  0.0275 -0.3360  2.5344
   9623SM  H19G13055   1.460   4.734  11.961 -1.4819  0.1036 -1.1605
   9623SM  C20F13056   1.482   4.958  11.970  0.2277 -0.0810  0.3171
   9623SM  H20F13057   1.390   4.970  12.031  0.0983 -0.0967  0.1266
   9623SM  H20G13058   1.487   5.046  11.902  0.4866 -0.1592  0.2313
   9623SM  C21F13059   1.596   4.982  12.074 -0.8262  0.5434  0.0722
   9623SM  H21F13060   1.694   4.956  12.031 -0.8620 -1.0604  0.8742
   9623SM  H21G13061   1.584   4.915  12.162  2.2942  1.8020  1.5801
   9623SM  C22F13062   1.613   5.134  12.118 -0.8273  0.2172  0.6233
   9623SM  H22F13063   1.511   5.166  12.148 -1.7464 -1.7290 -0.2287
   9623SM  H22G13064   1.642   5.189  12.027  1.5285  1.5151  2.0519
   9623SM  C23F13065   1.708   5.160  12.234 -0.5428  0.8340 -0.2519
   9623SM  H23F13066   1.723   5.270  12.237  1.5747  0.6650 -2.1287
   9623SM  H23G13067   1.808   5.115  12.216  1.1372  3.5500  1.5617
   9623SM  H23H13068   1.666   5.124  12.330  1.8038 -0.9906  0.1759
   9723SM     N13069   3.479   3.074   9.687 -0.5241 -0.1363 -0.5769
   9723SM   C1513070   3.577   2.961   9.657 -0.4124 -0.4490 -0.0900
   9723SM  H15A13071   3.556   2.902   9.569  1.7566 -1.2497 -0.1384
   9723SM  H15B13072   3.592   2.891   9.738  0.2427 -2.0081 -1.5043
   9723SM  H15C13073   3.672   3.012   9.648 -0.6098 -0.0141  0.2884
   9723SM   C1413074   3.476   3.151   9.561  0.3935 -0.1029  0.2503
   9723SM  H14A13075   3.464   3.070   9.491  1.2472 -1.1480  1.2594
   9723SM  H14B13076   3.561   3.212   9.533  0.8306 -1.2095 -0.9637
   9723SM  H14C13077   3.385   3.208   9.556  1.4883  1.6395 -0.7093
   9723SM   C1313078   3.346   3.008   9.719  0.9548  0.4725 -0.0088
   9723SM  H13A13079   3.363   2.935   9.797 -0.6568 -0.3137 -0.3644
   9723SM  H13B13080   3.312   2.948   9.636 -0.4320 -0.5901  1.2948
   9723SM  H13C13081   3.268   3.076   9.749 -0.8289 -1.1960 -0.6954
   9723SM   C1213082   3.524   3.161   9.793  0.0105 -0.0095 -0.0360
   9723SM  H12A13083   3.466   3.252   9.785 -1.1306 -0.8247 -1.9783
   9723SM  H12B13084   3.628   3.188   9.792  0.0379 -0.1207 -0.1442
   9723SM   C1113085   3.492   3.108   9.942  0.1067 -0.4165  0.2979
   9723SM  H11A13086   3.382   3.104   9.962  0.5769 -1.3678  3.0910
   9723SM  H11B13087   3.533   3.181  10.014 -1.1963 -0.7803  1.4615
   9723SM     P13088   3.695   2.952   9.988 -0.2155 -0.2467 -0.8064
   9723SM   O1313089   3.737   2.821   9.928  0.5100 -0.5635  0.5699
   9723SM   O1413090   3.778   3.066   9.944  0.2602 -0.6251  0.4405
   9723SM   O1113091   3.703   2.937  10.149 -0.0172 -0.5956 -0.4492
   9723SM   O1213092   3.542   2.974   9.969 -0.1864 -0.1418  0.4664
   9723SM   C1S13093   3.596   2.890  10.224  0.4441  0.1286  0.5175
   9723SM   H1S13094   3.558   2.793  10.183  2.5219 -0.4060 -0.2777
   9723SM   H1T13095   3.513   2.963  10.213  0.2764 -0.1583 -0.2208
   9723SM    NF13096   3.532   2.829  10.462 -0.4655 -0.0653  0.5848
   9723SM   HNF13097   3.503   2.894  10.532  1.2064  2.0903 -0.5942
   9723SM   C2S13098   3.638   2.884  10.372 -0.0901  0.6586  0.1090
   9723SM   H2S13099   3.731   2.825  10.376  0.3405  1.3749  1.3687
   9723SM   C3S13100   3.679   3.022  10.423 -0.4105  1.0537 -0.0440
   9723SM   H3S13101   3.602   3.100  10.408  1.1014  2.8888  1.2673
   9723SM    O313102   3.796   3.075  10.354  0.3183 -0.0186 -0.2073
   9723SM   HO313103   3.783   3.050  10.262 -2.8842  1.6466 -0.3441
   9723SM   C4S13104   3.710   3.016  10.573 -0.4176  0.8836 -0.4929
   9723SM   H4S13105   3.792   2.945  10.594 -1.4443 -0.2933 -0.3167
   9723SM   C5S13106   3.654   3.077  10.675  0.1181  0.1163 -0.4784
   9723SM   H5S13107   3.575   3.149  10.652 -0.0677 -0.6810 -2.5334
   9723SM   C6S13108   3.694   3.066  10.822 -0.2864 -0.2823  0.3196
   9723SM   H6S13109   3.765   3.146  10.852 -1.2430  0.1978  1.3705
   9723SM   H6T13110   3.757   2.976  10.837 -1.2715 -0.7575  1.6848
   9723SM   C7S13111   3.581   3.072  10.924  0.4181  0.8558  0.0942
   9723SM   H7S13112   3.499   3.003  10.894  0.9434  1.4186 -2.9539
   9723SM   H7T13113   3.540   3.175  10.916 -3.6366 -0.3330  2.7840
   9723SM   C8S13114   3.633   3.047  11.072 -0.0947 -0.1671  0.6223
   9723SM   H8S13115   3.701   3.131  11.097  0.4913 -0.0288 -1.3386
   9723SM   H8T13116   3.691   2.952  11.075 -1.0027 -0.7625  0.0229
   9723SM   C9S13117   3.525   3.043  11.180 -0.9265 -0.6713  0.0655
   9723SM   H9S13118   3.431   2.991  11.151 -1.8996 -0.8464  3.1321
   9723SM   H9T13119   3.508   3.152  11.195  0.8866  0.0173 -2.3208
   9723SM  C10S13120   3.558   2.974  11.318  0.0429 -0.7480  0.0827
   9723SM  H10S13121   3.658   3.000  11.358 -0.2955  1.1999 -0.2140
   9723SM  H10T13122   3.551   2.864  11.312 -1.4068 -0.8073  2.0074
   9723SM  C11S13123   3.459   3.005  11.429 -0.1436  0.0867 -0.1170
   9723SM  H11S13124   3.354   3.005  11.393 -0.3066 -0.3100  0.3463
   9723SM  H11T13125   3.480   3.108  11.467 -0.5860 -0.3077  1.2616
   9723SM  C12S13126   3.464   2.912  11.550  0.2998 -0.2553 -0.0490
   9723SM  H12S13127   3.444   2.810  11.512  1.9293  0.0327 -1.7627
   9723SM  H12T13128   3.391   2.945  11.628  0.2743 -1.5283  0.4828
   9723SM  C13S13129   3.592   2.930  11.629 -0.6262  0.3417 -0.6721
   9723SM  H13S13130   3.588   3.020  11.694  0.6929  0.7033 -1.0744
   9723SM  H13T13131   3.681   2.941  11.564  0.3055  0.4207  0.5950
   9723SM  C14S13132   3.611   2.799  11.712  0.0202 -0.4313 -0.0728
   9723SM  H14S13133   3.602   2.713  11.642 -1.2395  0.4741 -1.0801
   9723SM  H14T13134   3.526   2.785  11.782 -0.6761 -0.5795 -0.9338
   9723SM  C15S13135   3.750   2.799  11.772 -0.4702  0.2174  1.1768
   9723SM  H15S13136   3.765   2.903  11.809 -1.2314  1.4458 -1.7073
   9723SM  H15T13137   3.829   2.793  11.694  0.2921 -1.1770  2.0223
   9723SM  C16S13138   3.783   2.708  11.888  0.1411 -0.0490  0.5268
   9723SM  H16S13139   3.892   2.707  11.911  0.1181 -0.3372  0.6372
   9723SM  H16T13140   3.760   2.608  11.844  1.6066  0.1228 -0.7221
   9723SM  C17S13141   3.696   2.745  12.014  0.1096  0.2140  0.0232
   9723SM  H17S13142   3.596   2.777  11.979 -0.7220  0.4042  2.3789
   9723SM  H17T13143   3.754   2.828  12.060  0.7028 -1.7542  3.0549
   9723SM  C18S13144   3.678   2.630  12.110 -0.5697  0.5709 -0.1550
   9723SM  H18S13145   3.777   2.586  12.135 -0.1528  1.2963 -0.5116
   9723SM  H18T13146   3.614   2.555  12.058  1.6933 -0.7990 -1.1233
   9723SM  H18U13147   3.632   2.663  12.206  2.2079  0.0725  1.4433
   9723SM   C1F13148   3.483   2.702  10.447 -0.7174  0.3393 -0.3011
   9723SM    OF13149   3.527   2.627  10.358 -0.0683  0.2029  0.3140
   9723SM   C2F13150   3.369   2.660  10.544 -0.5628 -0.2179  0.0610
   9723SM   H2F13151   3.307   2.577  10.503 -1.4345 -0.2116  1.3293
   9723SM   H2G13152   3.301   2.748  10.557  0.6821  0.8964 -0.6819
   9723SM   C3F13153   3.425   2.614  10.679 -0.3258  0.8010  0.6389
   9723SM   H3F13154   3.490   2.527  10.657 -0.2892  1.1110 -0.5804
   9723SM   H3G13155   3.342   2.580  10.745  0.2939 -0.4510  0.7872
   9723SM   C4F13156   3.505   2.719  10.761 -0.8070  0.0256 -0.0725
   9723SM   H4F13157   3.454   2.818  10.764  1.4700  1.3532 -1.9154
   9723SM   H4G13158   3.602   2.738  10.710  1.2352 -0.5479  3.2519
   9723SM   C5F13159   3.546   2.679  10.909 -0.9678  0.5662  0.5243
   9723SM   H5F13160   3.614   2.761  10.941  0.0777 -0.4045  0.8483
   9723SM   H5G13161   3.597   2.581  10.912  0.2798  1.1280 -0.8386
   9723SM   C6F13162   3.422   2.673  11.000 -0.4165 -0.4688 -0.4365
   9723SM   H6F13163   3.330   2.659  10.938  0.8730  0.8623 -2.7851
   9723SM   H6G13164   3.392   2.772  11.041 -0.7927 -0.9041  0.3660
   9723SM   C7F13165   3.439   2.568  11.113  0.5421  0.6705  0.1889
   9723SM   H7F13166   3.531   2.576  11.175 -0.2963 -0.5716  1.6765
   9723SM   H7G13167   3.424   2.471  11.062 -4.0509  1.6425 -0.7417
   9723SM   C8F13168   3.322   2.578  11.220 -0.3077  0.2188  0.5134
   9723SM   H8F13169   3.245   2.508  11.180  2.7301 -3.0752 -0.1743
   9723SM   H8G13170   3.288   2.683  11.216 -1.6499 -0.2287 -1.2813
   9723SM   C9F13171   3.385   2.548  11.359 -0.3416  0.3536  0.4308
   9723SM   H9F13172   3.480   2.596  11.391 -0.2764 -0.1573  1.0231
   9723SM   H9G13173   3.417   2.442  11.353 -0.8095  0.1936  0.7467
   9723SM  C10F13174   3.293   2.569  11.477  0.0557 -0.6278 -0.7174
   9723SM  H10F13175   3.200   2.510  11.459  1.4566 -3.2932  0.1345
   9723SM  H10G13176   3.270   2.676  11.493  1.2097 -0.5174  0.3654
   9723SM  C11F13177   3.360   2.504  11.600 -0.5067  0.3265 -0.8497
   9723SM  H11F13178   3.451   2.560  11.630  0.9704 -0.5837 -3.3251
   9723SM  H11G13179   3.398   2.403  11.574 -0.8893 -0.3481  1.0585
   9723SM  C12F13180   3.271   2.485  11.727 -0.6499 -0.0022 -0.2223
   9723SM  H12F13181   3.333   2.448  11.812 -0.5914 -1.0581 -0.6956
   9723SM  H12G13182   3.203   2.399  11.706 -0.4011 -1.0052  2.5677
   9723SM  C13F13183   3.200   2.614  11.778  0.5925 -0.3906  0.1425
   9723SM  H13F13184   3.098   2.607  11.735  0.2796  0.0060  0.8121
   9723SM  H13G13185   3.251   2.705  11.739  2.5502 -1.4109  0.1852
   9723SM  C14F13186   3.188   2.633  11.917 -0.8207 -0.1213  0.3829
   9723SM  H14F13187   3.117   2.711  11.951 -2.9789 -0.0957 -3.5794
   9723SM  H14G13188   3.287   2.653  11.963 -0.6151  1.2240 -0.5762
   9723SM  C15F13189   3.127   2.512  11.993 -0.0808  0.5866 -0.0049
   9723SM  H15F13190   3.196   2.427  11.974  0.7370  1.4249 -0.9418
   9723SM  H15G13191   3.029   2.489  11.946 -0.3133  2.7812 -0.6973
   9723SM  C16F13192   3.121   2.531  12.144  0.2332 -0.0670 -0.4058
   9723SM  H16F13193   3.048   2.613  12.162 -0.0765  0.3007 -2.9465
   9723SM  H16G13194   3.224   2.547  12.184  0.1190 -1.7413  0.6484
   9723SM  C17F13195   3.085   2.406  12.224  0.1538  0.9650 -0.2108
   9723SM  H17F13196   3.166   2.332  12.205 -0.7972 -0.6077  1.5425
   9723SM  H17G13197   2.988   2.363  12.190 -1.2919  0.2786  4.1821
   9723SM  C18F13198   3.067   2.447  12.364 -0.9103  0.3917 -0.1371
   9723SM  H18F13199   2.983   2.520  12.357 -0.7660  0.4458 -1.4632
   9723SM  H18G13200   3.155   2.494  12.412 -0.7636  0.0708 -0.0907
   9723SM  C19F13201   3.024   2.337  12.466 -0.0147  0.4687  0.1488
   9723SM  H19F13202   3.094   2.252  12.456 -0.8909 -0.2161 -0.3027
   9723SM  H19G13203   2.921   2.308  12.434  0.2311 -2.6801  1.8252
   9723SM  C20F13204   3.014   2.377  12.613 -0.3066 -0.3036 -0.1382
   9723SM  H20F13205   3.120   2.393  12.641 -0.2889 -1.6055  0.6000
   9723SM  H20G13206   2.969   2.288  12.661 -2.3842  0.1165 -1.1871
   9723SM  C21F13207   2.920   2.498  12.643 -0.1208 -0.1738  0.4296
   9723SM  H21F13208   2.818   2.484  12.602 -0.4726 -1.4987  1.6883
   9723SM  H21G13209   2.965   2.587  12.594 -2.1268 -0.4898 -2.2429
   9723SM  C22F13210   2.901   2.529  12.796 -0.1644  0.1751  0.2065
   9723SM  H22F13211   2.853   2.630  12.793 -1.2097 -0.2490  1.6655
   9723SM  H22G13212   3.003   2.547  12.836  0.2584 -0.4700 -0.5447
   9723SM  C23F13213   2.842   2.417  12.873 -0.1526  0.0466  0.5189
   9723SM  H23F13214   2.813   2.453  12.974  0.6528  1.0879  0.4071
   9723SM  H23G13215   2.928   2.349  12.886  0.5526  1.0798  1.4785
   9723SM  H23H13216   2.753   2.367  12.830  1.4241 -3.2836  0.8501
   9823SM     N13217   6.165   1.573   9.397  0.7737 -0.0476  0.1438
   9823SM   C1513218   6.240   1.690   9.438  0.1669  0.1653  0.3266
   9823SM  H15A13219   6.272   1.762   9.364 -1.5769  1.1945  0.5367
   9823SM  H15B13220   6.338   1.667   9.478  0.3198  0.6153  0.2169
   9823SM  H15C13221   6.184   1.746   9.511  0.0695  0.6550 -0.1119
   9823SM   C1413222   6.032   1.609   9.355 -0.3539 -0.2430  0.4836
   9823SM  H14A13223   5.976   1.649   9.438 -0.2040  0.7892  0.0936
   9823SM  H14B13224   5.986   1.520   9.316 -2.3106  0.5475  0.8817
   9823SM  H14C13225   6.018   1.665   9.265  0.3071 -0.1849  0.4100
   9823SM   C1313226   6.231   1.499   9.283 -0.1019 -0.8371  0.7941
   9823SM  H13A13227   6.298   1.419   9.311 -1.5873 -1.9790  1.1903
   9823SM  H13B13228   6.283   1.564   9.215 -3.6059  2.0660  0.6028
   9823SM  H13C13229   6.153   1.449   9.227 -1.1095  1.5427 -0.0517
   9823SM   C1213230   6.155   1.470   9.513 -0.0461 -0.1465  0.3297
   9823SM  H12A13231   6.256   1.442   9.538  1.2142  1.4152 -2.4891
   9823SM  H12B13232   6.095   1.390   9.472 -0.4914  0.8602 -1.0780
   9823SM   C1113233   6.080   1.503   9.643  0.3371 -0.2983  0.0179
   9823SM  H11A13234   6.111   1.596   9.695 -1.1579  0.1726  0.1139
   9823SM  H11B13235   6.103   1.422   9.715 -0.1706  1.0340  1.7391
   9823SM     P13236   5.847   1.378   9.609  0.2821  0.0646  0.1197
   9823SM   O1313237   5.728   1.421   9.527 -0.3246  0.2441  0.3944
   9823SM   O1413238   5.922   1.264   9.554 -0.1967 -0.0383  0.0207
   9823SM   O1113239   5.798   1.356   9.759 -0.3241  0.1501  0.8848
   9823SM   O1213240   5.941   1.505   9.620  0.1467  0.3430 -0.1722
   9823SM   C1S13241   5.775   1.466   9.847  0.1571 -0.2164  0.6830
   9823SM   H1S13242   5.675   1.512   9.835 -0.7109 -1.7974  1.5045
   9823SM   H1T13243   5.856   1.542   9.842  2.4097 -2.5090  0.3502
   9823SM    NF13244   5.683   1.512  10.072  0.2477  0.1752  0.2437
   9823SM   HNF13245   5.728   1.574  10.135  0.7584 -2.2621  2.4296
   9823SM   C2S13246   5.769   1.424   9.995  0.6446 -0.8521  0.1997
   9823SM   H2S13247   5.724   1.322   9.989  2.5892 -1.7231 -0.4922
   9823SM   C3S13248   5.908   1.396  10.058 -0.2379  0.1785  1.0261
   9823SM   H3S13249   5.961   1.490  10.082  0.0839  0.2523  0.0656
   9823SM    O313250   5.993   1.339   9.966 -0.3283  0.3082  0.1334
   9823SM   HO313251   5.945   1.327   9.884  0.6348  1.9700 -0.7195
   9823SM   C4S13252   5.906   1.312  10.180 -0.0061 -0.2150 -0.0859
   9823SM   H4S13253   5.929   1.376  10.266 -0.4721 -1.3385  0.9054
   9823SM   C5S13254   5.875   1.181  10.198 -0.6357  0.7166 -0.8426
   9823SM   H5S13255   5.853   1.112  10.114  1.8986 -1.2038 -0.0493
   9823SM   C6S13256   5.867   1.108  10.331  0.5047  0.6066 -0.0942
   9823SM   H6S13257   5.773   1.049  10.335  0.9612 -0.1342 -0.2069
   9823SM   H6T13258   5.869   1.181  10.415 -2.8969  0.7797 -0.0093
   9823SM   C7S13259   5.963   0.994  10.355 -0.4119 -0.1105  0.3323
   9823SM   H7S13260   6.063   1.036  10.330 -0.9422  2.0860  1.6313
   9823SM   H7T13261   5.948   0.916  10.277  4.5351 -0.9655 -0.1224
   9823SM   C8S13262   5.964   0.945  10.498 -0.4584 -0.1251 -0.2135
   9823SM   H8S13263   5.955   1.034  10.564 -0.0517 -0.1148 -0.1696
   9823SM   H8T13264   6.065   0.898  10.505 -0.0308  0.7309 -0.5299
   9823SM   C9S13265   5.842   0.854  10.531 -0.5251  0.1746 -0.2456
   9823SM   H9S13266   5.859   0.759  10.476  3.3225 -0.3729  1.5608
   9823SM   H9T13267   5.749   0.903  10.496  0.2966  0.9981 -1.3295
   9823SM  C10S13268   5.832   0.840  10.681 -0.1984  0.0359  0.5794
   9823SM  H10S13269   5.742   0.777  10.696  0.8299 -1.4963  0.4766
   9823SM  H10T13270   5.812   0.942  10.722 -2.1125  0.2511 -0.7795
   9823SM  C11S13271   5.957   0.783  10.752  0.1555  0.1877  0.0277
   9823SM  H11S13272   6.047   0.820  10.700  1.4472 -1.7999  0.7069
   9823SM  H11T13273   5.951   0.672  10.752  3.6036 -0.2123  3.0544
   9823SM  C12S13274   5.959   0.827  10.903 -0.6026  0.1313 -0.3347
   9823SM  H12S13275   5.964   0.938  10.905  2.3158  0.0882  0.8860
   9823SM  H12T13276   6.056   0.804  10.953 -1.2804  2.2469  2.1548
   9823SM  C13S13277   5.844   0.776  10.985 -0.1649  0.2562 -0.1237
   9823SM  H13S13278   5.823   0.668  10.971  0.0904  0.1937 -0.0303
   9823SM  H13T13279   5.755   0.827  10.942  0.7441 -1.0481 -3.9685
   9823SM  C14S13280   5.845   0.791  11.140 -0.4661 -0.7637 -0.0411
   9823SM  H14S13281   5.807   0.892  11.166 -0.2918 -1.2608  2.4629
   9823SM  H14T13282   5.951   0.783  11.173 -0.3627 -2.0894 -0.6468
   9823SM  C15S13283   5.767   0.683  11.213 -0.0329  0.0043 -0.4216
   9823SM  H15S13284   5.792   0.581  11.179  0.4672  0.5180 -1.6619
   9823SM  H15T13285   5.657   0.699  11.214 -0.2954 -0.9650 -3.5516
   9823SM  C16S13286   5.807   0.690  11.368 -0.4977 -0.2455  1.2180
   9823SM  H16S13287   5.802   0.794  11.406  0.6922 -0.7499  2.8662
   9823SM  H16T13288   5.913   0.659  11.371 -0.6108 -0.6282  1.4705
   9823SM  C17S13289   5.728   0.594  11.456 -0.5861  0.2583  0.6162
   9823SM  H17S13290   5.762   0.493  11.426  0.5724  0.5068  1.0362
   9823SM  H17T13291   5.618   0.597  11.442 -0.3653 -0.2342 -1.4746
   9823SM  C18S13292   5.759   0.607  11.598 -0.2127  0.1121  0.0207
   9823SM  H18S13293   5.738   0.708  11.640 -1.0185 -0.8599  2.1314
   9823SM  H18T13294   5.869   0.595  11.608 -0.1687  0.9818  0.7496
   9823SM  H18U13295   5.715   0.528  11.662  0.0973 -0.4688 -0.4814
   9823SM   C1F13296   5.550   1.522  10.057 -0.2775  0.1630  0.0032
   9823SM    OF13297   5.492   1.443   9.989 -0.5309  0.2023 -0.6090
   9823SM   C2F13298   5.485   1.631  10.145  0.5465  0.2241  0.7820
   9823SM   H2F13299   5.386   1.656  10.101  0.1773 -0.8727  0.9588
   9823SM   H2G13300   5.549   1.720  10.128  2.2051 -0.9868  0.4131
   9823SM   C3F13301   5.483   1.585  10.288  0.3527  0.4594 -1.1828
   9823SM   H3F13302   5.583   1.551  10.321  0.1370  0.5936 -0.3641
   9823SM   H3G13303   5.415   1.498  10.294 -0.5156  1.2164  0.5895
   9823SM   C4F13304   5.422   1.693  10.382  0.0960  0.4228  0.2431
   9823SM   H4F13305   5.330   1.720  10.327  0.0071 -0.6579 -0.1648
   9823SM   H4G13306   5.491   1.778  10.403  1.2326 -0.8309  1.9325
   9823SM   C5F13307   5.375   1.636  10.517 -0.7184  0.0995  0.2145
   9823SM   H5F13308   5.295   1.560  10.506 -0.2725 -0.6764  1.8765
   9823SM   H5G13309   5.334   1.717  10.581 -0.2139 -1.8577  3.2324
   9823SM   C6F13310   5.492   1.565  10.601  0.3936  0.1577 -0.1283
   9823SM   H6F13311   5.568   1.644  10.617  0.7398 -0.3767  0.9124
   9823SM   H6G13312   5.540   1.481  10.547  3.1971  1.6173 -0.0767
   9823SM   C7F13313   5.440   1.526  10.738 -0.7562 -0.4136  0.0723
   9823SM   H7F13314   5.372   1.440  10.727  1.1877 -1.7343 -3.0236
   9823SM   H7G13315   5.376   1.606  10.782 -1.2812  0.2057 -1.7372
   9823SM   C8F13316   5.561   1.477  10.824  0.3149 -0.0577  0.4120
   9823SM   H8F13317   5.628   1.558  10.861 -1.4115  1.4032  0.4876
   9823SM   H8G13318   5.612   1.398  10.765  0.8378  1.7309 -1.6478
   9823SM   C9F13319   5.515   1.411  10.954  0.4005  0.0792  0.4437
   9823SM   H9F13320   5.576   1.326  10.988  1.7369  1.6255  2.1160
   9823SM   H9G13321   5.410   1.375  10.945  0.5612 -0.2449 -0.2167
   9823SM  C10F13322   5.517   1.499  11.078  0.1558  0.8704  0.5497
   9823SM  H10F13323   5.441   1.579  11.061  1.0818  1.2025 -2.6230
   9823SM  H10G13324   5.620   1.536  11.094  0.9842 -1.2846  0.5632
   9823SM  C11F13325   5.479   1.422  11.203  0.3337 -0.2485  0.1855
   9823SM  H11F13326   5.537   1.327  11.209  1.0955  0.3129  2.7260
   9823SM  H11G13327   5.372   1.393  11.198  0.2967  0.0625 -1.3201
   9823SM  C12F13328   5.509   1.494  11.330 -0.0829 -0.6180 -0.0435
   9823SM  H12F13329   5.476   1.599  11.320  1.1301 -0.0626  1.5561
   9823SM  H12G13330   5.619   1.499  11.337 -0.1775 -0.4667  1.8998
   9823SM  C13F13331   5.441   1.435  11.455 -0.4262 -0.2048  0.3104
   9823SM  H13F13332   5.476   1.331  11.472  1.3965  0.4258  0.6191
   9823SM  H13G13333   5.332   1.429  11.437  0.0146 -1.2151 -2.5268
   9823SM  C14F13334   5.449   1.521  11.585 -0.5127 -0.4454  0.3886
   9823SM  H14F13335   5.402   1.620  11.567 -0.4103 -0.4248  0.2316
   9823SM  H14G13336   5.558   1.528  11.606 -0.5134 -1.0257  0.5955
   9823SM  C15F13337   5.385   1.443  11.706  0.0353 -0.8403  0.4740
   9823SM  H15F13338   5.423   1.341  11.731  2.5355  0.0390  0.6033
   9823SM  H15G13339   5.277   1.440  11.683 -0.1331 -1.2509  1.2866
   9823SM  C16F13340   5.384   1.530  11.837 -0.1127  0.0318  0.5619
   9823SM  H16F13341   5.324   1.489  11.921 -1.6239 -1.0369 -0.9770
   9823SM  H16G13342   5.349   1.632  11.813 -0.7157 -0.1234  0.7664
   9823SM  C17F13343   5.529   1.561  11.888  0.8727 -0.4206  0.4554
   9823SM  H17F13344   5.584   1.595  11.798  2.2444  0.4731  1.5910
   9823SM  H17G13345   5.565   1.462  11.923 -1.4117 -2.3842 -2.2303
   9823SM  C18F13346   5.531   1.670  11.998  0.0036  0.2058 -0.5218
   9823SM  H18F13347   5.550   1.617  12.093 -0.2843  0.3390 -0.3915
   9823SM  H18G13348   5.426   1.707  11.998 -0.1113 -0.1106 -1.0609
   9823SM  C19F13349   5.630   1.790  11.963 -0.2648  0.2510 -0.4024
   9823SM  H19F13350   5.597   1.848  11.875  1.2407  2.2151  0.2731
   9823SM  H19G13351   5.733   1.753  11.943 -0.3192  0.5021 -1.1744
   9823SM  C20F13352   5.642   1.893  12.075 -0.2976 -0.2953  0.0037
   9823SM  H20F13353   5.687   1.834  12.158  1.5623 -0.2541 -0.9268
   9823SM  H20G13354   5.544   1.938  12.102  1.0231  0.3726  4.6463
   9823SM  C21F13355   5.738   2.010  12.038  0.0608 -0.9680  0.0209
   9823SM  H21F13356   5.695   2.068  11.953 -0.8902  1.2409  1.8978
   9823SM  H21G13357   5.837   1.968  12.011 -0.4277 -0.8608 -2.1005
   9823SM  C22F13358   5.764   2.102  12.159  0.5535 -0.5563 -0.1959
   9823SM  H22F13359   5.663   2.102  12.206 -0.0375 -0.0642 -1.4286
   9823SM  H22G13360   5.802   2.202  12.127  0.3057 -0.8922 -1.5782
   9823SM  C23F13361   5.870   2.049  12.254  1.0401 -0.2863  0.6111
   9823SM  H23F13362   5.859   1.943  12.285 -0.6753 -0.6346 -1.0019
   9823SM  H23G13363   5.866   2.102  12.352 -1.6469  0.5142  0.1573
   9823SM  H23H13364   5.966   2.069  12.202  0.4702  1.1730  0.0610
   9923SM     N13365   0.158   2.473   9.607  0.2007 -0.8446 -0.4988
   9923SM   C1513366   0.251   2.356   9.607  0.4578 -0.1675  0.3224
   9923SM  H15A13367   0.293   2.349   9.508 -0.8774  2.6881 -0.5530
   9923SM  H15B13368   0.188   2.269   9.612  0.0813  0.1399  1.2254
   9923SM  H15C13369   0.327   2.363   9.683  0.3726 -0.3662  0.4281
   9923SM   C1413370   0.236   2.600   9.578 -0.0323 -0.4597  0.0227
   9923SM  H14A13371   0.322   2.612   9.642  0.0705  1.5795 -0.4436
   9923SM  H14B13372   0.178   2.690   9.591 -0.5239 -0.6728 -0.6503
   9923SM  H14C13373   0.277   2.596   9.479 -0.6622 -0.3957 -0.2420
   9923SM   C1313374   0.060   2.458   9.503 -1.1966 -0.2418  0.0526
   9923SM  H13A13375  -0.004   2.378   9.536  0.3140 -1.3665  0.3249
   9923SM  H13B13376   0.109   2.426   9.412 -1.5781  1.1200 -0.6573
   9923SM  H13C13377   0.001   2.546   9.479 -2.1192 -1.1962 -1.3414
   9923SM   C1213378   0.100   2.492   9.752  0.2747 -0.0737  0.3472
   9923SM  H12A13379   0.036   2.578   9.767 -0.6707 -0.8944  1.1705
   9923SM  H12B13380   0.190   2.507   9.811  0.7778  1.6043 -0.7678
   9923SM   C1113381   0.030   2.366   9.810 -0.3256  0.1823 -0.2749
   9923SM  H11A13382  -0.007   2.400   9.909  0.9378 -1.4387  0.8238
   9923SM  H11B13383   0.110   2.292   9.831  0.0488  0.6780  0.0526
   9923SM     P13384  -0.156   2.191   9.774 -0.2776  0.2718 -0.3603
   9923SM   O1313385  -0.278   2.192   9.694 -0.3364  0.6252 -0.4887
   9923SM   O1413386  -0.066   2.070   9.767  0.3254 -0.9381  0.1754
   9923SM   O1113387  -0.194   2.208   9.929 -0.0397 -0.3393 -0.1615
   9923SM   O1213388  -0.079   2.321   9.734  0.4091 -0.1632  0.5184
   9923SM   C1S13389  -0.284   2.317   9.971 -0.6580  0.2300  0.3348
   9923SM   H1S13390  -0.376   2.336   9.911 -1.2869 -0.4645  1.0671
   9923SM   H1T13391  -0.234   2.416   9.966 -1.5695  0.8072  1.8685
   9923SM    NF13392  -0.448   2.387  10.126 -0.8152 -0.1231  0.1933
   9923SM   HNF13393  -0.418   2.475  10.163  0.1142 -1.2755  2.3493
   9923SM   C2S13394  -0.344   2.291  10.103  0.6381 -0.2573 -0.5863
   9923SM   H2S13395  -0.393   2.192  10.109 -0.5272  0.3292 -0.3427
   9923SM   C3S13396  -0.222   2.293  10.214  0.9145  0.3075  0.5173
   9923SM   H3S13397  -0.164   2.384  10.190  0.6398 -0.1732 -2.2634
   9923SM    O313398  -0.135   2.176  10.198 -0.2000 -0.8369 -0.0045
   9923SM   HO313399  -0.138   2.158  10.104 -0.9692 -0.5638 -0.0377
   9923SM   C4S13400  -0.273   2.293  10.354 -0.1689 -0.1725  0.3222
   9923SM   H4S13401  -0.274   2.189  10.392 -0.1257  0.1524  1.2361
   9923SM   C5S13402  -0.287   2.399  10.441 -0.0501  0.4110  0.2963
   9923SM   H5S13403  -0.256   2.503  10.427  0.8987 -0.1223 -1.9819
   9923SM   C6S13404  -0.344   2.373  10.579  0.0723 -0.4580 -0.5175
   9923SM   H6S13405  -0.292   2.291  10.632  2.5107  1.0840 -0.3773
   9923SM   H6T13406  -0.449   2.343  10.557  0.2597  1.0274 -4.2733
   9923SM   C7S13407  -0.342   2.495  10.675  0.1532  0.1461  0.5517
   9923SM   H7S13408  -0.410   2.569  10.628  1.0830 -0.8888 -2.6788
   9923SM   H7T13409  -0.246   2.552  10.676 -0.4573  1.2172 -0.1139
   9923SM   C8S13410  -0.374   2.453  10.814 -0.4016  0.1322  0.4117
   9923SM   H8S13411  -0.290   2.382  10.833 -0.6763 -0.9267 -1.9376
   9923SM   H8T13412  -0.465   2.392  10.830  0.1758 -0.7613  0.3736
   9923SM   C9S13413  -0.372   2.563  10.917 -0.3588 -0.4962  0.0466
   9923SM   H9S13414  -0.478   2.595  10.926 -0.6064 -0.8939 -1.3352
   9923SM   H9T13415  -0.315   2.655  10.889 -0.5896 -0.0110  1.1141
   9923SM  C10S13416  -0.306   2.521  11.055  0.2126  0.4228 -0.5878
   9923SM  H10S13417  -0.199   2.512  11.025 -0.0370 -3.0294 -0.7756
   9923SM  H10T13418  -0.342   2.419  11.079  0.2159  0.5028 -0.2483
   9923SM  C11S13419  -0.335   2.614  11.176  0.2998 -0.3677 -0.0254
   9923SM  H11S13420  -0.321   2.721  11.146  0.6847 -0.7031 -1.1020
   9923SM  H11T13421  -0.266   2.600  11.261  0.6827 -0.3375 -0.3267
   9923SM  C12S13422  -0.482   2.605  11.229 -0.3762 -0.0224 -0.3627
   9923SM  H12S13423  -0.548   2.612  11.140  0.7104 -0.9567 -1.2817
   9923SM  H12T13424  -0.503   2.687  11.300 -0.5287  1.2730 -1.8478
   9923SM  C13S13425  -0.516   2.480  11.305 -0.1055  0.6202 -0.5941
   9923SM  H13S13426  -0.519   2.393  11.236 -1.4067 -0.2189  0.4707
   9923SM  H13T13427  -0.619   2.482  11.346 -0.9037  1.1648 -2.5125
   9923SM  C14S13428  -0.430   2.463  11.430 -0.0268  0.7607  0.0792
   9923SM  H14S13429  -0.324   2.460  11.396  0.9964 -1.1757  3.0684
   9923SM  H14T13430  -0.458   2.367  11.477 -0.1745  1.5325  1.6110
   9923SM  C15S13431  -0.434   2.565  11.540 -0.4203 -0.3761  0.2868
   9923SM  H15S13432  -0.530   2.553  11.594 -0.0680  1.9813  1.5691
   9923SM  H15T13433  -0.438   2.660  11.483 -3.8750 -1.0181 -0.7829
   9923SM  C16S13434  -0.309   2.560  11.624 -0.3417  0.3724 -0.4727
   9923SM  H16S13435  -0.216   2.585  11.568  1.5398 -1.7922  1.4843
   9923SM  H16T13436  -0.287   2.457  11.658  0.9207  0.5179 -0.8033
   9923SM  C17S13437  -0.326   2.665  11.741  0.3554  0.4235 -0.2669
   9923SM  H17S13438  -0.345   2.764  11.696 -1.8877  0.6571  1.0521
   9923SM  H17T13439  -0.229   2.678  11.795  0.7063  1.7049 -1.1579
   9923SM  C18S13440  -0.435   2.613  11.841  0.1362 -0.8125  0.3672
   9923SM  H18S13441  -0.447   2.695  11.914 -0.4684  0.7246 -1.3745
   9923SM  H18T13442  -0.396   2.520  11.887  0.2956 -1.2262 -0.5627
   9923SM  H18U13443  -0.532   2.608  11.787 -0.7379  2.7353  1.3506
   9923SM   C1F13444  -0.570   2.375  10.070  0.3822 -0.7374 -0.0032
   9923SM    OF13445  -0.595   2.280   9.996 -0.1778  0.0668 -0.5038
   9923SM   C2F13446  -0.669   2.486  10.104 -0.6876 -0.0877 -0.2651
   9923SM   H2F13447  -0.740   2.491  10.019 -0.5893 -1.2986 -0.4492
   9923SM   H2G13448  -0.624   2.587  10.096 -3.2391  0.9700 -2.5150
   9923SM   C3F13449  -0.735   2.461  10.239 -0.2940 -0.2264 -0.7143
   9923SM   H3F13450  -0.663   2.444  10.322  0.5009 -1.1148 -1.5616
   9923SM   H3G13451  -0.796   2.369  10.234 -0.2512 -0.2066 -1.7937
   9923SM   C4F13452  -0.830   2.575  10.282  1.0590  0.4430 -0.3207
   9923SM   H4F13453  -0.912   2.575  10.207  1.3903  3.6881 -0.8499
   9923SM   H4G13454  -0.787   2.677  10.285  2.3684 -0.0957  0.0763
   9923SM   C5F13455  -0.884   2.543  10.422  0.8876  0.7124 -0.6159
   9923SM   H5F13456  -0.899   2.433  10.436  1.2177  0.6487 -0.7504
   9923SM   H5G13457  -0.979   2.598  10.435  0.7325  0.4077 -0.4435
   9923SM   C6F13458  -0.785   2.599  10.527  0.4119  0.0989  0.5286
   9923SM   H6F13459  -0.755   2.700  10.490 -2.6867  0.7110 -0.6242
   9923SM   H6G13460  -0.692   2.542  10.550  0.2407 -0.6548 -0.5849
   9923SM   C7F13461  -0.848   2.618  10.666  0.0999 -0.1952  0.4748
   9923SM   H7F13462  -0.913   2.530  10.682  0.1676 -0.8139 -2.1530
   9923SM   H7G13463  -0.922   2.701  10.656 -2.0938 -1.7841  2.3926
   9923SM   C8F13464  -0.743   2.644  10.770 -1.2817 -0.4860  0.3625
   9923SM   H8F13465  -0.698   2.740  10.739 -0.6867 -1.1992 -1.0689
   9923SM   H8G13466  -0.666   2.565  10.755 -0.4452  0.0514  1.6014
   9923SM   C9F13467  -0.790   2.649  10.916  0.5341  0.3480 -0.0246
   9923SM   H9F13468  -0.702   2.675  10.978  1.5626 -0.2492 -1.1905
   9923SM   H9G13469  -0.815   2.542  10.932  1.4198 -0.1460 -1.6864
   9923SM  C10F13470  -0.903   2.755  10.947  0.2350  0.5206 -0.2907
   9923SM  H10F13471  -0.989   2.749  10.877  0.7212  1.0066 -0.9502
   9923SM  H10G13472  -0.868   2.859  10.935 -0.4654  0.7485 -0.3547
   9923SM  C11F13473  -0.958   2.733  11.091 -0.0679 -0.6419  0.0042
   9923SM  H11F13474  -1.011   2.636  11.084  2.3763 -2.1021  0.6859
   9923SM  H11G13475  -1.032   2.810  11.123  0.9009  0.0367  0.6873
   9923SM  C12F13476  -0.854   2.724  11.202 -0.9775  0.1155  0.7104
   9923SM  H12F13477  -0.774   2.799  11.184  1.2327 -2.3948 -0.7661
   9923SM  H12G13478  -0.799   2.628  11.192  0.8104  0.8694  2.6367
   9923SM  C13F13479  -0.914   2.733  11.340  0.8141 -0.1425  0.1014
   9923SM  H13F13480  -1.000   2.663  11.349  1.2363 -1.0319 -2.0547
   9923SM  H13G13481  -0.967   2.831  11.338 -1.2622 -1.2195 -0.9869
   9923SM  C14F13482  -0.812   2.707  11.455 -0.4930 -0.1122 -0.0078
   9923SM  H14F13483  -0.727   2.775  11.432 -1.3833  1.7840  1.9401
   9923SM  H14G13484  -0.776   2.602  11.447 -1.7623 -0.6572  1.0153
   9923SM  C15F13485  -0.877   2.752  11.590  1.1150  0.4539 -0.0734
   9923SM  H15F13486  -0.971   2.692  11.596  0.3879  1.6659  1.5676
   9923SM  H15G13487  -0.901   2.860  11.601  0.9051  0.3464  0.6034
   9923SM  C16F13488  -0.783   2.725  11.711 -0.0687  0.2328 -0.0824
   9923SM  H16F13489  -0.693   2.786  11.689 -0.8773  1.9079  1.0302
   9923SM  H16G13490  -0.749   2.622  11.735  0.3124  0.3113 -0.2808
   9923SM  C17F13491  -0.847   2.767  11.845  0.3052  0.0128  0.0744
   9923SM  H17F13492  -0.946   2.717  11.855 -0.7619  1.8233 -0.8541
   9923SM  H17G13493  -0.869   2.876  11.834  0.0987 -0.0099  0.2509
   9923SM  C18F13494  -0.762   2.734  11.967 -0.0876  0.3339  0.7571
   9923SM  H18F13495  -0.658   2.767  11.947  0.2871 -2.2244 -2.2914
   9923SM  H18G13496  -0.747   2.624  11.971  0.6680  0.4453  1.0903
   9923SM  C19F13497  -0.818   2.786  12.101 -0.4566 -0.5908 -0.8744
   9923SM  H19F13498  -0.919   2.749  12.127 -0.3781 -0.1535  0.0908
   9923SM  H19G13499  -0.814   2.897  12.102  0.6136 -0.5932  1.1135
   9923SM  C20F13500  -0.726   2.746  12.220 -0.4598  0.0819  0.5019
   9923SM  H20F13501  -0.755   2.804  12.311  1.1242  0.1199  1.0250
   9923SM  H20G13502  -0.624   2.780  12.194 -1.2265  1.8298 -0.3888
   9923SM  C21F13503  -0.725   2.597  12.263 -0.2947 -0.0264  0.7230
   9923SM  H21F13504  -0.648   2.571  12.339  0.8475 -1.6271 -0.9110
   9923SM  H21G13505  -0.684   2.538  12.178 -1.2709 -1.7738  1.4312
   9923SM  C22F13506  -0.860   2.544  12.299  0.0868 -0.8033  0.2192
   9923SM  H22F13507  -0.940   2.558  12.223  1.0920  3.1614 -0.3276
   9923SM  H22G13508  -0.881   2.614  12.383  1.8539  0.9152 -0.7055
   9923SM  C23F13509  -0.852   2.401  12.349 -0.1525 -0.2555  0.7240
   9923SM  H23F13510  -0.893   2.334  12.270  0.5696  0.1407  0.0057
   9923SM  H23G13511  -0.915   2.373  12.436 -1.8808  0.3821 -0.2752
   9923SM  H23H13512  -0.747   2.378  12.375  0.3174  1.3223  0.2894
  10023SM     N13513   6.476   3.342   9.635  0.2215  0.2029  0.4984
  10023SM   C1513514   6.383   3.455   9.668 -0.3568 -0.3877 -0.1873
  10023SM  H15A13515   6.438   3.542   9.701  0.5222 -0.6763 -0.8506
  10023SM  H15B13516   6.311   3.428   9.744  0.8032  0.0413  1.1072
  10023SM  H15C13517   6.336   3.492   9.578 -0.2720 -0.2652 -0.1823
  10023SM   C1413518   6.401   3.227   9.583  1.1086  0.6826 -0.2484
  10023SM  H14A13519   6.337   3.259   9.502  1.3032  2.0493  0.1070
  10023SM  H14B13520   6.334   3.192   9.660  0.8654 -2.3316 -1.6786
  10023SM  H14C13521   6.460   3.141   9.554 -1.7884 -1.3304 -0.6008
  10023SM   C1313522   6.572   3.389   9.529 -0.1668  0.4560 -0.0954
  10023SM  H13A13523   6.522   3.419   9.438  0.1435  3.9099  0.7519
  10023SM  H13B13524   6.634   3.305   9.500 -0.2828 -0.5126  2.2265
  10023SM  H13C13525   6.644   3.464   9.555  2.4910 -0.7819 -3.1679
  10023SM   C1213526   6.565   3.313   9.752  0.0670  0.0656  0.2439
  10023SM  H12A13527   6.632   3.397   9.763 -0.3881  1.1937 -3.9310
  10023SM  H12B13528   6.615   3.221   9.724  0.1860  0.3802 -0.5915
  10023SM   C1113529   6.493   3.293   9.887 -0.6800 -0.3917  0.2448
  10023SM  H11A13530   6.429   3.379   9.919 -3.6495 -2.7334  1.0597
  10023SM  H11B13531   6.573   3.293   9.965 -0.1772  0.7183 -0.2533
  10023SM     P13532   6.503   3.034   9.906 -0.3624 -0.0828  0.1235
  10023SM   O1313533   6.403   2.926   9.905 -0.2270  0.5016 -0.0409
  10023SM   O1413534   6.618   3.019   9.812 -0.4254  0.2173  0.7096
  10023SM   O1113535   6.549   3.054  10.051  0.5108  0.1418 -0.2520
  10023SM   O1213536   6.418   3.166   9.875  0.3393 -0.7844 -0.0994
  10023SM   C1S13537   6.461   3.101  10.157 -0.1935  0.0196  0.2717
  10023SM   H1S13538   6.355   3.069  10.144 -0.4077  1.0301 -0.6324
  10023SM   H1T13539   6.453   3.212  10.161  0.8327  0.0798  1.0634
  10023SM    NF13540   6.409   3.056  10.384 -0.0222  0.2754  0.2474
  10023SM   HNF13541   6.411   3.137  10.442 -2.8980  1.0925 -0.6108
  10023SM   C2S13542   6.512   3.041  10.287  0.0851 -0.1580  0.4523
  10023SM   H2S13543   6.523   2.933  10.263  2.0981  0.2825 -0.8202
  10023SM   C3S13544   6.655   3.101  10.333  0.3194  0.2169 -0.1178
  10023SM   H3S13545   6.647   3.210  10.354  1.8638 -0.0183  2.0512
  10023SM    O313546   6.745   3.083  10.229 -1.0669 -0.3613 -0.1241
  10023SM   HO313547   6.692   3.055  10.154 -2.2150  1.1075  0.0998
  10023SM   C4S13548   6.704   3.037  10.466 -0.3721 -0.2500 -0.2500
  10023SM   H4S13549   6.668   3.097  10.552 -2.5385 -0.5212 -0.8970
  10023SM   C5S13550   6.785   2.931  10.487  0.2363  0.4717  0.4753
  10023SM   H5S13551   6.805   2.873  10.396 -0.9775 -2.4219  1.9339
  10023SM   C6S13552   6.832   2.872  10.615  0.3001  0.4184 -0.4056
  10023SM   H6S13553   6.940   2.896  10.622 -0.1115  2.5049 -0.4142
  10023SM   H6T13554   6.812   2.763  10.616  1.1595  0.2642  0.6588
  10023SM   C7S13555   6.758   2.921  10.741 -0.0516  0.0199 -0.4061
  10023SM   H7S13556   6.647   2.920  10.741 -0.2020  3.4497  0.6368
  10023SM   H7T13557   6.778   3.029  10.755  2.1681 -0.4118  0.2390
  10023SM   C8S13558   6.819   2.848  10.866 -0.1604  0.4077  0.4862
  10023SM   H8S13559   6.927   2.832  10.844  0.2358 -0.2461  2.6850
  10023SM   H8T13560   6.785   2.742  10.867  1.9209 -0.3184 -0.3576
  10023SM   C9S13561   6.801   2.906  11.006  0.9712 -0.1615  0.9686
  10023SM   H9S13562   6.698   2.947  11.005  0.9004  0.2524 -4.3262
  10023SM   H9T13563   6.872   2.990  11.015  0.4621  0.1138  2.5822
  10023SM  C10S13564   6.828   2.808  11.118  0.1990  0.3197 -0.5608
  10023SM  H10S13565   6.926   2.762  11.095 -0.5968 -3.3473  2.3726
  10023SM  H10T13566   6.756   2.723  11.116  1.5817 -0.8656 -1.3742
  10023SM  C11S13567   6.840   2.864  11.248  0.0556  0.2023 -1.0443
  10023SM  H11S13568   6.740   2.900  11.281 -0.1197 -0.5297 -0.7530
  10023SM  H11T13569   6.911   2.948  11.257  2.1017 -1.6479  2.1124
  10023SM  C12S13570   6.893   2.758  11.342  0.5468  0.3806 -0.0246
  10023SM  H12S13571   6.983   2.717  11.292 -1.0405  1.6185 -4.3497
  10023SM  H12T13572   6.813   2.680  11.334 -0.5778  1.5526 -0.6773
  10023SM  C13S13573   6.914   2.796  11.490 -0.2368 -0.0289 -0.3428
  10023SM  H13S13574   6.995   2.872  11.497  0.9874 -1.4320  2.1690
  10023SM  H13T13575   6.964   2.709  11.537  1.2194  0.3623 -1.0816
  10023SM  C14S13576   6.795   2.847  11.577  0.7072  0.4954 -1.0414
  10023SM  H14S13577   6.709   2.777  11.570  1.1532 -0.3118  0.8670
  10023SM  H14T13578   6.757   2.944  11.538 -1.9791  0.3375  0.9111
  10023SM  C15S13579   6.809   2.873  11.731  0.0427 -0.5589  0.8958
  10023SM  H15S13580   6.840   2.781  11.786  0.6179 -0.8726  0.0777
  10023SM  H15T13581   6.714   2.913  11.771  0.3759 -0.9648  2.1395
  10023SM  C16S13582   6.911   2.982  11.747  0.1566  0.2299  0.0300
  10023SM  H16S13583   6.890   3.066  11.678 -2.3163 -1.7564 -1.8412
  10023SM  H16T13584   7.009   2.940  11.714  0.5995  0.2507  1.2744
  10023SM  C17S13585   6.907   3.017  11.892 -0.1161 -0.0303 -1.1505
  10023SM  H17S13586   6.919   2.927  11.956 -0.9293 -2.9625 -4.8009
  10023SM  H17T13587   6.809   3.067  11.910  0.0811  0.0458 -0.2504
  10023SM  C18S13588   7.020   3.118  11.941  1.0934  0.5371 -0.0988
  10023SM  H18S13589   7.127   3.091  11.923  2.5726  5.9152 -1.1053
  10023SM  H18T13590   7.013   3.143  12.049  0.4531  1.6278 -0.3763
  10023SM  H18U13591   6.999   3.211  11.883 -1.3809 -0.3117 -0.6883
  10023SM   C1F13592   6.301   2.983  10.387 -0.0615 -0.1214  0.2017
  10023SM    OF13593   6.300   2.883  10.317 -0.2291  0.3079 -0.6306
  10023SM   C2F13594   6.180   3.035  10.463 -0.3460  0.2295  0.0937
  10023SM   H2F13595   6.090   3.044  10.399 -0.8453 -0.0986  0.7352
  10023SM   H2G13596   6.212   3.139  10.489  0.3460  0.7194 -2.4238
  10023SM   C3F13597   6.175   2.959  10.597 -0.2928 -0.7460 -0.2067
  10023SM   H3F13598   6.150   2.855  10.566 -1.2951 -1.0581  1.5151
  10023SM   H3G13599   6.090   2.989  10.662 -2.0609  0.3210 -2.8461
  10023SM   C4F13600   6.297   2.981  10.691 -0.5533 -0.3030 -0.0444
  10023SM   H4F13601   6.326   3.088  10.680 -0.8766 -0.3847 -1.9185
  10023SM   H4G13602   6.385   2.915  10.672  2.2004  2.1800  2.8611
  10023SM   C5F13603   6.260   2.954  10.836 -0.0797  0.0226  0.0694
  10023SM   H5F13604   6.245   2.847  10.863 -2.4015  0.5034  0.8640
  10023SM   H5G13605   6.164   3.005  10.855 -0.6580 -0.5414 -1.1865
  10023SM   C6F13606   6.365   3.016  10.937 -0.3836  0.2326  0.3391
  10023SM   H6F13607   6.385   3.124  10.918  2.2494 -0.6773 -3.0709
  10023SM   H6G13608   6.460   2.960  10.923 -1.1600 -1.2673  0.8514
  10023SM   C7F13609   6.320   3.002  11.084  0.1056 -0.7687  0.2569
  10023SM   H7F13610   6.282   2.899  11.104  1.8064 -1.4730 -0.0057
  10023SM   H7G13611   6.230   3.064  11.105 -0.7245 -1.7434 -0.3189
  10023SM   C8F13612   6.423   3.033  11.189 -0.0949  0.0497 -0.0301
  10023SM   H8F13613   6.438   3.143  11.190  0.9260 -0.0163  3.1292
  10023SM   H8G13614   6.521   2.985  11.167 -0.3024 -0.2594 -0.2647
  10023SM   C9F13615   6.379   2.990  11.327  0.8069  0.3555 -0.3302
  10023SM   H9F13616   6.393   2.881  11.344  0.8670 -0.0700 -2.7238
  10023SM   H9G13617   6.270   3.009  11.324  0.9811  1.5155  0.1747
  10023SM  C10F13618   6.443   3.078  11.434  0.3971  0.5697  0.0118
  10023SM  H10F13619   6.416   3.184  11.412 -0.9335 -0.0913 -1.7409
  10023SM  H10G13620   6.554   3.078  11.429  0.4777  1.9226  1.1787
  10023SM  C11F13621   6.408   3.047  11.577 -0.4551 -0.4641 -0.6713
  10023SM  H11F13622   6.452   2.953  11.617  1.0187  0.3159 -0.3672
  10023SM  H11G13623   6.298   3.036  11.576 -0.4753 -0.3293 -0.0174
  10023SM  C12F13624   6.462   3.162  11.662 -0.1888  0.2929 -0.2490
  10023SM  H12F13625   6.427   3.264  11.633 -1.0177  0.1948  0.3664
  10023SM  H12G13626   6.572   3.151  11.669 -0.2211  0.5405  0.9732
  10023SM  C13F13627   6.390   3.158  11.800  0.6413 -0.0301 -0.3911
  10023SM  H13F13628   6.285   3.131  11.772  0.3106 -0.1974  0.9162
  10023SM  H13G13629   6.400   3.251  11.861 -2.1581  0.8368 -1.0862
  10023SM  C14F13630   6.429   3.048  11.897  0.1573 -0.4161 -0.3400
  10023SM  H14F13631   6.540   3.038  11.900  0.2405  0.5540  0.7544
  10023SM  H14G13632   6.386   2.953  11.860  0.4936  0.0153 -1.9280
  10023SM  C15F13633   6.392   3.079  12.040 -0.0545 -0.2894  0.1154
  10023SM  H15F13634   6.284   3.105  12.046 -0.4223 -1.3781 -1.1487
  10023SM  H15G13635   6.456   3.161  12.076  0.6519 -1.0760  0.6698
  10023SM  C16F13636   6.407   2.962  12.135  0.0226 -0.4846  0.5785
  10023SM  H16F13637   6.339   2.880  12.104  1.0123 -0.3762 -2.0884
  10023SM  H16G13638   6.388   2.989  12.241 -1.2958  0.1804  0.1971
  10023SM  C17F13639   6.553   2.900  12.124 -0.2601 -0.2885  0.0105
  10023SM  H17F13640   6.626   2.982  12.141 -1.6307  0.7636  1.1106
  10023SM  H17G13641   6.575   2.862  12.022  0.8656  1.1705 -0.3296
  10023SM  C18F13642   6.587   2.792  12.231 -0.0481  0.5292 -0.0698
  10023SM  H18F13643   6.502   2.724  12.251 -0.5737  1.5418  1.3612
  10023SM  H18G13644   6.616   2.845  12.324 -1.6460 -0.8287  1.2485
  10023SM  C19F13645   6.713   2.702  12.191  0.4841 -0.0891 -0.0034
  10023SM  H19F13646   6.751   2.656  12.285 -0.2357  1.5563  1.1408
  10023SM  H19G13647   6.785   2.780  12.158  0.7431 -0.2835  0.0966
  10023SM  C20F13648   6.696   2.586  12.095  0.3342 -0.2423  0.2571
  10023SM  H20F13649   6.619   2.601  12.016 -1.4862 -0.3503  1.9181
  10023SM  H20G13650   6.668   2.488  12.139 -2.7949  0.3290 -0.1889
  10023SM  C21F13651   6.829   2.574  12.017 -0.1821 -0.0016  0.0968
  10023SM  H21F13652   6.908   2.546  12.090 -1.3351 -0.3546  1.2527
  10023SM  H21G13653   6.855   2.674  11.976 -0.0104  0.2185  0.7244
  10023SM  C22F13654   6.810   2.460  11.910  0.0665  0.0380 -0.3863
  10023SM  H22F13655   6.727   2.495  11.844  0.2419 -0.9939 -1.1814
  10023SM  H22G13656   6.776   2.365  11.957  0.8423 -0.0357  0.0395
  10023SM  C23F13657   6.922   2.447  11.810 -0.3850  0.1731 -0.2255
  10023SM  H23F13658   7.018   2.416  11.857 -1.1818  0.1738  1.4724
  10023SM  H23G13659   6.935   2.547  11.763  0.5213  0.3392  0.3462
  10023SM  H23H13660   6.897   2.379  11.726 -1.3155  0.4339 -0.1735
  101CHL1    C313661   2.846   6.132  13.929  0.0896 -0.2135  0.0781
  101CHL1    H313662   2.933   6.198  13.907  0.7082 -0.4899  1.5663
  101CHL1    O313663   2.847   6.128  14.072  0.3847 -0.3591 -0.9641
  101CHL1   H3'13664   2.772   6.071  14.093 -0.5527  1.2882  0.4506
  101CHL1    C413665   2.716   6.191  13.876 -0.4905  0.3318  0.0592
  101CHL1   H4A13666   2.630   6.131  13.914 -0.1059  0.4440  1.1468
  101CHL1   H4B13667   2.711   6.291  13.924  0.2965  0.7174 -0.6368
  101CHL1    C513668   2.713   6.195  13.722  0.6315 -0.1185 -0.5336
  101CHL1    C613669   2.688   6.316  13.663 -0.3678  0.9583  0.4829
  101CHL1    H613670   2.668   6.407  13.722 -0.2019 -0.0325  2.1354
  101CHL1    C713671   2.668   6.318  13.517  0.2170 -0.5398 -0.1386
  101CHL1   H7A13672   2.605   6.403  13.482 -0.4285 -1.3241 -0.9189
  101CHL1   H7B13673   2.772   6.341  13.484 -0.4755 -0.3719 -2.4195
  101CHL1    C813674   2.651   6.183  13.437 -0.3704  0.3291 -0.1781
  101CHL1    H813675   2.545   6.149  13.443 -0.5979  0.8760 -0.9838
  101CHL1   C1413676   2.700   6.197  13.293 -0.7063  0.3116 -0.3059
  101CHL1   H1413677   2.802   6.240  13.304 -1.0313  1.2169 -0.7462
  101CHL1   C1513678   2.623   6.296  13.208  0.6158 -0.8418 -0.2507
  101CHL1  H15A13679   2.513   6.286  13.221  0.1547  0.7608 -2.3023
  101CHL1  H15B13680   2.648   6.402  13.231  1.4841 -1.2065  0.5638
  101CHL1   C1613681   2.646   6.257  13.062  0.0551  0.1530 -0.3224
  101CHL1  H16A13682   2.544   6.237  13.022 -0.5953  1.1034  0.7881
  101CHL1  H16B13683   2.686   6.344  13.004 -0.6954 -0.2096 -1.4107
  101CHL1   C1713684   2.725   6.130  13.065  0.3450  0.5229 -0.1346
  101CHL1   H1713685   2.832   6.157  13.061  0.6722 -0.6627  0.1774
  101CHL1   C1313686   2.704   6.073  13.201  0.5733  0.2395 -0.8488
  101CHL1   C1813687   2.563   6.010  13.196 -0.2946 -0.5639  0.6246
  101CHL1  H18A13688   2.561   5.906  13.158 -1.5295 -1.2086  2.3213
  101CHL1  H18B13689   2.519   5.997  13.297 -2.1036 -0.6534 -0.1248
  101CHL1  H18C13690   2.487   6.069  13.141 -0.9947 -0.7314  1.3969
  101CHL1   C1213691   2.803   5.981  13.264  0.9625  0.5817  0.2343
  101CHL1  H12A13692   2.805   5.885  13.209 -3.4280 -0.4481  1.4762
  101CHL1  H12B13693   2.901   6.032  13.247  1.7130 -0.2148  1.8789
  101CHL1   C1113694   2.763   5.949  13.419 -0.5242 -0.5243  0.5205
  101CHL1  H11A13695   2.667   5.894  13.413 -0.5895 -0.2985 -1.6621
  101CHL1  H11B13696   2.845   5.886  13.458  0.4223  0.1556 -0.3247
  101CHL1    C913697   2.748   6.080  13.501 -0.9293  0.4569 -0.5629
  101CHL1    H913698   2.847   6.129  13.493 -0.7874 -0.0429 -2.1131
  101CHL1   C1013699   2.736   6.058  13.657 -1.0362 -0.4964  0.6685
  101CHL1   C1913700   2.616   5.964  13.683 -0.1574  0.4075  0.1001
  101CHL1  H19A13701   2.590   5.963  13.791  2.3911  0.3008  0.7750
  101CHL1  H19B13702   2.525   5.996  13.627  0.7137  1.1451 -0.9275
  101CHL1  H19C13703   2.651   5.865  13.648  1.1445  0.7885  0.2484
  101CHL1    C113704   2.859   5.996  13.723  0.1436  0.1631  0.4517
  101CHL1   H1A13705   2.875   5.895  13.679 -0.2673  0.2302  0.1331
  101CHL1   H1B13706   2.945   6.058  13.688  0.3177  0.0153  0.6224
  101CHL1    C213707   2.870   5.994  13.877 -0.1726  0.3600 -0.1318
  101CHL1   H2A13708   2.971   5.963  13.912 -0.1706 -0.9048 -1.2123
  101CHL1   H2B13709   2.799   5.917  13.914 -0.8880  0.5940 -0.9821
  101CHL1   C2013710   2.703   6.041  12.940 -0.2857  0.5799  0.1558
  101CHL1   H2013711   2.596   6.012  12.929 -0.0639 -1.5481  2.6766
  101CHL1   C2113712   2.776   5.902  12.950  1.2627  0.5467 -0.0019
  101CHL1  H21A13713   2.730   5.842  13.032  1.3344 -1.8540 -1.6168
  101CHL1  H21B13714   2.877   5.925  12.990  0.6511  0.9853  1.3737
  101CHL1  H21C13715   2.787   5.842  12.858  1.3538  0.6462 -0.0568
  101CHL1   C2213716   2.754   6.125  12.824  0.1347 -0.0440  0.4640
  101CHL1  H22A13717   2.709   6.225  12.804 -0.0289  0.2278  2.0710
  101CHL1  H22B13718   2.859   6.158  12.838  0.5440 -1.2420  0.3062
  101CHL1   C2313719   2.739   6.052  12.686 -0.0661 -0.0762  0.1963
  101CHL1  H23A13720   2.798   5.958  12.697 -0.3413 -0.2436  0.2555
  101CHL1  H23B13721   2.632   6.024  12.678 -0.0993 -0.2269  1.0457
  101CHL1   C2413722   2.796   6.133  12.560  0.0420  0.5861  0.0180
  101CHL1  H24A13723   2.753   6.235  12.553  1.5052  1.1474 -1.0892
  101CHL1  H24B13724   2.900   6.151  12.594  0.7093 -1.0620 -1.0262
  101CHL1   C2513725   2.805   6.050  12.428  0.5386 -0.0064  0.3556
  101CHL1   H2513726   2.848   5.953  12.460 -0.0716 -0.1283  0.8298
  101CHL1   C2613727   2.661   6.032  12.375  1.0255 -0.0136  0.9335
  101CHL1  H26A13728   2.584   6.004  12.451 -0.5869 -0.3860 -0.7489
  101CHL1  H26B13729   2.618   6.120  12.322  2.3500 -0.1341 -0.3921
  101CHL1  H26C13730   2.664   5.948  12.303 -4.2482  2.1031 -2.3746
  101CHL1   C2713731   2.899   6.119  12.333  0.4886 -0.3654  0.8063
  101CHL1  H27A13732   3.006   6.127  12.364  0.9169  0.4430 -0.7720
  101CHL1  H27B13733   2.908   6.060  12.240  0.6706 -1.3987  1.4599
  101CHL1  H27C13734   2.859   6.216  12.297  0.5762 -0.4831  0.3847
  102CHL1    C313735   1.484   6.713  14.016  0.3885 -0.0704 -0.0912
  102CHL1    H313736   1.501   6.822  14.003  0.2260 -0.0640 -0.2474
  102CHL1    O313737   1.472   6.674  14.151  0.0510  0.2600 -0.1638
  102CHL1   H3'13738   1.386   6.707  14.179 -1.2545 -2.1130 -1.0722
  102CHL1    C413739   1.345   6.684  13.951  0.1895 -0.0325  0.3770
  102CHL1   H4A13740   1.320   6.577  13.968  0.3819 -0.6757 -2.7795
  102CHL1   H4B13741   1.262   6.736  14.002  0.7952 -0.5704  1.9621
  102CHL1    C513742   1.365   6.723  13.799 -0.1985  0.1442  0.3036
  102CHL1    C613743   1.290   6.826  13.746 -0.0523 -0.6014  0.4655
  102CHL1    H613744   1.209   6.877  13.801  0.4234 -0.7434  1.3148
  102CHL1    C713745   1.305   6.863  13.603  0.0492  1.1952 -0.4843
  102CHL1   H7A13746   1.211   6.889  13.550 -0.5499  1.8796  0.8817
  102CHL1   H7B13747   1.373   6.951  13.601  4.6108 -1.9826 -0.6221
  102CHL1    C813748   1.365   6.743  13.513  0.0159 -0.3373  0.3923
  102CHL1    H813749   1.288   6.663  13.505  0.4051 -0.5990 -1.1278
  102CHL1   C1413750   1.387   6.789  13.368  0.0203 -0.0074  0.2132
  102CHL1   H1413751   1.471   6.860  13.384  1.5496 -1.8639  0.7859
  102CHL1   C1513752   1.279   6.865  13.292  0.1779  0.7579 -0.3051
  102CHL1  H15A13753   1.186   6.815  13.327 -1.2670  2.5560 -1.3679
  102CHL1  H15B13754   1.282   6.974  13.315 -0.7327  0.6580  0.3681
  102CHL1   C1613755   1.305   6.846  13.142 -0.3873 -0.4539  0.1666
  102CHL1  H16A13756   1.238   6.774  13.090 -1.4284  0.1220  0.6691
  102CHL1  H16B13757   1.306   6.940  13.084 -0.5307 -0.9231 -0.6061
  102CHL1   C1713758   1.440   6.763  13.135  0.6410 -0.7034  0.6182
  102CHL1   H1713759   1.518   6.842  13.143 -0.4571  0.6879 -1.3436
  102CHL1   C1313760   1.451   6.690  13.271  0.3703 -0.3745 -0.4233
  102CHL1   C1813761   1.351   6.569  13.256 -0.0584 -0.6051  0.3000
  102CHL1  H18A13762   1.247   6.591  13.221  0.2949 -1.5109 -1.4432
  102CHL1  H18B13763   1.394   6.493  13.188 -2.4943 -0.3994 -1.6093
  102CHL1  H18C13764   1.340   6.519  13.354 -0.0104 -1.2164 -0.0020
  102CHL1   C1213765   1.590   6.651  13.333  0.7556  0.3652 -0.3585
  102CHL1  H12A13766   1.648   6.581  13.269  1.6730  1.1216 -0.3776
  102CHL1  H12B13767   1.641   6.749  13.341 -0.0317  0.9045 -1.7225
  102CHL1   C1113768   1.567   6.595  13.479 -0.5631  0.4750 -0.0212
  102CHL1  H11A13769   1.508   6.503  13.460  0.3286  0.2949 -2.3250
  102CHL1  H11B13770   1.670   6.570  13.511 -0.4576 -2.5895 -2.2130
  102CHL1    C913771   1.496   6.686  13.574 -0.0617  0.4386 -0.7393
  102CHL1    H913772   1.564   6.771  13.597 -0.3215  0.8872 -1.5674
  102CHL1   C1013773   1.470   6.632  13.724 -0.4281 -0.4853  0.3800
  102CHL1   C1913774   1.426   6.482  13.700  0.1631 -0.8852 -0.3656
  102CHL1  H19A13775   1.340   6.466  13.631 -2.6769  3.0222  1.8618
  102CHL1  H19B13776   1.515   6.425  13.667  0.7893  0.0703 -0.3310
  102CHL1  H19C13777   1.396   6.433  13.796 -0.2279  0.3089  0.1396
  102CHL1    C113778   1.600   6.646  13.808  0.1245 -0.0189 -0.0649
  102CHL1   H1A13779   1.677   6.569  13.785 -0.1783 -1.5662  3.4546
  102CHL1   H1B13780   1.651   6.743  13.788  0.1299 -0.6007 -3.4349
  102CHL1    C213781   1.587   6.618  13.962 -0.6263 -0.6658  0.5507
  102CHL1   H2A13782   1.687   6.637  14.006  0.3689 -2.4640 -0.8690
  102CHL1   H2B13783   1.565   6.509  13.960 -0.6739 -0.6450 -0.8223
  102CHL1   C2013784   1.454   6.689  13.005 -0.4820  0.4249 -0.5252
  102CHL1   H2013785   1.375   6.610  13.005  0.8867 -1.0087  0.5696
  102CHL1   C2113786   1.585   6.602  12.999 -0.3193 -0.4256 -0.0083
  102CHL1  H21A13787   1.590   6.551  12.901 -1.8201 -0.2167 -0.2187
  102CHL1  H21B13788   1.589   6.518  13.072  1.1566 -0.8231 -0.5011
  102CHL1  H21C13789   1.674   6.667  13.013 -0.0761 -1.0176  1.4330
  102CHL1   C2213790   1.444   6.775  12.879 -1.1254  0.2313 -0.1983
  102CHL1  H22A13791   1.350   6.834  12.873 -1.7600 -0.8361 -0.9019
  102CHL1  H22B13792   1.536   6.838  12.883 -0.6134 -0.5263  0.2569
  102CHL1   C2313793   1.442   6.706  12.744 -0.3726 -0.0165  0.3209
  102CHL1  H23A13794   1.538   6.651  12.737 -1.0486 -1.0450 -2.3915
  102CHL1  H23B13795   1.362   6.629  12.746  2.2914 -2.9685  0.5546
  102CHL1   C2413796   1.427   6.798  12.628  0.1988  0.2421 -0.3327
  102CHL1  H24A13797   1.321   6.827  12.615  0.0418 -0.6796 -1.2838
  102CHL1  H24B13798   1.484   6.888  12.661 -1.4442  0.8145  1.0730
  102CHL1   C2513799   1.476   6.736  12.495 -0.0159  0.1075  0.4436
  102CHL1   H2513800   1.584   6.724  12.475 -0.2391  0.5237 -1.1563
  102CHL1   C2613801   1.416   6.590  12.465 -0.2884 -0.2797  0.2919
  102CHL1  H26A13802   1.451   6.536  12.555 -0.0788 -2.7797 -1.2107
  102CHL1  H26B13803   1.306   6.610  12.468 -0.5187 -1.5416  2.3344
  102CHL1  H26C13804   1.452   6.538  12.374  1.0321  1.5974 -0.3232
  102CHL1   C2713805   1.420   6.827  12.385 -0.8628  0.2015  0.0706
  102CHL1  H27A13806   1.452   6.786  12.286 -1.8074  2.9108 -1.4457
  102CHL1  H27B13807   1.309   6.830  12.389 -0.8327  0.5896  0.7614
  102CHL1  H27C13808   1.470   6.925  12.397  0.4096 -0.4983  0.7757
  103CHL1    C313809   0.875   4.708  13.967 -0.2098  0.7340  0.1415
  103CHL1    H313810   0.934   4.792  13.927 -0.9939  1.1440 -0.1780
  103CHL1    O313811   0.912   4.690  14.103  0.2800  0.8133  0.1894
  103CHL1   H3'13812   0.840   4.639  14.141  0.6300  0.7235  0.7412
  103CHL1    C413813   0.725   4.739  13.948 -0.9010  0.1352  0.8936
  103CHL1   H4A13814   0.656   4.662  13.989 -0.4715 -0.6765  0.1243
  103CHL1   H4B13815   0.706   4.825  14.017 -1.9017 -1.3623  2.5602
  103CHL1    C513816   0.696   4.772  13.803 -0.6280 -0.3219  0.2999
  103CHL1    C613817   0.647   4.888  13.769  0.2681  0.1162  0.2350
  103CHL1    H613818   0.606   4.954  13.848  0.6942  1.1641 -0.4039
  103CHL1    C713819   0.625   4.930  13.624 -0.1263 -0.2033  0.3351
  103CHL1   H7A13820   0.525   4.977  13.621 -0.5927 -0.9658  2.2034
  103CHL1   H7B13821   0.703   5.001  13.590 -0.8753  0.9884  1.0347
  103CHL1    C813822   0.605   4.800  13.531 -0.3627  0.0256 -0.0701
  103CHL1    H813823   0.508   4.753  13.559 -1.6425  1.7181 -1.4360
  103CHL1   C1413824   0.601   4.843  13.390  0.8286 -0.3152 -0.0161
  103CHL1   H1413825   0.695   4.896  13.367  0.4512  0.0547 -0.7193
  103CHL1   C1513826   0.508   4.963  13.357 -1.0512  0.0668  0.7640
  103CHL1  H15A13827   0.402   4.945  13.383 -1.3862  0.3371 -0.3724
  103CHL1  H15B13828   0.541   5.063  13.393  1.3566 -0.5611  0.4690
  103CHL1   C1613829   0.516   4.964  13.198  0.4846 -0.7684 -0.3665
  103CHL1  H16A13830   0.415   4.984  13.157  1.1160  2.0700 -0.7101
  103CHL1  H16B13831   0.590   5.038  13.159 -0.4544  0.3381 -0.0732
  103CHL1   C1713832   0.573   4.823  13.154 -0.1980  0.2165 -0.9609
  103CHL1   H1713833   0.680   4.839  13.129  0.2396 -1.7358 -0.4714
  103CHL1   C1313834   0.580   4.738  13.286  0.3274 -0.2338  0.1929
  103CHL1   C1813835   0.443   4.671  13.308 -0.2854  0.0632  0.5793
  103CHL1  H18A13836   0.364   4.747  13.293  0.0012 -0.0646 -1.8709
  103CHL1  H18B13837   0.433   4.583  13.242  1.8248  0.0525  0.2067
  103CHL1  H18C13838   0.448   4.631  13.412  2.4654 -1.0467  0.0953
  103CHL1   C1213839   0.703   4.645  13.294  0.4110  0.1531 -0.2842
  103CHL1  H12A13840   0.695   4.550  13.236  0.5810  0.0793 -0.1874
  103CHL1  H12B13841   0.790   4.702  13.254  0.1952 -0.0137 -0.9937
  103CHL1   C1113842   0.721   4.599  13.442 -0.1025  0.0524 -0.4046
  103CHL1  H11A13843   0.635   4.533  13.463  1.4877 -2.1043 -0.4172
  103CHL1  H11B13844   0.813   4.537  13.440 -0.5528 -0.6689  0.5660
  103CHL1    C913845   0.728   4.713  13.551  0.1324  0.0533 -0.5538
  103CHL1    H913846   0.817   4.778  13.530 -0.4377  1.8326  2.0953
  103CHL1   C1013847   0.743   4.666  13.699 -0.5540  0.7829 -0.5189
  103CHL1   C1913848   0.646   4.546  13.725 -0.0488  0.4408  0.0394
  103CHL1  H19A13849   0.680   4.467  13.653 -1.3405  0.1020 -0.2202
  103CHL1  H19B13850   0.668   4.496  13.822  1.3004  1.7173  0.4186
  103CHL1  H19C13851   0.537   4.565  13.721  0.1988  1.9741 -0.0231
  103CHL1    C113852   0.883   4.622  13.729  0.2543  0.2684 -0.0582
  103CHL1   H1A13853   0.921   4.545  13.659 -3.6825 -1.5552 -0.4676
  103CHL1   H1B13854   0.939   4.715  13.706 -2.2611  1.5185 -1.5167
  103CHL1    C213855   0.910   4.586  13.872 -0.0804 -0.6323  0.0604
  103CHL1   H2A13856   1.020   4.568  13.874  0.4418  1.7959 -1.4706
  103CHL1   H2B13857   0.854   4.495  13.900 -0.7500  0.1942  1.5686
  103CHL1   C2013858   0.507   4.760  13.031 -0.4931  0.1438 -0.4028
  103CHL1   H2013859   0.402   4.729  13.050 -0.5411  0.4571 -0.1558
  103CHL1   C2113860   0.581   4.626  13.003 -0.0597  0.4338  0.7913
  103CHL1  H21A13861   0.690   4.642  12.987 -0.1698  1.1638  0.7086
  103CHL1  H21B13862   0.536   4.577  12.914 -0.2454  1.5635  0.2428
  103CHL1  H21C13863   0.562   4.549  13.080  1.1130  1.5839  2.2794
  103CHL1   C2213864   0.503   4.846  12.901  1.0876  0.1462  0.0520
  103CHL1  H22A13865   0.481   4.953  12.922 -0.5446  0.1011 -1.2511
  103CHL1  H22B13866   0.603   4.838  12.853  0.5107 -0.4791 -1.0829
  103CHL1   C2313867   0.398   4.801  12.793  0.4398 -0.0765 -0.6115
  103CHL1  H23A13868   0.427   4.702  12.752 -0.5739 -1.1973  1.1939
  103CHL1  H23B13869   0.300   4.782  12.841 -1.6424  2.1131 -3.6639
  103CHL1   C2413870   0.382   4.900  12.679 -0.4174  0.1210  0.5637
  103CHL1  H24A13871   0.484   4.937  12.656  0.7193 -1.3686  2.8615
  103CHL1  H24B13872   0.345   4.846  12.589  1.7175  0.6087 -0.6603
  103CHL1   C2513873   0.301   5.031  12.715  0.0330 -0.6581 -0.4082
  103CHL1   H2513874   0.359   5.092  12.787 -1.0023  0.6385 -0.6195
  103CHL1   C2613875   0.278   5.123  12.588  0.2066  0.8653 -0.1949
  103CHL1  H26A13876   0.370   5.129  12.526  0.1363 -1.6076 -0.6231
  103CHL1  H26B13877   0.197   5.083  12.525 -0.6561  1.7603  0.3131
  103CHL1  H26C13878   0.256   5.226  12.624  0.8933  0.7425  0.6131
  103CHL1   C2713879   0.171   4.998  12.785  0.1380  0.2713  0.6802
  103CHL1  H27A13880   0.116   5.093  12.801 -2.1074 -0.6106 -1.1791
  103CHL1  H27B13881   0.105   4.929  12.727  0.9383 -1.8567  2.1927
  103CHL1  H27C13882   0.188   4.944  12.880 -0.8351 -1.1799  0.0730
  104CHL1    C313883   5.143   0.804  13.757  0.4405 -0.7376 -0.2137
  104CHL1    H313884   5.248   0.773  13.738  0.4348  0.0220 -1.6131
  104CHL1    O313885   5.101   0.789  13.889  0.2065  0.1389 -0.0578
  104CHL1   H3'13886   5.133   0.700  13.906 -0.5757  0.0239  0.8784
  104CHL1    C413887   5.122   0.946  13.711  0.0926  0.5453 -0.3910
  104CHL1   H4A13888   5.024   0.984  13.746  0.8062  1.1669  1.0317
  104CHL1   H4B13889   5.205   1.001  13.761 -1.4663  1.1947  1.6200
  104CHL1    C513890   5.140   0.946  13.562 -0.2988  0.0112 -0.1970
  104CHL1    C613891   5.233   1.031  13.512  0.4682 -0.1020 -0.2232
  104CHL1    H613892   5.283   1.095  13.587  0.1225 -0.0397 -0.0424
  104CHL1    C713893   5.265   1.054  13.370  0.1402 -0.0158 -0.4138
  104CHL1   H7A13894   5.272   1.164  13.356  0.1642  0.0761  0.2507
  104CHL1   H7B13895   5.364   1.010  13.347  0.3447  1.0491 -1.6992
  104CHL1    C813896   5.163   1.000  13.280 -0.3461  0.2199 -0.1326
  104CHL1    H813897   5.075   1.068  13.277 -0.5111 -0.0234 -1.0505
  104CHL1   C1413898   5.219   0.980  13.145 -0.1142 -1.2096 -0.1238
  104CHL1   H1413899   5.282   0.889  13.140 -2.0409 -2.6449  0.3628
  104CHL1   C1513900   5.312   1.084  13.082  0.2618  0.5897  0.3107
  104CHL1  H15A13901   5.264   1.183  13.099 -0.8446  0.4006 -1.4698
  104CHL1  H15B13902   5.415   1.083  13.124  0.0422 -1.4603  0.8787
  104CHL1   C1613903   5.309   1.060  12.928  0.5935  0.3781  0.1284
  104CHL1  H16A13904   5.273   1.147  12.869  0.0983  1.3617  1.8412
  104CHL1  H16B13905   5.407   1.030  12.885 -0.6682  0.5900 -3.2285
  104CHL1   C1713906   5.202   0.941  12.911  0.1863  0.4898  0.7939
  104CHL1   H1713907   5.260   0.847  12.905 -0.5028  0.1269 -0.6092
  104CHL1   C1313908   5.117   0.943  13.041  0.2899 -0.0698 -0.0490
  104CHL1   C1813909   5.009   1.045  13.021  0.1957 -0.0057  0.4902
  104CHL1  H18A13910   4.942   1.025  12.935  0.9938 -1.7976  0.2474
  104CHL1  H18B13911   4.951   1.059  13.114  2.6236 -0.3699  2.1368
  104CHL1  H18C13912   5.056   1.140  12.987 -2.0770  0.7463 -0.7776
  104CHL1   C1213913   5.054   0.806  13.089 -0.8741 -0.4084 -0.1346
  104CHL1  H12A13914   4.973   0.765  13.024  0.0135  0.4044 -1.8257
  104CHL1  H12B13915   5.135   0.730  13.084 -0.4510  0.1021 -1.6997
  104CHL1   C1113916   4.994   0.806  13.234 -0.1512 -0.4596  0.5072
  104CHL1  H11A13917   4.901   0.867  13.226  0.7695  1.0168  0.6924
  104CHL1  H11B13918   4.966   0.701  13.260  1.1957 -0.4086  2.3399
  104CHL1    C913919   5.103   0.864  13.331  0.0172  0.6020  0.0468
  104CHL1    H913920   5.189   0.793  13.332  1.7554  2.6013  1.8602
  104CHL1   C1013921   5.053   0.852  13.480  0.2093  0.5032 -0.2748
  104CHL1   C1913922   4.910   0.898  13.495  0.3049 -0.5938  0.2455
  104CHL1  H19A13923   4.873   0.898  13.600 -2.0908  1.3069 -0.4854
  104CHL1  H19B13924   4.890   1.004  13.468  1.8121  0.6789  3.6501
  104CHL1  H19C13925   4.832   0.841  13.440  1.2802 -1.0354 -0.7225
  104CHL1    C113926   5.079   0.709  13.529  0.3665  0.5400 -1.0774
  104CHL1   H1A13927   5.024   0.631  13.472  2.0904 -2.7680  1.3992
  104CHL1   H1B13928   5.184   0.678  13.506  0.1446  0.1003 -1.5042
  104CHL1    C213929   5.050   0.707  13.684 -0.6932  0.2352  0.2918
  104CHL1   H2A13930   5.072   0.602  13.713 -1.0636 -0.2195 -1.0089
  104CHL1   H2B13931   4.943   0.716  13.712 -1.2173 -2.2416 -0.6123
  104CHL1   C2013932   5.132   0.946  12.771  0.7199 -0.5912 -0.1289
  104CHL1   H2013933   5.067   1.036  12.766  0.3009 -0.7676  1.4770
  104CHL1   C2113934   5.043   0.819  12.745  0.3214 -0.1058 -0.0633
  104CHL1  H21A13935   4.948   0.827  12.802  1.6309  0.5093  2.1750
  104CHL1  H21B13936   5.095   0.722  12.763 -0.6114 -0.3304  1.5851
  104CHL1  H21C13937   5.010   0.835  12.640 -0.1365 -0.1565  0.0711
  104CHL1   C2213938   5.239   0.952  12.651 -0.4651  0.1077 -0.1056
  104CHL1  H22A13939   5.343   0.979  12.676  0.3974 -1.4677 -1.7862
  104CHL1  H22B13940   5.236   0.844  12.627  0.6613  0.1532 -0.5096
  104CHL1   C2313941   5.189   1.028  12.527 -0.8811  0.4957  0.6043
  104CHL1  H23A13942   5.092   0.984  12.495 -0.4727  1.1368 -1.6599
  104CHL1  H23B13943   5.190   1.134  12.558 -2.1021 -0.1096  2.9497
  104CHL1   C2413944   5.284   1.009  12.402 -0.4494 -0.1604  0.3814
  104CHL1  H24A13945   5.388   1.029  12.436  0.6024 -1.2615 -1.9986
  104CHL1  H24B13946   5.275   0.904  12.365  1.5785 -0.6420  1.1522
  104CHL1   C2513947   5.263   1.103  12.283  0.1224 -0.0734  0.3996
  104CHL1   H2513948   5.164   1.081  12.239  0.3232 -1.0819  0.4176
  104CHL1   C2613949   5.239   1.249  12.319 -0.3921  0.0683  0.0854
  104CHL1  H26A13950   5.335   1.287  12.360 -0.1156  1.5613 -1.7859
  104CHL1  H26B13951   5.221   1.323  12.238 -0.3923 -0.1470 -0.1132
  104CHL1  H26C13952   5.167   1.263  12.402  0.7190 -0.5806  1.1845
  104CHL1   C2713953   5.377   1.081  12.182  0.0472  0.3274 -0.7580
  104CHL1  H27A13954   5.365   0.979  12.139  1.2407 -1.0310  1.8701
  104CHL1  H27B13955   5.370   1.159  12.103 -1.9679 -0.7749 -1.7379
  104CHL1  H27C13956   5.481   1.076  12.223 -1.0200 -0.7941  2.0804
  105CHL1    C313957   4.209   5.113  14.310  0.2216 -0.2331 -0.2636
  105CHL1    H313958   4.261   5.018  14.287  0.3620 -0.1102 -0.4628
  105CHL1    O313959   4.166   5.124  14.443  0.1996  0.0205  0.3861
  105CHL1   H3'13960   4.113   5.202  14.425 -0.3808 -0.6323 -0.9057
  105CHL1    C413961   4.308   5.232  14.286  0.1238 -0.6313 -0.0463
  105CHL1   H4A13962   4.247   5.324  14.298  2.0327  0.5624  1.0742
  105CHL1   H4B13963   4.395   5.240  14.355  0.3686  2.2240 -0.5801
  105CHL1    C513964   4.350   5.234  14.140 -0.0619  0.4736 -0.0476
  105CHL1    C613965   4.480   5.223  14.111 -0.0093 -0.0598  0.2887
  105CHL1    H613966   4.560   5.215  14.186 -0.8826 -0.5704  1.1773
  105CHL1    C713967   4.536   5.238  13.965 -0.0488 -0.6983 -0.4007
  105CHL1   H7A13968   4.621   5.307  13.983 -0.4806 -0.3694  0.4434
  105CHL1   H7B13969   4.566   5.138  13.926 -1.7098 -1.8025  0.9769
  105CHL1    C813970   4.429   5.298  13.879  0.3592  0.3105  0.0190
  105CHL1    H813971   4.408   5.405  13.898  0.3539  0.0059  1.8985
  105CHL1   C1413972   4.476   5.287  13.731  0.2170  0.3011 -0.5839
  105CHL1   H1413973   4.485   5.177  13.718 -0.5274  0.0932  0.4945
  105CHL1   C1513974   4.609   5.356  13.696 -0.9881  0.7219 -0.0316
  105CHL1  H15A13975   4.620   5.455  13.745  0.3109  0.8352 -0.5044
  105CHL1  H15B13976   4.686   5.289  13.738 -3.4001 -2.8603 -0.9012
  105CHL1   C1613977   4.625   5.334  13.540  0.0344 -0.6758 -0.6277
  105CHL1  H16A13978   4.662   5.430  13.500  1.0709  0.4806  2.8012
  105CHL1  H16B13979   4.686   5.248  13.503 -0.0715 -0.0213 -2.4168
  105CHL1   C1713980   4.476   5.311  13.492  0.5207  0.1111 -0.1490
  105CHL1   H1713981   4.464   5.203  13.468  0.0733 -0.6974  3.2243
  105CHL1   C1313982   4.387   5.333  13.619  0.0531  0.6029 -0.0184
  105CHL1   C1813983   4.338   5.481  13.638 -0.4393  0.7927  0.1460
  105CHL1  H18A13984   4.417   5.552  13.605 -0.4506  1.4865  1.5505
  105CHL1  H18B13985   4.249   5.501  13.574  0.5575 -0.1474 -1.5979
  105CHL1  H18C13986   4.304   5.490  13.743  1.8792 -1.4250  1.2115
  105CHL1   C1213987   4.261   5.238  13.629  0.1345  0.1700  0.2871
  105CHL1  H12A13988   4.192   5.285  13.555  1.8524  3.2299  0.4780
  105CHL1  H12B13989   4.288   5.142  13.582  1.4939  1.1365 -0.9942
  105CHL1   C1113990   4.198   5.240  13.771 -0.2745  0.1552 -0.5730
  105CHL1  H11A13991   4.145   5.336  13.784  0.9430  0.7100  0.5243
  105CHL1  H11B13992   4.118   5.163  13.769  0.7221 -0.9258  0.0842
  105CHL1    C913993   4.296   5.222  13.895  0.2173 -0.5622 -0.4880
  105CHL1    H913994   4.329   5.117  13.876  1.8340 -0.1617 -0.0138
  105CHL1   C1013995   4.236   5.241  14.039 -0.7185 -1.0901 -0.4414
  105CHL1   C1913996   4.153   5.373  14.042  0.3827  0.5517  0.5021
  105CHL1  H19A13997   4.102   5.396  14.138 -1.2990  2.0725 -0.6745
  105CHL1  H19B13998   4.213   5.464  14.023 -2.6641  2.6328  0.0643
  105CHL1  H19C13999   4.069   5.368  13.969  1.9494 -0.3972 -1.3231
  105CHL1    C114000   4.132   5.131  14.075 -0.7365 -0.1384  0.2951
  105CHL1   H1A14001   4.043   5.136  14.008 -1.5701  1.8300  1.4724
  105CHL1   H1B14002   4.190   5.039  14.049 -1.0010 -0.5169  1.0200
  105CHL1    C214003   4.091   5.116  14.220 -0.4171 -1.0733 -0.4029
  105CHL1   H2A14004   4.029   5.025  14.230 -2.0803  0.1281  0.8461
  105CHL1   H2B14005   4.029   5.203  14.250 -0.0384 -0.8321 -0.2997
  105CHL1   C2014006   4.437   5.384  13.363  0.2345 -0.6265 -0.7016
  105CHL1   H2014007   4.437   5.492  13.386  0.6978 -0.4995 -1.2674
  105CHL1   C2114008   4.296   5.360  13.317  0.5935 -0.1337  0.3218
  105CHL1  H21A14009   4.217   5.401  13.383  0.7341 -1.8007  1.5804
  105CHL1  H21B14010   4.283   5.250  13.309  0.5646 -0.0912 -0.2554
  105CHL1  H21C14011   4.264   5.401  13.219  0.0179 -0.7369  0.2479
  105CHL1   C2214012   4.535   5.363  13.250  0.0196 -0.0076  0.1319
  105CHL1  H22A14013   4.484   5.405  13.161 -1.0457  0.6700  1.0445
  105CHL1  H22B14014   4.627   5.421  13.272 -2.8695  4.1845  2.7268
  105CHL1   C2314015   4.568   5.211  13.221  0.4487 -0.0356  0.1645
  105CHL1  H23A14016   4.651   5.180  13.289  0.4836  1.0022  0.6151
  105CHL1  H23B14017   4.473   5.155  13.228  1.2958 -1.4031  1.3374
  105CHL1   C2414018   4.627   5.201  13.084  0.2252 -0.3280  0.0105
  105CHL1  H24A14019   4.552   5.257  13.026  0.0835  2.0994  2.3393
  105CHL1  H24B14020   4.722   5.258  13.077 -0.7996  1.2134 -2.4136
  105CHL1   C2514021   4.644   5.058  13.017  0.5523  0.3777 -0.4586
  105CHL1   H2514022   4.700   5.002  13.094 -3.2503 -2.1442  0.7421
  105CHL1   C2614023   4.511   4.991  12.988  0.2297  0.4429 -0.0522
  105CHL1  H26A14024   4.461   4.990  13.088  0.3807  0.4011  0.0220
  105CHL1  H26B14025   4.448   5.058  12.925 -0.2697  0.1797  0.1595
  105CHL1  H26C14026   4.518   4.886  12.951 -1.0861 -0.4403  1.9993
  105CHL1   C2714027   4.729   5.070  12.894 -0.0683  0.5350  0.0165
  105CHL1  H27A14028   4.828   5.116  12.917  1.2628 -2.8816  1.8183
  105CHL1  H27B14029   4.742   4.967  12.855  0.3509 -0.2039  1.9709
  105CHL1  H27C14030   4.676   5.125  12.813  3.1270  2.4442 -0.9854
  106CHL1    C314031   0.493   5.429  13.937 -0.8479 -0.3308  0.4528
  106CHL1    H314032   0.592   5.384  13.918  0.4011  1.9204  1.2545
  106CHL1    O314033   0.470   5.442  14.079 -0.1567  0.4300  0.1476
  106CHL1   H3'14034   0.480   5.354  14.117 -1.6910 -0.0453 -0.4805
  106CHL1    C414035   0.486   5.571  13.871  0.2324  0.7063 -0.3723
  106CHL1   H4A14036   0.383   5.609  13.884 -0.1369 -0.8273  1.8113
  106CHL1   H4B14037   0.546   5.645  13.928 -0.3267  1.0552 -0.2292
  106CHL1    C514038   0.519   5.568  13.728  0.6265  0.1869  0.6568
  106CHL1    C614039   0.621   5.641  13.680 -0.1458 -0.2783 -0.6625
  106CHL1    H614040   0.678   5.714  13.739  0.3704 -1.3707  0.2249
  106CHL1    C714041   0.661   5.654  13.535 -0.2498  0.2053 -0.4393
  106CHL1   H7A14042   0.674   5.756  13.492  1.9919 -1.4248 -4.1795
  106CHL1   H7B14043   0.757   5.598  13.529 -0.4824 -0.1454 -0.8948
  106CHL1    C814044   0.559   5.571  13.445  0.6009  0.0962 -0.5949
  106CHL1    H814045   0.470   5.637  13.437 -0.2988 -0.9208  0.6027
  106CHL1   C1414046   0.609   5.554  13.306 -0.0284 -0.2988  0.4101
  106CHL1   H1414047   0.709   5.508  13.318  0.4745  0.9936  1.3150
  106CHL1   C1514048   0.632   5.687  13.229 -0.4713  0.2514 -0.4302
  106CHL1  H15A14049   0.541   5.748  13.249 -0.9578 -0.0275 -1.7151
  106CHL1  H15B14050   0.721   5.738  13.270  2.1921 -1.1636 -4.0013
  106CHL1   C1614051   0.637   5.644  13.082 -0.2250  0.5160  0.5891
  106CHL1  H16A14052   0.562   5.697  13.021 -2.0889 -1.3649  1.1514
  106CHL1  H16B14053   0.740   5.666  13.047 -0.8600  0.9683 -1.0780
  106CHL1   C1714054   0.606   5.489  13.079 -0.3518  0.0588  0.7507
  106CHL1   H1714055   0.702   5.439  13.105  1.1956  2.8616  0.8363
  106CHL1   C1314056   0.517   5.470  13.214 -0.0970  0.0885  1.3138
  106CHL1   C1814057   0.381   5.542  13.186  0.0793  0.5456 -0.0016
  106CHL1  H18A14058   0.337   5.590  13.276 -0.4078  1.6661 -0.8116
  106CHL1  H18B14059   0.390   5.614  13.102  0.0682  1.9020  1.1202
  106CHL1  H18C14060   0.314   5.459  13.153 -1.6063  0.8048  2.4638
  106CHL1   C1214061   0.502   5.329  13.271  0.6218  0.6721  0.5169
  106CHL1  H12A14062   0.438   5.260  13.211  1.1644 -1.1467  1.9566
  106CHL1  H12B14063   0.598   5.274  13.273  0.5507  0.3001 -2.2171
  106CHL1   C1114064   0.440   5.344  13.412 -0.0493  0.3492 -0.5145
  106CHL1  H11A14065   0.330   5.358  13.406 -0.0270  1.4108  1.1325
  106CHL1  H11B14066   0.449   5.244  13.459  0.5679  1.0447  0.8907
  106CHL1    C914067   0.509   5.448  13.505 -0.3484  0.1571 -0.5904
  106CHL1    H914068   0.606   5.399  13.532 -0.0521  1.7311  1.4349
  106CHL1   C1014069   0.436   5.465  13.642  0.4628 -0.2797 -0.3379
  106CHL1   C1914070   0.293   5.531  13.623 -0.1124 -0.4537  0.3017
  106CHL1  H19A14071   0.312   5.623  13.564  1.4817  0.4581  2.1073
  106CHL1  H19B14072   0.231   5.463  13.562 -0.8751 -0.5700  1.1726
  106CHL1  H19C14073   0.235   5.551  13.716 -0.4544 -0.9499  0.2041
  106CHL1    C114074   0.434   5.332  13.723 -0.8269 -0.1146  0.0706
  106CHL1   H1A14075   0.380   5.254  13.666 -0.8960  0.7972 -1.1618
  106CHL1   H1B14076   0.540   5.299  13.720 -1.1770 -1.2656  0.0581
  106CHL1    C214077   0.393   5.337  13.868  0.3273 -0.3258 -0.2604
  106CHL1   H2A14078   0.415   5.234  13.902  2.0556  0.3147  0.6936
  106CHL1   H2B14079   0.291   5.380  13.876  0.3960 -0.1709 -0.2204
  106CHL1   C2014080   0.548   5.444  12.944  0.1720  0.7227  0.1166
  106CHL1   H2014081   0.439   5.460  12.941  0.0981  0.1186 -0.9506
  106CHL1   C2114082   0.571   5.291  12.949 -0.7389 -0.4140 -0.3066
  106CHL1  H21A14083   0.560   5.228  12.858  0.2414  0.1058 -0.8038
  106CHL1  H21B14084   0.499   5.247  13.022 -0.3768 -2.0655 -0.8875
  106CHL1  H21C14085   0.676   5.268  12.980 -0.6005 -0.3902 -0.7522
  106CHL1   C2214086   0.626   5.504  12.821  0.0263 -0.1926  0.1205
  106CHL1  H22A14087   0.603   5.613  12.821  1.1230  0.0523  0.8129
  106CHL1  H22B14088   0.732   5.494  12.850 -0.2439  0.4277  1.3881
  106CHL1   C2314089   0.597   5.436  12.678 -0.2509 -0.3824 -0.2218
  106CHL1  H23A14090   0.630   5.330  12.678 -0.3829 -0.4242 -0.2321
  106CHL1  H23B14091   0.487   5.434  12.660 -0.1594  0.1670 -0.8528
  106CHL1   C2414092   0.672   5.517  12.567 -0.1293  0.2266 -0.0300
  106CHL1  H24A14093   0.654   5.624  12.590  2.1475  0.4712  0.8843
  106CHL1  H24B14094   0.778   5.492  12.590  0.0876  1.5751  0.5254
  106CHL1   C2514095   0.630   5.478  12.417  0.7149  0.7227 -0.2035
  106CHL1   H2514096   0.526   5.517  12.409  0.8607  1.7126  1.9967
  106CHL1   C2614097   0.709   5.551  12.306 -0.5297 -0.2297 -0.0040
  106CHL1  H26A14098   0.654   5.646  12.287 -2.3750 -1.5651 -1.7197
  106CHL1  H26B14099   0.817   5.561  12.331 -0.4210  1.8906 -1.0710
  106CHL1  H26C14100   0.682   5.493  12.216 -0.4705 -0.5628  0.1908
  106CHL1   C2714101   0.618   5.336  12.383  0.8596 -0.1657  0.1681
  106CHL1  H27A14102   0.578   5.307  12.283  0.3539 -1.4347  0.7064
  106CHL1  H27B14103   0.714   5.282  12.397  0.3100 -0.7410  2.0096
  106CHL1  H27C14104   0.546   5.292  12.457 -0.0085  1.0757  0.0946
  107CHL1    C314105   2.759   0.912  13.944  0.0218  0.3139  0.6420
  107CHL1    H314106   2.728   1.018  13.961  0.0378  0.3847  0.2272
  107CHL1    O314107   2.801   0.856  14.064  1.2140  0.4072 -0.4394
  107CHL1   H3'14108   2.825   0.767  14.037 -0.4941  0.3143 -1.7857
  107CHL1    C414109   2.647   0.827  13.878  0.1954 -0.5190  0.0928
  107CHL1   H4A14110   2.676   0.720  13.882 -0.3774 -0.8245 -2.2643
  107CHL1   H4B14111   2.560   0.834  13.947  0.9489  2.3240  0.9139
  107CHL1    C514112   2.613   0.863  13.737  0.3144  0.3027  0.2955
  107CHL1    C614113   2.483   0.891  13.706 -0.0698  0.5013  0.2289
  107CHL1    H614114   2.404   0.883  13.782  1.0423  1.1189  1.4826
  107CHL1    C714115   2.444   0.931  13.562  0.1731  0.0860 -0.4988
  107CHL1   H7A14116   2.346   0.885  13.538  1.0366 -2.2886  0.2020
  107CHL1   H7B14117   2.432   1.041  13.562 -0.6029  0.0465  1.4625
  107CHL1    C814118   2.553   0.884  13.462 -0.3215 -0.0816  0.4119
  107CHL1    H814119   2.552   0.773  13.458  2.1441 -0.1363 -0.1140
  107CHL1   C1414120   2.523   0.945  13.322 -0.3796  0.2431 -0.5651
  107CHL1   H1414121   2.528   1.055  13.340 -1.6802  0.3983 -1.0367
  107CHL1   C1514122   2.392   0.912  13.263 -0.3484  0.3313  0.5782
  107CHL1  H15A14123   2.376   0.803  13.277  0.1093  0.0321 -1.0307
  107CHL1  H15B14124   2.310   0.965  13.316 -3.3391 -1.9261 -1.4095
  107CHL1   C1614125   2.403   0.934  13.109  0.5082  0.1503 -0.8492
  107CHL1  H16A14126   2.365   0.846  13.053 -0.9074 -0.0963  0.4219
  107CHL1  H16B14127   2.359   1.030  13.073  2.5511  1.5707  0.2046
  107CHL1   C1714128   2.556   0.966  13.088 -0.1554  0.2227 -0.0604
  107CHL1   H1714129   2.574   1.074  13.107  2.2167  0.0422 -0.9486
  107CHL1   C1314130   2.626   0.904  13.217 -1.1347 -0.8548 -0.5789
  107CHL1   C1814131   2.637   0.754  13.203  0.1542  0.6071 -0.0323
  107CHL1  H18A14132   2.543   0.709  13.165  0.0951 -1.3584  2.1637
  107CHL1  H18B14133   2.721   0.716  13.141  1.7175  0.5825  1.9559
  107CHL1  H18C14134   2.659   0.700  13.298  1.5636 -1.4612 -1.4610
  107CHL1   C1214135   2.762   0.962  13.257 -0.2129  0.6263 -0.3777
  107CHL1  H12A14136   2.849   0.944  13.192  1.6355  1.4860  1.7251
  107CHL1  H12B14137   2.752   1.073  13.253 -0.2701  0.6328 -0.0983
  107CHL1   C1114138   2.804   0.912  13.395 -0.4654  0.5807 -0.4392
  107CHL1  H11A14139   2.838   0.806  13.385 -1.8263  0.1884 -1.2445
  107CHL1  H11B14140   2.886   0.982  13.421  2.3634 -2.9045  0.8848
  107CHL1    C914141   2.696   0.926  13.505 -0.2651  0.0406 -0.1792
  107CHL1    H914142   2.686   1.034  13.528 -1.0540  0.4077 -2.0419
  107CHL1   C1014143   2.734   0.859  13.643 -0.5366  0.6879  0.1628
  107CHL1   C1914144   2.770   0.711  13.625 -0.1574 -0.6401  1.0017
  107CHL1  H19A14145   2.865   0.700  13.569 -0.1703  1.3846  0.5221
  107CHL1  H19B14146   2.781   0.660  13.723 -2.0041 -1.1842  0.9726
  107CHL1  H19C14147   2.697   0.646  13.571  0.3790 -0.5893  0.1933
  107CHL1    C114148   2.848   0.950  13.714  0.2636  0.2523 -0.5277
  107CHL1   H1A14149   2.937   0.936  13.649 -0.5490  1.5856 -1.9988
  107CHL1   H1B14150   2.823   1.058  13.707  1.1935  0.6336  1.2981
  107CHL1    C214151   2.887   0.910  13.853  0.2641  0.2392  0.1557
  107CHL1   H2A14152   2.967   0.975  13.895 -0.4406  0.0630  1.8599
  107CHL1   H2B14153   2.930   0.808  13.849  2.5008  0.9857  2.4124
  107CHL1   C2014154   2.611   0.940  12.946  0.1493 -0.2474 -0.1389
  107CHL1   H2014155   2.618   0.830  12.929 -2.6395 -0.4382 -0.5255
  107CHL1   C2114156   2.751   1.000  12.922  0.6128  0.0658 -0.1358
  107CHL1  H21A14157   2.833   0.952  12.980 -0.0130 -0.7135  0.1227
  107CHL1  H21B14158   2.760   1.105  12.957 -1.9192  0.2211  0.2471
  107CHL1  H21C14159   2.777   0.973  12.817  2.0275 -0.9532  0.4397
  107CHL1   C2214160   2.522   0.996  12.833 -0.3185 -0.0926 -0.1996
  107CHL1  H22A14161   2.414   1.004  12.858 -0.7464  2.1142 -2.3592
  107CHL1  H22B14162   2.552   1.100  12.808  1.8293  1.2399  6.1655
  107CHL1   C2314163   2.534   0.907  12.713 -0.0687 -0.1316  0.2604
  107CHL1  H23A14164   2.637   0.876  12.684  0.4011  0.5338  1.1588
  107CHL1  H23B14165   2.489   0.806  12.722 -0.0575 -0.5583 -3.0485
  107CHL1   C2414166   2.460   0.973  12.591 -0.0542  0.4932  0.5023
  107CHL1  H24A14167   2.353   1.002  12.600 -0.1337 -0.2677  2.2427
  107CHL1  H24B14168   2.517   1.066  12.572  1.7286 -0.6417  0.1214
  107CHL1   C2514169   2.455   0.876  12.465 -0.3349 -0.2031  0.2071
  107CHL1   H2514170   2.556   0.840  12.440 -0.5636  1.0320 -3.0230
  107CHL1   C2614171   2.353   0.760  12.485 -0.2149  0.7412  0.9111
  107CHL1  H26A14172   2.363   0.683  12.405 -1.4038  0.7367  0.7532
  107CHL1  H26B14173   2.362   0.717  12.587 -1.5889 -2.1773 -0.0567
  107CHL1  H26C14174   2.247   0.789  12.472  0.1906  1.0324 -2.8058
  107CHL1   C2714175   2.414   0.961  12.347  0.0120  0.6565 -0.9044
  107CHL1  H27A14176   2.478   1.051  12.337 -0.1847  0.8186 -0.7019
  107CHL1  H27B14177   2.427   0.897  12.257 -1.8470  0.2747 -0.9299
  107CHL1  H27C14178   2.305   0.982  12.349 -0.3206 -0.9285 -0.3918
  108CHL1    C314179   4.124   4.176  14.381 -0.4852  0.4452  0.4406
  108CHL1    H314180   4.110   4.071  14.348  0.5759  0.2179  0.6626
  108CHL1    O314181   4.080   4.222  14.506  0.0159  0.9256  0.2167
  108CHL1   H3'14182   4.074   4.318  14.503  0.1030  0.9051 -1.8180
  108CHL1    C414183   4.275   4.210  14.370 -0.1373 -0.9377 -0.2293
  108CHL1   H4A14184   4.271   4.314  14.410 -2.2845 -1.4799  1.1381
  108CHL1   H4B14185   4.324   4.142  14.443  1.7132 -1.0068 -1.4663
  108CHL1    C514186   4.317   4.193  14.221 -0.0939  0.1658 -0.3725
  108CHL1    C614187   4.413   4.102  14.185  0.7785 -0.3112  0.0574
  108CHL1    H614188   4.465   4.049  14.267 -2.0759 -1.2263  1.4081
  108CHL1    C714189   4.465   4.077  14.042  0.4647 -0.1295  0.0587
  108CHL1   H7A14190   4.576   4.080  14.038  0.4819  2.4380  0.4068
  108CHL1   H7B14191   4.425   3.982  14.002  2.5182 -1.3420  0.7687
  108CHL1    C814192   4.418   4.202  13.947  0.5057  0.1783  0.4961
  108CHL1    H814193   4.490   4.283  13.970  0.7252  0.4108 -0.9347
  108CHL1   C1414194   4.440   4.167  13.802 -0.0427 -0.3768  0.2034
  108CHL1   H1414195   4.384   4.074  13.777 -1.3156  0.7107 -1.1007
  108CHL1   C1514196   4.592   4.122  13.771 -0.2853  0.2087 -0.1426
  108CHL1  H15A14197   4.663   4.199  13.810  0.6155  0.5657 -2.3158
  108CHL1  H15B14198   4.621   4.025  13.817 -0.5841 -0.1094 -0.6106
  108CHL1   C1614199   4.587   4.116  13.613 -0.4156  0.0151  0.5273
  108CHL1  H16A14200   4.682   4.147  13.565 -1.6019  1.5115 -0.9653
  108CHL1  H16B14201   4.572   4.010  13.581  2.1382 -1.2296  3.0248
  108CHL1   C1714202   4.459   4.195  13.568 -0.1518  0.3197  0.3303
  108CHL1   H1714203   4.384   4.118  13.541 -0.2816  0.6915 -0.4055
  108CHL1   C1314204   4.407   4.271  13.696 -0.0602  0.4608  0.1379
  108CHL1   C1814205   4.491   4.397  13.719  0.8053 -0.4151  0.6438
  108CHL1  H18A14206   4.448   4.486  13.667  2.4536  0.9618  1.5311
  108CHL1  H18B14207   4.504   4.416  13.828 -1.8090  0.4216  0.8728
  108CHL1  H18C14208   4.596   4.383  13.684  0.7447  2.8453 -1.2654
  108CHL1   C1214209   4.253   4.290  13.722  0.1474 -0.2838 -0.5020
  108CHL1  H12A14210   4.211   4.358  13.644 -1.7870 -0.4363  0.3651
  108CHL1  H12B14211   4.204   4.194  13.694 -2.5974  1.2188 -1.2331
  108CHL1   C1114212   4.216   4.348  13.863 -0.0368 -0.0450  0.0955
  108CHL1  H11A14213   4.269   4.443  13.885  2.5535 -0.8870 -1.9842
  108CHL1  H11B14214   4.105   4.358  13.867 -0.1043 -0.8382  4.0388
  108CHL1    C914215   4.271   4.247  13.968  0.1965 -0.1982 -0.2760
  108CHL1    H914216   4.223   4.148  13.952  1.6269 -0.6838 -1.9544
  108CHL1   C1014217   4.238   4.285  14.118  0.4985  0.5629 -0.5692
  108CHL1   C1914218   4.276   4.428  14.141 -0.2440 -0.6435  0.4615
  108CHL1  H19A14219   4.215   4.492  14.073 -0.6856 -0.8727  0.6385
  108CHL1  H19B14220   4.250   4.453  14.246 -1.3685 -0.4813  0.1549
  108CHL1  H19C14221   4.385   4.433  14.120 -0.5173 -1.7586 -1.4755
  108CHL1    C114222   4.084   4.259  14.143 -0.2439 -0.3110  0.0215
  108CHL1   H1A14223   4.019   4.334  14.092 -1.5731 -1.0799  0.5386
  108CHL1   H1B14224   4.065   4.159  14.100  2.3447 -0.3813 -1.1316
  108CHL1    C214225   4.036   4.264  14.287 -0.3150  0.6201 -0.8854
  108CHL1   H2A14226   3.930   4.233  14.297 -0.9772  2.6054 -1.2945
  108CHL1   H2B14227   4.037   4.372  14.315  0.3452  0.4865 -0.3800
  108CHL1   C2014228   4.480   4.279  13.437 -0.2349  0.9487 -0.4961
  108CHL1   H2014229   4.558   4.354  13.461  1.0847 -1.0780  1.9705
  108CHL1   C2114230   4.341   4.320  13.394 -0.1589  0.0552 -0.1414
  108CHL1  H21A14231   4.330   4.336  13.285  1.7210 -1.9058 -0.6761
  108CHL1  H21B14232   4.312   4.408  13.455  0.5094 -2.4247  4.1383
  108CHL1  H21C14233   4.266   4.242  13.421 -0.2460  0.7714  1.8999
  108CHL1   C2214234   4.552   4.190  13.338 -0.7203 -0.1937  0.3112
  108CHL1  H22A14235   4.660   4.180  13.363 -0.0320 -0.4961 -2.3732
  108CHL1  H22B14236   4.511   4.086  13.337 -0.2960 -0.3640  0.1079
  108CHL1   C2314237   4.551   4.242  13.191 -0.5308  0.1919  0.2245
  108CHL1  H23A14238   4.447   4.222  13.157 -0.7934  1.4533  0.2235
  108CHL1  H23B14239   4.571   4.350  13.175  0.1243 -0.3086 -2.8752
  108CHL1   C2414240   4.652   4.165  13.105 -0.6238  0.2635  0.4302
  108CHL1  H24A14241   4.748   4.160  13.161  0.1799  1.9772 -0.6996
  108CHL1  H24B14242   4.600   4.067  13.103 -1.3774  0.6589 -1.2729
  108CHL1   C2514243   4.681   4.215  12.969 -0.6748  0.3242  0.6297
  108CHL1   H2514244   4.709   4.322  12.980  1.9586 -0.3211  0.9821
  108CHL1   C2614245   4.799   4.146  12.905  0.1711  0.0874  0.1216
  108CHL1  H26A14246   4.875   4.114  12.980 -1.1743 -1.7322  0.7700
  108CHL1  H26B14247   4.773   4.059  12.842  2.9615 -0.8004  0.0344
  108CHL1  H26C14248   4.839   4.213  12.826  2.9452 -1.8523 -0.2878
  108CHL1   C2714249   4.562   4.212  12.870 -0.9536 -0.0704 -0.0120
  108CHL1  H27A14250   4.575   4.269  12.775  1.3989 -0.8365 -0.2283
  108CHL1  H27B14251   4.545   4.106  12.841  0.2534 -0.5667  1.0135
  108CHL1  H27C14252   4.471   4.240  12.927 -0.5713  0.1109  0.5148
  109CHL1    C314253   0.780   1.043  13.692  0.5554 -0.1509 -0.8246
  109CHL1    H314254   0.850   1.123  13.659  0.3184 -0.3768 -1.9162
  109CHL1    O314255   0.776   1.042  13.837 -0.3740 -0.1836 -0.4850
  109CHL1   H3'14256   0.725   0.967  13.870  2.1762 -1.7238  0.2328
  109CHL1    C414257   0.646   1.080  13.634  0.3564 -0.4124  0.1554
  109CHL1   H4A14258   0.572   1.016  13.686 -0.1051  0.8173  1.0639
  109CHL1   H4B14259   0.616   1.184  13.661  0.2688 -0.6393  0.9622
  109CHL1    C514260   0.653   1.047  13.486 -0.1713  0.0656 -0.3502
  109CHL1    C614261   0.612   1.130  13.390  0.1665 -0.9434  0.5332
  109CHL1    H614262   0.584   1.234  13.414  0.4142 -0.6095 -0.5804
  109CHL1    C714263   0.609   1.109  13.241 -0.0162 -0.8900 -0.4070
  109CHL1   H7A14264   0.518   1.152  13.193 -1.7735 -1.4862  2.2110
  109CHL1   H7B14265   0.696   1.164  13.199  1.2533 -0.6137  2.3540
  109CHL1    C814266   0.613   0.960  13.202  0.2910 -0.0627 -0.5213
  109CHL1    H814267   0.512   0.916  13.216  0.2035 -0.0139 -0.9803
  109CHL1   C1414268   0.633   0.944  13.052 -0.0295 -0.4671  0.8509
  109CHL1   H1414269   0.731   0.988  13.023  0.0179 -0.5368  0.9039
  109CHL1   C1514270   0.542   1.029  12.955  0.8890  0.1972  0.1484
  109CHL1  H15A14271   0.436   1.031  12.988  0.0395 -1.7575 -2.2134
  109CHL1  H15B14272   0.572   1.136  12.947  2.3539 -0.0997  1.2288
  109CHL1   C1614273   0.548   0.948  12.822  0.3900  0.4517 -0.4044
  109CHL1  H16A14274   0.443   0.917  12.802 -0.4104  0.2091  3.3644
  109CHL1  H16B14275   0.585   0.998  12.730  0.6683  2.0090  0.5209
  109CHL1   C1714276   0.641   0.828  12.847 -0.0053 -0.4498 -0.0601
  109CHL1   H1714277   0.742   0.861  12.815 -0.0578 -1.1440 -0.9554
  109CHL1   C1314278   0.626   0.801  12.999  0.0722  0.2286  0.6336
  109CHL1   C1814279   0.483   0.739  13.014 -0.0145 -0.0208 -0.2846
  109CHL1  H18A14280   0.402   0.799  12.967  0.6354  0.7523 -0.4398
  109CHL1  H18B14281   0.480   0.639  12.965 -4.8269  0.1103 -0.7382
  109CHL1  H18C14282   0.447   0.720  13.117 -0.5015  0.5708 -0.3384
  109CHL1   C1214283   0.740   0.727  13.077  0.4113 -0.1305  0.0634
  109CHL1  H12A14284   0.734   0.621  13.046  0.6117  0.4267 -2.0898
  109CHL1  H12B14285   0.835   0.771  13.039 -0.6200  1.9188 -0.3425
  109CHL1   C1114286   0.732   0.741  13.231 -0.1715 -0.1215  0.5988
  109CHL1  H11A14287   0.641   0.680  13.253 -0.3663 -2.1787 -4.5994
  109CHL1  H11B14288   0.823   0.694  13.274  0.5578  0.9730  0.2900
  109CHL1    C914289   0.714   0.889  13.286  0.6077 -0.0008  0.0015
  109CHL1    H914290   0.808   0.944  13.262  0.4068  0.0264 -0.7693
  109CHL1   C1014291   0.699   0.906  13.444 -0.9735 -0.3250  0.2833
  109CHL1   C1914292   0.604   0.796  13.494 -0.0469  0.2807  0.1435
  109CHL1  H19A14293   0.584   0.814  13.601 -1.3855 -0.2841  0.0184
  109CHL1  H19B14294   0.508   0.805  13.437  0.8271  2.9747 -1.0523
  109CHL1  H19C14295   0.648   0.694  13.490  0.4114  0.4708  0.3017
  109CHL1    C114296   0.845   0.872  13.505 -0.7927  0.5959 -0.7124
  109CHL1   H1A14297   0.869   0.764  13.495  1.1483  0.9199 -0.0115
  109CHL1   H1B14298   0.916   0.942  13.457 -3.4283  2.3933 -2.2019
  109CHL1    C214299   0.846   0.907  13.656 -0.4742  0.1842 -0.0858
  109CHL1   H2A14300   0.951   0.903  13.691 -0.7834  1.1263  1.0435
  109CHL1   H2B14301   0.787   0.828  13.707  0.3149 -1.2970 -1.3850
  109CHL1   C2014302   0.619   0.719  12.751 -0.4344  1.1009 -0.2885
  109CHL1   H2014303   0.520   0.677  12.777 -0.5151  1.6358  0.2947
  109CHL1   C2114304   0.726   0.606  12.765  0.0557  0.1110  0.0191
  109CHL1  H21A14305   0.754   0.574  12.868  0.1417 -1.1614 -0.3803
  109CHL1  H21B14306   0.815   0.643  12.712 -0.7179  2.7874  0.4342
  109CHL1  H21C14307   0.703   0.513  12.709 -0.4344 -0.2097  0.7332
  109CHL1   C2214308   0.596   0.759  12.599 -0.2013 -0.0035 -0.2956
  109CHL1  H22A14309   0.508   0.827  12.591 -0.3285 -0.3829 -2.9876
  109CHL1  H22B14310   0.678   0.830  12.573  1.3427 -1.0582  1.4557
  109CHL1   C2314311   0.566   0.652  12.499 -0.2056  0.7017 -0.3299
  109CHL1  H23A14312   0.655   0.592  12.472  1.3282  1.6611  2.2252
  109CHL1  H23B14313   0.497   0.573  12.536 -0.0204  0.1769 -1.0830
  109CHL1   C2414314   0.501   0.712  12.368  0.5191  0.2898 -0.5512
  109CHL1  H24A14315   0.394   0.736  12.382 -0.7952 -3.3363 -2.9019
  109CHL1  H24B14316   0.551   0.804  12.330 -0.3256  0.7944 -0.4644
  109CHL1   C2514317   0.525   0.617  12.242 -0.2042 -0.5597  0.0931
  109CHL1   H2514318   0.634   0.621  12.219 -0.6928  2.7043 -2.4244
  109CHL1   C2614319   0.481   0.474  12.263  0.4933  0.5838  0.2188
  109CHL1  H26A14320   0.373   0.468  12.288 -0.2645  2.4482 -2.2919
  109CHL1  H26B14321   0.496   0.417  12.169 -1.2966  1.3457 -0.5627
  109CHL1  H26C14322   0.546   0.439  12.347  0.9063  1.5565  0.3144
  109CHL1   C2714323   0.451   0.684  12.122  0.1132  0.0696  0.4417
  109CHL1  H27A14324   0.352   0.714  12.163 -0.1302  0.0731 -0.1371
  109CHL1  H27B14325   0.505   0.768  12.073 -1.0915  1.3007  1.1575
  109CHL1  H27C14326   0.442   0.604  12.045  1.2637  0.1233  0.2358
  110CHL1    C314327   6.706   6.767  14.095  0.4284 -0.1653  0.2837
  110CHL1    H314328   6.755   6.667  14.092 -0.8675 -0.9289  2.3185
  110CHL1    O314329   6.675   6.797  14.227 -0.1677  0.2746  0.0275
  110CHL1   H3'14330   6.610   6.868  14.222 -1.0179 -0.4714  0.2705
  110CHL1    C414331   6.793   6.871  14.027  0.0336  0.2645 -0.1662
  110CHL1   H4A14332   6.736   6.966  14.037  1.5793  1.0586  1.7933
  110CHL1   H4B14333   6.893   6.874  14.076  0.7112 -2.1466 -1.2314
  110CHL1    C514334   6.795   6.845  13.874 -0.4917 -0.3344  0.3653
  110CHL1    C614335   6.915   6.835  13.812  0.0131 -0.3462  0.0060
  110CHL1    H614336   7.010   6.832  13.868  0.2460  0.0954 -0.3507
  110CHL1    C714337   6.926   6.819  13.662 -0.5084  0.3341  0.4714
  110CHL1   H7A14338   6.999   6.892  13.622 -2.4398  0.8084 -2.5354
  110CHL1   H7B14339   6.947   6.713  13.638 -1.2128 -0.0623  1.5152
  110CHL1    C814340   6.790   6.851  13.594  0.0613  0.3593 -0.5531
  110CHL1    H814341   6.777   6.962  13.598  2.5410  0.6729  0.4904
  110CHL1   C1414342   6.807   6.814  13.449 -0.1257  0.4180  0.1815
  110CHL1   H1414343   6.826   6.705  13.444 -2.2417 -0.0571  1.1807
  110CHL1   C1514344   6.919   6.880  13.370 -0.2361  0.4515 -0.2925
  110CHL1  H15A14345   6.933   6.988  13.396 -2.7209  0.5894  0.7308
  110CHL1  H15B14346   7.014   6.830  13.398 -1.0273 -0.5032  0.7620
  110CHL1   C1614347   6.881   6.871  13.221 -0.0088 -0.5744  0.8707
  110CHL1  H16A14348   6.884   6.967  13.165 -0.5452  0.0190  1.8299
  110CHL1  H16B14349   6.946   6.795  13.174  0.0335  0.5862 -1.0538
  110CHL1   C1714350   6.728   6.817  13.218 -0.0028 -0.2386  0.7191
  110CHL1   H1714351   6.729   6.707  13.205  1.8364 -0.3253  1.2056
  110CHL1   C1314352   6.683   6.840  13.364  0.3957 -0.5710  0.4865
  110CHL1   C1814353   6.630   6.985  13.384 -0.0493  0.0546 -0.4155
  110CHL1  H18A14354   6.699   7.066  13.354 -0.1415  1.0705  1.8610
  110CHL1  H18B14355   6.533   6.999  13.332 -1.2526  1.2763  1.9446
  110CHL1  H18C14356   6.603   7.015  13.488 -1.8623 -0.2913 -0.7566
  110CHL1   C1214357   6.575   6.741  13.415 -0.1875  0.2073  0.2901
  110CHL1  H12A14358   6.474   6.758  13.373  0.0404  2.0891  0.4094
  110CHL1  H12B14359   6.607   6.637  13.393 -1.7489 -0.5717  1.5129
  110CHL1   C1114360   6.556   6.760  13.564 -0.0084 -0.2989 -0.0392
  110CHL1  H11A14361   6.501   6.855  13.579  1.1151  0.4231 -0.4132
  110CHL1  H11B14362   6.500   6.670  13.599  0.1170 -0.8728 -1.2669
  110CHL1    C914363   6.684   6.772  13.661  0.0474  0.0794  0.1464
  110CHL1    H914364   6.713   6.665  13.670 -0.8484 -0.2888 -1.1036
  110CHL1   C1014365   6.663   6.825  13.804  0.5533 -0.2452  0.6290
  110CHL1   C1914366   6.590   6.959  13.821  0.0067  0.5254  0.1305
  110CHL1  H19A14367   6.661   7.030  13.774  2.2266 -0.6675  1.4948
  110CHL1  H19B14368   6.491   6.946  13.773 -0.4566  0.1437  1.1469
  110CHL1  H19C14369   6.566   6.992  13.924  0.5748 -2.3908  1.3029
  110CHL1    C114370   6.589   6.714  13.880  0.1879 -0.5142 -0.7500
  110CHL1   H1A14371   6.486   6.695  13.843  0.2116 -1.0535 -0.5481
  110CHL1   H1B14372   6.647   6.620  13.865  1.8817  0.3059  0.4208
  110CHL1    C214373   6.572   6.743  14.028 -0.0633  0.2132 -0.2734
  110CHL1   H2A14374   6.519   6.671  14.094  2.6030  0.0028  1.7996
  110CHL1   H2B14375   6.513   6.834  14.052  0.2506  1.0656 -2.4999
  110CHL1   C2014376   6.650   6.882  13.096 -0.0047  0.6698  0.1867
  110CHL1   H2014377   6.643   6.988  13.131 -3.2600  0.4948  0.4116
  110CHL1   C2114378   6.507   6.826  13.096 -0.0126  0.5989 -0.9331
  110CHL1  H21A14379   6.460   6.850  12.998 -0.0587  2.7751 -0.4319
  110CHL1  H21B14380   6.446   6.880  13.171  1.0294 -0.8592  1.0525
  110CHL1  H21C14381   6.502   6.718  13.123  0.2911  0.6920 -0.5033
  110CHL1   C2214382   6.716   6.893  12.960 -0.0938  0.7830 -0.4029
  110CHL1  H22A14383   6.648   6.952  12.894 -0.9703  0.5676  0.2827
  110CHL1  H22B14384   6.800   6.966  12.962 -0.1748  0.8695  0.1768
  110CHL1   C2314385   6.751   6.759  12.900  0.0563  0.5752 -0.3203
  110CHL1  H23A14386   6.807   6.709  12.982 -0.8418  0.2549  0.0990
  110CHL1  H23B14387   6.664   6.696  12.874  0.3810 -0.4179  0.9210
  110CHL1   C2414388   6.829   6.774  12.770 -0.2154  0.7717 -0.2005
  110CHL1  H24A14389   6.762   6.821  12.696  0.6599  1.1418 -0.7775
  110CHL1  H24B14390   6.923   6.832  12.786  0.9890 -0.5414 -2.0939
  110CHL1   C2514391   6.864   6.637  12.696 -0.2121 -0.4166 -1.0748
  110CHL1   H2514392   6.938   6.580  12.757  0.9005  0.7550 -1.2990
  110CHL1   C2614393   6.747   6.542  12.669 -0.2768 -0.0903 -0.3675
  110CHL1  H26A14394   6.680   6.600  12.601  0.7783  0.6265 -0.8283
  110CHL1  H26B14395   6.784   6.451  12.617  0.9990  1.4596 -2.3491
  110CHL1  H26C14396   6.693   6.518  12.763 -1.3530  1.0693 -0.6605
  110CHL1   C2714397   6.937   6.655  12.565  0.6972  0.4180  0.5820
  110CHL1  H27A14398   6.875   6.709  12.490  1.3880  0.1255 -0.2110
  110CHL1  H27B14399   7.020   6.724  12.589 -0.2845  2.0145 -0.4093
  110CHL1  H27C14400   6.973   6.556  12.529 -0.5295 -0.4403  1.5776
  111CHL1    C314401   0.848   2.751  13.655  0.3007  0.4996  0.3197
  111CHL1    H314402   0.737   2.762  13.658  0.3972  1.5577  0.6283
  111CHL1    O314403   0.884   2.781  13.790  0.5782  0.2132  0.5265
  111CHL1   H3'14404   0.980   2.782  13.782  0.4393  0.5149 -2.2607
  111CHL1    C414405   0.899   2.608  13.609  0.2741  0.0735  0.0295
  111CHL1   H4A14406   1.010   2.605  13.610  0.3387  1.6168 -0.0327
  111CHL1   H4B14407   0.860   2.539  13.687 -1.2566  0.5903 -0.2431
  111CHL1    C514408   0.849   2.570  13.468 -0.7512 -1.1814 -1.0186
  111CHL1    C614409   0.784   2.456  13.452  0.1781 -0.2053  0.0382
  111CHL1    H614410   0.754   2.393  13.536  2.2210  0.4321  1.3138
  111CHL1    C714411   0.744   2.414  13.312 -0.3362 -0.2602 -0.3990
  111CHL1   H7A14412   0.766   2.306  13.302 -0.0856 -0.2771  0.3336
  111CHL1   H7B14413   0.633   2.423  13.301 -0.4571 -2.5350 -1.5777
  111CHL1    C814414   0.814   2.493  13.199 -0.0532  0.0105  1.2028
  111CHL1    H814415   0.918   2.454  13.193 -0.4510 -0.8830 -0.9051
  111CHL1   C1414416   0.745   2.462  13.067 -0.6074 -0.0016 -0.4665
  111CHL1   H1414417   0.638   2.492  13.072 -1.0652 -1.4684 -1.0552
  111CHL1   C1514418   0.728   2.320  13.022  0.3543  0.7058 -0.1378
  111CHL1  H15A14419   0.825   2.268  13.036  0.1492 -0.4528 -2.4471
  111CHL1  H15B14420   0.650   2.253  13.065  1.8183 -0.7638  0.3266
  111CHL1   C1614421   0.701   2.328  12.866 -0.3200 -0.8333  0.2195
  111CHL1  H16A14422   0.782   2.277  12.811  0.8928  0.6855  0.5312
  111CHL1  H16B14423   0.603   2.284  12.839  0.1594  0.2815 -4.1341
  111CHL1   C1714424   0.714   2.489  12.834  0.2299  0.3806 -0.9365
  111CHL1   H1714425   0.611   2.532  12.841  0.0721 -0.1963  0.4412
  111CHL1   C1314426   0.801   2.544  12.948 -0.0592 -0.1151  0.3860
  111CHL1   C1814427   0.942   2.493  12.910 -0.0285  0.5374 -0.0342
  111CHL1  H18A14428   0.977   2.551  12.821  0.7882 -0.2164 -0.2229
  111CHL1  H18B14429   1.013   2.503  12.995 -1.1522 -1.4207  1.1923
  111CHL1  H18C14430   0.943   2.384  12.886 -2.4858  0.4788 -0.1204
  111CHL1   C1214431   0.801   2.696  12.973  0.0820  0.2481 -0.2615
  111CHL1  H12A14432   0.848   2.750  12.888 -0.2314 -1.0573 -1.3089
  111CHL1  H12B14433   0.698   2.734  12.989 -0.0060  1.9526 -3.9816
  111CHL1   C1114434   0.871   2.732  13.107 -0.0468  0.4535 -0.7794
  111CHL1  H11A14435   0.979   2.716  13.088  0.1149  0.1505  0.3293
  111CHL1  H11B14436   0.855   2.838  13.136  1.3020  0.4227  0.1437
  111CHL1    C914437   0.822   2.642  13.226 -0.0035  0.1354 -0.3564
  111CHL1    H914438   0.719   2.682  13.239 -0.1337  0.2212 -1.5154
  111CHL1   C1014439   0.898   2.668  13.363  0.2936  0.4301 -0.5082
  111CHL1   C1914440   1.052   2.635  13.337 -0.0346 -0.3058 -0.4729
  111CHL1  H19A14441   1.099   2.675  13.429 -1.8301  0.1803  0.2703
  111CHL1  H19B14442   1.084   2.529  13.351  1.1554  0.3338  2.3800
  111CHL1  H19C14443   1.103   2.684  13.252  1.1244  0.7515  0.7846
  111CHL1    C114444   0.874   2.814  13.410 -0.1449  0.1118 -0.1451
  111CHL1   H1A14445   0.937   2.874  13.342  1.2087 -0.5740  0.4486
  111CHL1   H1B14446   0.774   2.858  13.391 -0.7668 -1.3921 -0.5029
  111CHL1    C214447   0.915   2.854  13.558  0.4048 -0.0634  0.0696
  111CHL1   H2A14448   0.877   2.954  13.587 -0.2495 -0.4215  0.4730
  111CHL1   H2B14449   1.026   2.852  13.568  0.4902 -2.2686 -0.6264
  111CHL1   C2014450   0.746   2.510  12.686 -0.1533 -0.1782 -1.2849
  111CHL1   H2014451   0.849   2.468  12.679  0.0355  0.0057  0.1082
  111CHL1   C2114452   0.740   2.661  12.646  0.1799  0.4767 -0.2960
  111CHL1  H21A14453   0.666   2.717  12.706 -0.8421 -3.0268  2.0007
  111CHL1  H21B14454   0.720   2.664  12.536 -0.7881 -2.1726 -0.2660
  111CHL1  H21C14455   0.835   2.717  12.659  0.6102  0.1619 -1.8482
  111CHL1   C2214456   0.660   2.433  12.590 -0.1180  0.1583  0.5362
  111CHL1  H22A14457   0.651   2.326  12.618 -1.8656 -0.3387 -1.6664
  111CHL1  H22B14458   0.559   2.477  12.573 -0.3854 -0.2956  0.9139
  111CHL1   C2314459   0.726   2.403  12.453  0.0338  0.3015 -0.4039
  111CHL1  H23A14460   0.749   2.494  12.394  0.5047 -0.2968 -1.1613
  111CHL1  H23B14461   0.820   2.347  12.472  0.5682  1.1072 -0.6021
  111CHL1   C2414462   0.642   2.304  12.374 -0.0587  0.5006  0.3921
  111CHL1  H24A14463   0.595   2.228  12.440  0.0423  0.8867  0.9143
  111CHL1  H24B14464   0.567   2.372  12.329 -0.7217  0.2219  1.0721
  111CHL1   C2514465   0.717   2.228  12.270 -0.7960 -0.1734  0.0206
  111CHL1   H2514466   0.639   2.190  12.200 -2.1173  0.3780  1.1288
  111CHL1   C2614467   0.799   2.328  12.186 -0.2206  1.4685 -0.2890
  111CHL1  H26A14468   0.870   2.387  12.247  0.6390  0.4887 -0.3225
  111CHL1  H26B14469   0.856   2.267  12.113 -1.2178 -0.9222  0.8168
  111CHL1  H26C14470   0.727   2.398  12.138 -0.5300 -0.2454 -2.4881
  111CHL1   C2714471   0.812   2.121  12.323  0.7419  0.1212  0.2573
  111CHL1  H27A14472   0.862   2.070  12.237 -0.1264  0.1732 -0.2966
  111CHL1  H27B14473   0.885   2.165  12.394  2.4514 -0.5973 -0.9762
  111CHL1  H27C14474   0.751   2.041  12.370  0.5914 -0.5964 -1.0881
  112CHL1    C314475   3.230   3.214  14.351 -0.5234 -0.0493 -0.3742
  112CHL1    H314476   3.337   3.188  14.337 -0.0141  0.7733  1.6525
  112CHL1    O314477   3.203   3.233  14.483  0.0668 -0.2522 -0.2597
  112CHL1   H3'14478   3.129   3.174  14.497  0.6656 -0.9268  0.1008
  112CHL1    C414479   3.191   3.339  14.276  0.0049 -0.2375 -0.3107
  112CHL1   H4A14480   3.083   3.351  14.298 -0.4421 -2.0637 -1.2840
  112CHL1   H4B14481   3.251   3.421  14.320  0.4663 -2.1441  2.9618
  112CHL1    C514482   3.195   3.331  14.119 -0.6015  0.2239  0.6199
  112CHL1    C614483   3.267   3.416  14.048  0.0579  0.0014 -0.3406
  112CHL1    H614484   3.320   3.505  14.084 -1.1779  0.5308  0.2510
  112CHL1    C714485   3.274   3.407  13.902  0.7578 -0.1171  0.0118
  112CHL1   H7A14486   3.284   3.508  13.855 -3.3525  0.1658 -0.6464
  112CHL1   H7B14487   3.369   3.351  13.885 -0.2741 -2.2401  0.8898
  112CHL1    C814488   3.162   3.327  13.828  0.0962  0.7268 -0.5606
  112CHL1    H814489   3.065   3.381  13.834 -0.8897 -1.1140  0.9336
  112CHL1   C1414490   3.184   3.313  13.681  0.2603 -0.7055 -0.0868
  112CHL1   H1414491   3.284   3.266  13.669  0.8389  0.8091 -1.6590
  112CHL1   C1514492   3.197   3.437  13.593  0.2573 -0.0445 -0.3439
  112CHL1  H15A14493   3.121   3.514  13.618  1.4149  0.6375  1.2965
  112CHL1  H15B14494   3.299   3.480  13.604 -0.0992  0.6221  0.4405
  112CHL1   C1614495   3.178   3.386  13.449 -0.0047 -0.3904 -0.1439
  112CHL1  H16A14496   3.095   3.448  13.410 -0.8352 -1.1182  0.4321
  112CHL1  H16B14497   3.272   3.398  13.392 -0.0326 -1.4456 -0.4315
  112CHL1   C1714498   3.130   3.236  13.458 -0.1749 -0.1357  0.0399
  112CHL1   H1714499   3.225   3.180  13.443 -0.5306 -0.8142  0.2769
  112CHL1   C1314500   3.081   3.227  13.608 -0.7686  0.5750  0.4038
  112CHL1   C1814501   2.942   3.286  13.614  0.0886 -1.1397  0.3945
  112CHL1  H18A14502   2.901   3.284  13.717 -0.0207  0.2500  0.4073
  112CHL1  H18B14503   2.945   3.390  13.575 -2.2916 -1.2489 -0.2599
  112CHL1  H18C14504   2.861   3.243  13.552  0.2551 -1.7854  0.6260
  112CHL1   C1214505   3.098   3.084  13.678 -0.2575 -0.0528 -0.5334
  112CHL1  H12A14506   3.030   3.013  13.625  0.2896 -0.6682 -0.4312
  112CHL1  H12B14507   3.196   3.040  13.650  0.5715  0.9243  0.7477
  112CHL1   C1114508   3.072   3.086  13.829 -0.1472  0.6786 -0.5878
  112CHL1  H11A14509   2.963   3.110  13.823 -0.0512  0.8178 -1.8679
  112CHL1  H11B14510   3.103   2.986  13.865  0.3812  1.5177  1.4591
  112CHL1    C914511   3.155   3.191  13.898 -0.9785  0.0793  0.2570
  112CHL1    H914512   3.258   3.150  13.892 -0.8526  0.5923 -1.8396
  112CHL1   C1014513   3.128   3.210  14.051  0.0739  0.8143 -0.5678
  112CHL1   C1914514   2.984   3.225  14.077  0.3110 -0.5560  0.0047
  112CHL1  H19A14515   2.947   3.307  14.012  0.9225 -0.7427 -0.5849
  112CHL1  H19B14516   2.923   3.139  14.043  0.1050 -0.6991  0.7166
  112CHL1  H19C14517   2.952   3.252  14.180  0.6941 -0.5770  0.1277
  112CHL1    C114518   3.176   3.083  14.134 -0.1899  0.1250  0.0001
  112CHL1   H1A14519   3.122   2.992  14.100  1.5019 -0.2456 -1.8695
  112CHL1   H1B14520   3.284   3.065  14.114  0.2109  2.4942 -0.3100
  112CHL1    C214521   3.151   3.098  14.286 -0.6575 -0.1670 -0.4281
  112CHL1   H2A14522   3.172   2.999  14.333 -2.7840 -1.0972 -1.3066
  112CHL1   H2B14523   3.041   3.100  14.297 -0.8243 -2.2539 -1.1941
  112CHL1   C2014524   3.035   3.182  13.349  0.5068 -0.1250  0.8500
  112CHL1   H2014525   2.933   3.220  13.371  0.1337 -0.0373 -0.8986
  112CHL1   C2114526   3.016   3.033  13.359 -0.1589 -0.2070  0.0097
  112CHL1  H21A14527   3.118   2.992  13.376 -0.0353  0.0821 -0.0285
  112CHL1  H21B14528   2.982   2.998  13.260 -1.0201 -1.2383  0.6524
  112CHL1  H21C14529   2.955   2.990  13.441 -1.0209 -0.5358 -0.7847
  112CHL1   C2214530   3.064   3.230  13.209 -0.0169 -0.3163  0.1285
  112CHL1  H22A14531   2.986   3.186  13.143  0.5592  1.4267 -1.7992
  112CHL1  H22B14532   3.050   3.340  13.203  0.0550 -0.0833  2.7856
  112CHL1   C2314533   3.197   3.196  13.159  0.0587 -0.1054 -0.0875
  112CHL1  H23A14534   3.273   3.263  13.205 -1.3576  1.3485  0.2248
  112CHL1  H23B14535   3.231   3.098  13.198  2.0317  1.1155  1.5332
  112CHL1   C2414536   3.197   3.197  13.010  0.2202  0.3834 -0.5267
  112CHL1  H24A14537   3.113   3.132  12.976 -0.1322  1.1256 -1.1015
  112CHL1  H24B14538   3.175   3.303  12.984 -0.1107  0.0919 -1.4602
  112CHL1   C2514539   3.335   3.155  12.947 -0.4870 -0.2539 -0.3244
  112CHL1   H2514540   3.341   3.050  12.985 -0.5605  0.3210  1.3827
  112CHL1   C2614541   3.324   3.164  12.796  0.2496  0.3632  0.1640
  112CHL1  H26A14542   3.279   3.264  12.777 -0.3828 -0.0523 -0.5524
  112CHL1  H26B14543   3.421   3.167  12.741  0.5657 -1.0106  0.6138
  112CHL1  H26C14544   3.253   3.093  12.751  1.0854 -0.1698 -0.3477
  112CHL1   C2714545   3.460   3.225  13.002 -0.3989 -0.0868  0.4616
  112CHL1  H27A14546   3.550   3.190  12.947 -2.8531 -2.3723 -2.4867
  112CHL1  H27B14547   3.447   3.335  12.990 -0.3581  0.2192  2.7256
  112CHL1  H27C14548   3.461   3.202  13.111 -0.1620 -1.0517  0.2643
  113CHL1    C314549   6.156   0.038  14.110  0.0517 -0.4936 -0.3780
  113CHL1    H314550   6.266   0.054  14.096 -0.2655  0.6334 -1.8451
  113CHL1    O314551   6.135   0.034  14.247  0.7167 -0.5809 -0.5229
  113CHL1   H3'14552   6.045   0.002  14.251  0.8303 -0.8137  0.1696
  113CHL1    C414553   6.078   0.156  14.049  0.2132  0.1294 -0.6821
  113CHL1   H4A14554   5.968   0.149  14.065  0.1667  2.2131  0.3018
  113CHL1   H4B14555   6.111   0.249  14.101  0.5372 -1.2659  1.7727
  113CHL1    C514556   6.095   0.155  13.897 -0.8178 -0.5761 -0.0908
  113CHL1    C614557   6.154   0.257  13.837 -0.4288  0.6339 -0.0639
  113CHL1    H614558   6.187   0.341  13.900  1.9489 -0.7895  0.7374
  113CHL1    C714559   6.173   0.263  13.689 -0.3786  0.5789 -0.0428
  113CHL1   H7A14560   6.127   0.357  13.652 -0.9626 -0.6690 -2.7177
  113CHL1   H7B14561   6.277   0.239  13.659 -0.5220  1.0530 -0.9480
  113CHL1    C814562   6.099   0.155  13.608  0.0862 -0.1305  0.5384
  113CHL1    H814563   5.992   0.184  13.605 -0.6803 -2.4538  2.2841
  113CHL1   C1414564   6.147   0.153  13.466  0.1023  0.8619  0.2946
  113CHL1   H1414565   6.249   0.109  13.466 -0.9516 -1.7609 -0.5321
  113CHL1   C1514566   6.165   0.282  13.391  0.5367  0.0591  0.2831
  113CHL1  H15A14567   6.073   0.340  13.415  0.0580 -0.2677 -0.7105
  113CHL1  H15B14568   6.251   0.346  13.423  0.4385 -0.2642  1.2127
  113CHL1   C1614569   6.173   0.239  13.243  0.1092  0.5077 -0.1349
  113CHL1  H16A14570   6.107   0.310  13.189  1.2575  1.5803 -0.1726
  113CHL1  H16B14571   6.275   0.254  13.202 -0.6248  1.1812 -1.7716
  113CHL1   C1714572   6.137   0.089  13.233 -0.1282 -0.2098 -0.1440
  113CHL1   H1714573   6.234   0.035  13.225 -0.5215 -0.8593 -0.6505
  113CHL1   C1314574   6.062   0.067  13.366  0.1455 -0.6138 -0.2916
  113CHL1   C1814575   5.913   0.121  13.354 -0.3574  0.4390  0.2172
  113CHL1  H18A14576   5.872   0.117  13.458 -2.4596 -1.3491 -0.5890
  113CHL1  H18B14577   5.908   0.223  13.309  3.3569 -0.2541 -2.2031
  113CHL1  H18C14578   5.846   0.059  13.290 -1.3692  0.6431  1.0442
  113CHL1   C1214579   6.061  -0.074  13.430  0.2954  0.3421  0.0722
  113CHL1  H12A14580   6.002  -0.151  13.375  2.6880 -2.1932  0.8624
  113CHL1  H12B14581   6.167  -0.105  13.428  0.9659  2.4374 -2.0042
  113CHL1   C1114582   6.022  -0.078  13.578 -0.1296 -0.0015 -0.3191
  113CHL1  H11A14583   5.912  -0.068  13.584 -0.3757 -0.5988 -2.7177
  113CHL1  H11B14584   6.044  -0.183  13.606  0.4611 -0.4640 -2.3391
  113CHL1    C914585   6.104   0.018  13.668  0.3165 -0.2028 -0.2423
  113CHL1    H914586   6.212  -0.008  13.661 -0.5229 -4.1931 -0.9626
  113CHL1   C1014587   6.052   0.021  13.819  0.6216 -0.4653 -0.5051
  113CHL1   C1914588   5.903  -0.001  13.824 -0.1022  0.6828 -0.6724
  113CHL1  H19A14589   5.848   0.065  13.753 -0.7620 -0.2216 -1.0291
  113CHL1  H19B14590   5.885  -0.107  13.795 -0.9683  0.6756 -0.1480
  113CHL1  H19C14591   5.869   0.003  13.930  2.7747 -0.8115  0.4176
  113CHL1    C114592   6.130  -0.086  13.895  0.7541 -0.0429  0.0102
  113CHL1   H1A14593   6.092  -0.181  13.852 -0.2633 -1.0967  2.9692
  113CHL1   H1B14594   6.237  -0.072  13.871  0.9365  0.1659  0.9030
  113CHL1    C214595   6.107  -0.087  14.048  0.3489  0.2971  0.4639
  113CHL1   H2A14596   6.170  -0.175  14.074 -1.8363 -1.3601  0.4914
  113CHL1   H2B14597   6.003  -0.099  14.085  0.5455  0.5774  1.1310
  113CHL1   C2014598   6.075   0.050  13.100 -0.3703  0.4480 -0.2633
  113CHL1   H2014599   5.986   0.115  13.087 -2.6116 -2.6499 -1.3449
  113CHL1   C2114600   6.020  -0.092  13.095  0.7835  0.7976  0.2413
  113CHL1  H21A14601   5.957  -0.110  13.005  2.2473 -1.1853 -0.4794
  113CHL1  H21B14602   5.964  -0.117  13.187 -0.7963  0.4631 -0.7844
  113CHL1  H21C14603   6.110  -0.154  13.073  1.8256  2.9520 -2.1562
  113CHL1   C2214604   6.166   0.066  12.976 -0.6642  0.1122  0.7182
  113CHL1  H22A14605   6.223   0.161  12.979  1.7823 -1.2865  2.2002
  113CHL1  H22B14606   6.243  -0.012  12.962 -0.9182  0.2330 -1.8142
  113CHL1   C2314607   6.088   0.080  12.838  0.2188  0.0930 -0.2358
  113CHL1  H23A14608   6.015  -0.003  12.825  0.8061 -0.4183 -0.3098
  113CHL1  H23B14609   6.019   0.166  12.846 -3.1252 -2.4715  0.6478
  113CHL1   C2414610   6.172   0.097  12.713 -0.2223 -0.2127 -0.4734
  113CHL1  H24A14611   6.255   0.171  12.716 -1.8130  1.6306 -0.2250
  113CHL1  H24B14612   6.227  -0.000  12.713 -3.6155 -2.3581  1.3506
  113CHL1   C2514613   6.092   0.114  12.580  0.4016 -0.0836  0.9774
  113CHL1   H2514614   6.036   0.210  12.584 -1.0766 -0.9469  2.1650
  113CHL1   C2614615   6.197   0.105  12.463 -0.0943 -0.7742 -0.4493
  113CHL1  H26A14616   6.267   0.191  12.466 -1.3280  0.4666 -3.5823
  113CHL1  H26B14617   6.270   0.022  12.475  1.9371  0.6340 -2.3166
  113CHL1  H26C14618   6.149   0.093  12.364 -1.0883  1.4661 -0.3166
  113CHL1   C2714619   5.980   0.013  12.550 -1.0028 -0.3350  0.2886
  113CHL1  H27A14620   6.025  -0.086  12.529 -2.6137 -0.8502 -0.9706
  113CHL1  H27B14621   5.903  -0.000  12.630 -0.2165 -0.5488  1.0242
  113CHL1  H27C14622   5.919   0.041  12.461 -0.6219 -0.7526 -0.1104
  114CHL1    C314623   2.579   1.290  13.786  0.2437 -1.0510  0.4287
  114CHL1    H314624   2.557   1.191  13.741 -0.6883  0.1506 -1.9399
  114CHL1    O314625   2.568   1.276  13.926 -0.3666 -0.9506 -0.4270
  114CHL1   H3'14626   2.504   1.339  13.958  1.2856  1.0949 -0.9311
  114CHL1    C414627   2.716   1.344  13.748  0.3808  0.3485  0.2545
  114CHL1   H4A14628   2.731   1.446  13.789  2.3322  1.3510 -2.6511
  114CHL1   H4B14629   2.791   1.277  13.797 -0.5854 -0.0301  1.2602
  114CHL1    C514630   2.745   1.353  13.600 -0.3118  0.8305 -0.8855
  114CHL1    C614631   2.853   1.302  13.535 -0.2966  0.7929 -0.6091
  114CHL1    H614632   2.931   1.244  13.587 -0.7047 -0.7651 -1.6628
  114CHL1    C714633   2.882   1.302  13.386 -0.1628  0.0193  0.2454
  114CHL1   H7A14634   2.986   1.339  13.374 -0.3931  0.7049  0.3224
  114CHL1   H7B14635   2.880   1.199  13.345  3.1326 -0.8126  1.8225
  114CHL1    C814636   2.790   1.404  13.312  0.1201 -0.5174  0.6724
  114CHL1    H814637   2.818   1.511  13.326  0.6388 -0.0400 -2.9554
  114CHL1   C1414638   2.790   1.373  13.163 -0.5131  0.0161  0.1629
  114CHL1   H1414639   2.747   1.271  13.163  0.0464 -0.2582  2.1046
  114CHL1   C1514640   2.926   1.351  13.097  0.8286 -0.9408 -0.2929
  114CHL1  H15A14641   2.999   1.426  13.136  0.9558 -1.9668  1.5883
  114CHL1  H15B14642   2.970   1.252  13.125 -0.2784 -1.5248 -0.5435
  114CHL1   C1614643   2.895   1.363  12.949  0.0416  0.2726 -0.3238
  114CHL1  H16A14644   2.961   1.436  12.897  0.3579 -0.0605 -0.3917
  114CHL1  H16B14645   2.901   1.263  12.901  0.4872 -0.6476  1.5519
  114CHL1   C1714646   2.742   1.399  12.940 -0.0893  0.4243 -0.4697
  114CHL1   H1714647   2.684   1.305  12.930 -1.9821  1.4053  0.6588
  114CHL1   C1314648   2.710   1.469  13.076 -0.0962  0.1885 -0.4725
  114CHL1   C1814649   2.772   1.617  13.082 -0.1286 -0.5989  0.4395
  114CHL1  H18A14650   2.883   1.617  13.090 -0.0822 -0.2620 -0.1568
  114CHL1  H18B14651   2.743   1.680  12.995  0.5380  0.8652  1.2466
  114CHL1  H18C14652   2.742   1.663  13.179  0.1799  1.3379 -0.3378
  114CHL1   C1214653   2.563   1.459  13.125  0.2164  0.9211  0.4633
  114CHL1  H12A14654   2.519   1.548  13.074  1.2009  0.8400 -0.5885
  114CHL1  H12B14655   2.517   1.363  13.095 -1.5420  1.0212  2.5966
  114CHL1   C1114656   2.547   1.463  13.280 -0.5011  0.4294 -0.0491
  114CHL1  H11A14657   2.570   1.571  13.293  0.3056  0.2811 -0.2054
  114CHL1  H11B14658   2.442   1.447  13.314 -0.4044  0.2466  0.1687
  114CHL1    C914659   2.651   1.387  13.368  0.6149 -0.5086  0.5027
  114CHL1    H914660   2.627   1.279  13.362 -2.6302  0.1665 -0.2595
  114CHL1   C1014661   2.638   1.425  13.524 -0.1255  1.5796  0.1400
  114CHL1   C1914662   2.658   1.580  13.544 -0.3132 -0.3585  0.1650
  114CHL1  H19A14663   2.644   1.611  13.649  0.6709  1.2308 -0.1479
  114CHL1  H19B14664   2.759   1.615  13.515 -0.8242  1.0485 -0.0066
  114CHL1  H19C14665   2.588   1.639  13.480 -1.5709 -2.3559 -0.4116
  114CHL1    C114666   2.494   1.394  13.577 -0.0236 -0.2509  0.1242
  114CHL1   H1A14667   2.422   1.470  13.541 -1.6969  0.1503  3.9121
  114CHL1   H1B14668   2.467   1.298  13.528  0.5934  0.1845 -1.1319
  114CHL1    C214669   2.471   1.383  13.733  0.2147  0.1510  0.8747
  114CHL1   H2A14670   2.373   1.330  13.740 -0.6479  1.0262 -2.5072
  114CHL1   H2B14671   2.478   1.481  13.783 -0.8476  0.9791 -0.5079
  114CHL1   C2014672   2.719   1.476  12.811 -0.2906  0.3586  0.1522
  114CHL1   H2014673   2.777   1.571  12.809 -1.5414  1.1406 -1.3292
  114CHL1   C2114674   2.575   1.519  12.802  0.1249 -0.1568  0.2698
  114CHL1  H21A14675   2.508   1.433  12.823 -2.5154  1.3043 -1.5470
  114CHL1  H21B14676   2.548   1.549  12.698  0.4349 -3.2379 -0.7784
  114CHL1  H21C14677   2.557   1.590  12.886 -1.3742 -0.8430  0.5616
  114CHL1   C2214678   2.767   1.398  12.687 -0.1713  0.6383 -0.6972
  114CHL1  H22A14679   2.876   1.378  12.694 -0.4039 -0.5984 -0.4336
  114CHL1  H22B14680   2.716   1.299  12.680  0.5191  0.3485 -1.9223
  114CHL1   C2314681   2.768   1.472  12.552 -0.3049 -0.0179  0.1335
  114CHL1  H23A14682   2.666   1.503  12.518 -0.6507 -2.4589 -1.3166
  114CHL1  H23B14683   2.825   1.566  12.564  1.8117 -1.1181 -0.8236
  114CHL1   C2414684   2.832   1.398  12.438 -0.4127  0.6935  0.2344
  114CHL1  H24A14685   2.920   1.341  12.474 -1.7117  0.1574  2.8635
  114CHL1  H24B14686   2.756   1.323  12.407 -0.1527  0.5087  0.0360
  114CHL1   C2514687   2.837   1.473  12.309 -1.2779 -0.1719 -0.2426
  114CHL1   H2514688   2.753   1.542  12.291 -0.5133  0.3821 -1.9262
  114CHL1   C2614689   2.959   1.575  12.297  0.5379 -0.0533 -0.0621
  114CHL1  H26A14690   2.950   1.626  12.198 -0.2579 -0.8978 -0.4476
  114CHL1  H26B14691   2.955   1.655  12.374  0.2209 -0.3236  0.2024
  114CHL1  H26C14692   3.058   1.529  12.316  0.2494 -1.2005 -1.1405
  114CHL1   C2714693   2.843   1.378  12.188  1.0689  0.1801 -0.4287
  114CHL1  H27A14694   2.856   1.448  12.103 -2.4759  0.0345 -1.2488
  114CHL1  H27B14695   2.927   1.306  12.191  0.2643 -0.8712 -1.9814
  114CHL1  H27C14696   2.749   1.322  12.167  0.6179  1.1149 -0.9421
  115CHL1    C314697   0.018   3.364  13.886 -0.4121  0.3995 -0.2821
  115CHL1    H314698  -0.083   3.334  13.851 -0.4183  1.2401 -1.0436
  115CHL1    O314699   0.051   3.361  14.027 -0.1960 -0.4880 -0.2533
  115CHL1   H3'14700   0.082   3.448  14.054 -2.2638  0.0924  0.3956
  115CHL1    C414701   0.115   3.267  13.813  0.4286  0.0156 -0.2403
  115CHL1   H4A14702   0.221   3.290  13.837  0.6299  0.4496 -1.4884
  115CHL1   H4B14703   0.087   3.169  13.857  1.7529 -0.3642 -0.2152
  115CHL1    C514704   0.103   3.276  13.661  1.0512  0.0841  0.4887
  115CHL1    C614705   0.066   3.162  13.593 -0.5984 -0.6869 -0.0287
  115CHL1    H614706   0.069   3.068  13.649  0.1545 -0.8988 -0.4214
  115CHL1    C714707   0.054   3.154  13.442  0.6148 -0.1047  0.1203
  115CHL1   H7A14708   0.111   3.067  13.404  0.2758 -1.3509  2.3467
  115CHL1   H7B14709  -0.054   3.149  13.415  0.3376  1.9010  0.6645
  115CHL1    C814710   0.114   3.287  13.369 -0.3243 -0.0304  0.1190
  115CHL1    H814711   0.225   3.282  13.375 -0.2632  1.7230  1.5279
  115CHL1   C1414712   0.064   3.297  13.224 -0.2114  0.1131 -0.7790
  115CHL1   H1414713  -0.047   3.295  13.217 -0.1855  0.0764 -1.2067
  115CHL1   C1514714   0.105   3.178  13.137 -0.1202  0.8760 -0.2487
  115CHL1  H15A14715   0.211   3.150  13.152 -0.6449 -1.2720 -0.1677
  115CHL1  H15B14716   0.048   3.083  13.148 -0.2066  1.1775  2.8187
  115CHL1   C1614717   0.098   3.223  12.992 -0.2278 -0.0961  0.0033
  115CHL1  H16A14718   0.202   3.213  12.954  0.9357 -0.8701  3.0923
  115CHL1  H16B14719   0.024   3.171  12.928 -1.2660  2.6471 -1.1919
  115CHL1   C1714720   0.066   3.373  13.008  0.1634 -0.0773 -0.0337
  115CHL1   H1714721  -0.045   3.378  13.003 -0.0923  0.0393  3.5116
  115CHL1   C1314722   0.116   3.416  13.146 -0.2384  0.4575 -0.3269
  115CHL1   C1814723   0.272   3.420  13.146  0.0805 -0.5586 -0.2002
  115CHL1  H18A14724   0.316   3.503  13.087  2.4171 -2.0027 -0.6559
  115CHL1  H18B14725   0.303   3.429  13.253 -0.8911 -0.5881  0.0891
  115CHL1  H18C14726   0.323   3.330  13.105  0.3197 -1.2479  1.4945
  115CHL1   C1214727   0.051   3.544  13.219  0.4222  0.3100  0.0010
  115CHL1  H12A14728   0.092   3.634  13.171 -3.3561  2.5039  0.4879
  115CHL1  H12B14729  -0.060   3.533  13.212  0.6711 -1.5264 -2.0745
  115CHL1   C1114730   0.084   3.545  13.375 -0.1036  0.0270  0.0747
  115CHL1  H11A14731   0.189   3.580  13.377  0.6338 -1.9376 -1.9358
  115CHL1  H11B14732   0.019   3.625  13.418  1.3171  0.9596  0.5803
  115CHL1    C914733   0.065   3.411  13.450 -1.0192 -0.0243  0.1757
  115CHL1    H914734  -0.045   3.398  13.442 -0.8869 -1.0733 -0.0738
  115CHL1   C1014735   0.111   3.417  13.601 -0.4440 -0.0158  0.4790
  115CHL1   C1914736   0.258   3.459  13.604 -0.5338 -0.2019 -0.3084
  115CHL1  H19A14737   0.293   3.466  13.709 -3.5952 -0.1526  0.8339
  115CHL1  H19B14738   0.321   3.384  13.551 -1.0047 -0.9987  0.2392
  115CHL1  H19C14739   0.282   3.559  13.563  1.6586  0.5498  2.5089
  115CHL1    C114740   0.026   3.513  13.683  0.0969 -0.3225  0.5312
  115CHL1   H1A14741   0.062   3.611  13.645  0.1859 -0.2080  0.9048
  115CHL1   H1B14742  -0.076   3.491  13.647 -0.2721 -0.5399  1.6614
  115CHL1    C214743   0.036   3.511  13.836 -0.3940  0.5260  0.0523
  115CHL1   H2A14744  -0.031   3.585  13.884 -0.9317  0.9896 -1.3759
  115CHL1   H2B14745   0.139   3.545  13.860  0.2388 -1.2973  0.0670
  115CHL1   C2014746   0.105   3.455  12.880 -0.0310 -0.0152 -0.0528
  115CHL1   H2014747   0.215   3.472  12.878  0.0335 -0.0692  1.5497
  115CHL1   C2114748   0.033   3.595  12.885  0.4948  0.3938  0.2196
  115CHL1  H21A14749  -0.075   3.573  12.901  0.7724 -0.5804  0.8209
  115CHL1  H21B14750   0.039   3.637  12.782  1.0030 -0.3165 -0.0507
  115CHL1  H21C14751   0.064   3.668  12.963  1.8672 -0.8039  0.8265
  115CHL1   C2214752   0.074   3.386  12.742  0.1678  0.6466 -0.5176
  115CHL1  H22A14753   0.119   3.458  12.669  0.7824  2.2144  1.3135
  115CHL1  H22B14754   0.143   3.299  12.735  2.4818  2.3988 -0.6779
  115CHL1   C2314755  -0.065   3.344  12.717 -0.4182  0.7915 -0.0264
  115CHL1  H23A14756  -0.091   3.268  12.794  0.9432 -0.8920 -1.1835
  115CHL1  H23B14757  -0.131   3.428  12.749  0.7560  1.0413  1.8596
  115CHL1   C2414758  -0.092   3.311  12.577 -0.7130  0.7370  0.1736
  115CHL1  H24A14759  -0.199   3.292  12.555 -0.4205 -0.3120 -0.4489
  115CHL1  H24B14760  -0.067   3.395  12.508  0.6254  1.3421  1.3521
  115CHL1   C2514761  -0.012   3.189  12.521 -0.0416  0.1688 -0.3584
  115CHL1   H2514762   0.096   3.213  12.528 -0.0159 -0.1329  0.4308
  115CHL1   C2614763  -0.035   3.055  12.598  0.2336  0.5001  0.2671
  115CHL1  H26A14764  -0.143   3.033  12.606  0.0645  1.1384 -0.1714
  115CHL1  H26B14765   0.028   2.975  12.553  1.3456  1.0363  0.8272
  115CHL1  H26C14766   0.005   3.061  12.702 -0.4300  1.7464  0.4750
  115CHL1   C2714767  -0.050   3.167  12.374  0.2196 -0.2569 -0.8189
  115CHL1  H27A14768  -0.005   3.079  12.322 -0.0673 -0.4317 -0.7768
  115CHL1  H27B14769  -0.160   3.152  12.366 -0.1273  0.6369  1.6295
  115CHL1  H27C14770  -0.031   3.264  12.323  0.4533  0.9521  1.4458
  116CHL1    C314771   1.125   2.164  13.957 -0.0164 -0.3874 -0.1063
  116CHL1    H314772   1.133   2.054  13.972 -1.9706 -0.5418  0.0582
  116CHL1    O314773   1.111   2.222  14.081  0.4483  0.1414  0.4708
  116CHL1   H3'14774   1.105   2.314  14.054  2.2701  0.1499  0.0119
  116CHL1    C414775   1.250   2.217  13.882  0.4454  0.2358  0.1909
  116CHL1   H4A14776   1.254   2.328  13.882  1.3373  0.3054 -3.1090
  116CHL1   H4B14777   1.334   2.175  13.941  1.1287 -0.5234 -1.2670
  116CHL1    C514778   1.263   2.168  13.739 -0.3967 -0.9755  0.6547
  116CHL1    C614779   1.369   2.111  13.687  0.1017 -0.1079  0.3895
  116CHL1    H614780   1.462   2.089  13.741  0.1713 -0.8537 -0.0161
  116CHL1    C714781   1.378   2.085  13.534 -0.3545  0.0988 -0.1242
  116CHL1   H7A14782   1.476   2.129  13.506  0.1184 -2.0289 -2.0447
  116CHL1   H7B14783   1.382   1.977  13.508  0.3628  0.0401  0.2291
  116CHL1    C814784   1.262   2.140  13.449  0.3301 -0.4220 -0.0362
  116CHL1    H814785   1.276   2.250  13.446  0.3413 -0.1623  4.1574
  116CHL1   C1414786   1.253   2.075  13.314  0.1666 -0.1938  0.3262
  116CHL1   H1414787   1.240   1.967  13.337  1.1251 -0.6015 -0.9469
  116CHL1   C1514788   1.382   2.063  13.229  0.2552 -0.0348 -0.4329
  116CHL1  H15A14789   1.438   2.159  13.238  0.4676 -0.3217  1.8533
  116CHL1  H15B14790   1.442   1.985  13.281 -1.8113  0.0139  2.2163
  116CHL1   C1614791   1.336   2.028  13.090  0.3911 -0.0075 -0.1141
  116CHL1  H16A14792   1.380   2.117  13.040  1.5902 -0.6318 -0.2105
  116CHL1  H16B14793   1.382   1.937  13.046 -0.5289 -0.3307 -0.4379
  116CHL1   C1714794   1.184   2.021  13.094 -0.1933 -0.4665 -0.0982
  116CHL1   H1714795   1.161   1.917  13.124 -0.9305 -0.2224  0.2304
  116CHL1   C1314796   1.143   2.118  13.210 -0.3888 -0.4440  0.1540
  116CHL1   C1814797   1.154   2.263  13.175  0.0740 -0.1114 -0.0807
  116CHL1  H18A14798   1.069   2.303  13.117 -0.0047 -0.0775  0.0575
  116CHL1  H18B14799   1.159   2.324  13.267 -0.6215  0.4783 -0.4313
  116CHL1  H18C14800   1.240   2.288  13.109 -0.3862  1.8600  0.0200
  116CHL1   C1214801   1.017   2.093  13.289  0.2820  0.3089  0.0832
  116CHL1  H12A14802   0.931   2.133  13.230  1.5142  1.4886 -0.9767
  116CHL1  H12B14803   0.997   1.984  13.298  2.0831 -0.0054  0.6000
  116CHL1   C1114804   1.008   2.154  13.433  0.9227  0.9348 -0.3233
  116CHL1  H11A14805   1.000   2.264  13.421 -0.7896  0.6254 -2.7120
  116CHL1  H11B14806   0.917   2.107  13.476  1.7610 -0.2509  0.2383
  116CHL1    C914807   1.130   2.117  13.521 -0.0902 -0.2949 -0.6799
  116CHL1    H914808   1.129   2.011  13.554  2.9740  0.3531  2.0672
  116CHL1   C1014809   1.129   2.185  13.657  1.1577 -0.1490  0.3881
  116CHL1   C1914810   1.098   2.342  13.651  0.3476  0.2766 -0.1478
  116CHL1  H19A14811   1.118   2.397  13.746 -0.8517 -0.2103  0.4177
  116CHL1  H19B14812   1.152   2.395  13.570 -1.1887 -0.0041 -1.3911
  116CHL1  H19C14813   0.990   2.354  13.630 -0.0692 -2.2416  0.2680
  116CHL1    C114814   1.008   2.128  13.737  0.0345 -0.2552  0.2579
  116CHL1   H1A14815   0.915   2.155  13.682  1.1915  0.0124 -1.6576
  116CHL1   H1B14816   1.008   2.017  13.750  0.8212 -0.1720  1.0800
  116CHL1    C214817   0.999   2.190  13.883  0.1639 -0.2148 -0.2967
  116CHL1   H2A14818   0.917   2.145  13.943 -0.1329 -1.4648 -1.5909
  116CHL1   H2B14819   0.971   2.296  13.866  0.9309 -0.3192 -2.5100
  116CHL1   C2014820   1.115   2.065  12.967 -0.0749  0.5940  0.7019
  116CHL1   H2014821   1.046   2.153  12.973 -0.2378  0.4967  0.3026
  116CHL1   C2114822   1.017   1.954  12.924  0.0459  0.0241  0.2793
  116CHL1  H21A14823   1.069   1.859  12.899  0.5267  0.6069 -1.0109
  116CHL1  H21B14824   0.957   1.993  12.839 -0.5627 -1.0248  0.2081
  116CHL1  H21C14825   0.952   1.924  13.010  0.5469 -0.0255  0.6463
  116CHL1   C2214826   1.196   2.102  12.841  0.1736 -0.2463  0.4330
  116CHL1  H22A14827   1.288   2.160  12.864  1.7805 -1.0993 -3.0683
  116CHL1  H22B14828   1.231   2.009  12.790 -0.1815 -0.0036 -0.2600
  116CHL1   C2314829   1.121   2.198  12.741 -0.0608  0.4557 -0.1018
  116CHL1  H23A14830   1.027   2.145  12.713  0.7421 -1.3792  0.5855
  116CHL1  H23B14831   1.103   2.298  12.788  0.8934  0.6268 -0.0822
  116CHL1   C2414832   1.206   2.222  12.609  0.5097  0.3082 -0.3163
  116CHL1  H24A14833   1.300   2.280  12.624  0.5623  0.3685 -0.8623
  116CHL1  H24B14834   1.245   2.129  12.564  0.0348  0.4669 -1.0656
  116CHL1   C2514835   1.130   2.299  12.501 -0.6346  0.1980 -0.4263
  116CHL1   H2514836   1.040   2.240  12.476  0.2100 -0.4086 -2.1792
  116CHL1   C2614837   1.106   2.451  12.539  0.5351  0.5881  0.4369
  116CHL1  H26A14838   1.192   2.520  12.549  0.2297  0.7430  2.3759
  116CHL1  H26B14839   1.027   2.494  12.474  0.1778  0.4297  0.7632
  116CHL1  H26C14840   1.055   2.460  12.637 -0.4511 -0.1252  0.0108
  116CHL1   C2714841   1.217   2.298  12.367  0.1340  0.1797  0.4825
  116CHL1  H27A14842   1.313   2.350  12.387 -1.0977  3.3956 -1.1770
  116CHL1  H27B14843   1.236   2.192  12.341 -2.0803 -0.6955  2.0621
  116CHL1  H27C14844   1.164   2.351  12.284  0.8632  1.1273  0.6068
  117CHL1    C314845   3.387   2.572  14.553 -1.2495 -0.6398 -0.4618
  117CHL1    H314846   3.345   2.672  14.578 -2.7963 -1.1135 -1.0292
  117CHL1    O314847   3.412   2.507  14.680 -0.3559  0.2928 -0.0616
  117CHL1   H3'14848   3.403   2.414  14.659 -0.9064  0.4834 -0.7340
  117CHL1    C414849   3.281   2.498  14.475  0.4447  0.7151  0.2098
  117CHL1   H4A14850   3.308   2.391  14.478  2.2230  1.1467  0.4147
  117CHL1   H4B14851   3.185   2.516  14.530  1.5689  3.5917  1.4583
  117CHL1    C514852   3.269   2.548  14.333  0.4675  0.4018 -0.1825
  117CHL1    C614853   3.149   2.586  14.282 -0.4794  0.0943 -0.5292
  117CHL1    H614854   3.066   2.576  14.353  1.2568 -0.1610  1.5731
  117CHL1    C714855   3.132   2.635  14.142  0.1433  0.9511 -0.2660
  117CHL1   H7A14856   3.046   2.581  14.097  0.9283 -1.4152  0.8952
  117CHL1   H7B14857   3.110   2.744  14.147  0.8986  1.0537  1.9667
  117CHL1    C814858   3.252   2.603  14.054 -0.3324 -0.2488 -0.0012
  117CHL1    H814859   3.254   2.493  14.043 -0.6648 -0.4411  1.6573
  117CHL1   C1414860   3.232   2.669  13.917 -1.0154  0.3404  0.0582
  117CHL1   H1414861   3.242   2.779  13.931 -2.9575  0.5674 -0.0953
  117CHL1   C1514862   3.106   2.649  13.838  0.3778  0.4396 -0.3354
  117CHL1  H15A14863   3.072   2.544  13.842  2.5473 -0.2798  1.5164
  117CHL1  H15B14864   3.026   2.711  13.884  0.1988  0.6467 -0.9172
  117CHL1   C1614865   3.141   2.692  13.695  0.6684  0.6568  0.6050
  117CHL1  H16A14866   3.102   2.611  13.629 -1.8607  0.0642  2.6763
  117CHL1  H16B14867   3.093   2.785  13.657 -0.6738  0.8068  2.5626
  117CHL1   C1714868   3.295   2.704  13.686  0.0269  0.3173  0.2112
  117CHL1   H1714869   3.312   2.813  13.703  0.6889 -0.0118  1.7985
  117CHL1   C1314870   3.352   2.638  13.816  0.0090  0.7144 -0.0372
  117CHL1   C1814871   3.374   2.483  13.799 -0.4503  0.4063  0.2227
  117CHL1  H18A14872   3.412   2.431  13.889  1.6919  0.0343 -0.8463
  117CHL1  H18B14873   3.274   2.438  13.780 -0.1508 -0.7518  1.2795
  117CHL1  H18C14874   3.436   2.451  13.713 -0.5962 -1.5336  0.8082
  117CHL1   C1214875   3.474   2.698  13.876  0.2440  0.2003 -0.0159
  117CHL1  H12A14876   3.570   2.675  13.825  1.4329  1.0273  1.7853
  117CHL1  H12B14877   3.468   2.808  13.880  2.2351  0.3205  0.9664
  117CHL1   C1114878   3.509   2.645  14.017  1.0089 -0.5354 -0.1874
  117CHL1  H11A14879   3.544   2.541  14.001  1.9213 -0.1834 -0.5355
  117CHL1  H11B14880   3.590   2.712  14.050  0.9544 -0.9157  0.7837
  117CHL1    C914881   3.384   2.642  14.120 -0.6287 -0.2454  0.3857
  117CHL1    H914882   3.368   2.747  14.150 -2.9734 -0.6527  0.8186
  117CHL1   C1014883   3.401   2.569  14.260  0.5460 -0.5953 -0.8285
  117CHL1   C1914884   3.457   2.425  14.230  0.5591 -0.4909  1.0430
  117CHL1  H19A14885   3.498   2.367  14.315  2.1006 -0.1169  0.5767
  117CHL1  H19B14886   3.383   2.358  14.181  1.1107 -0.9053  0.7726
  117CHL1  H19C14887   3.543   2.431  14.161 -0.2206 -2.5229 -0.1751
  117CHL1    C114888   3.513   2.642  14.343  0.2232  0.1616  0.3703
  117CHL1   H1A14889   3.609   2.630  14.287  0.6384  1.9886  0.6259
  117CHL1   H1B14890   3.498   2.751  14.351  1.9946  0.7317 -2.3974
  117CHL1    C214891   3.530   2.579  14.485  0.0807  0.7514 -0.2736
  117CHL1   H2A14892   3.593   2.649  14.543  1.9145  0.4546 -1.8377
  117CHL1   H2B14893   3.580   2.480  14.480 -0.5598  0.4790 -3.1373
  117CHL1   C2014894   3.360   2.671  13.550 -0.3380 -0.4316 -0.2049
  117CHL1   H2014895   3.348   2.561  13.540 -0.9601 -0.4546  0.6905
  117CHL1   C2114896   3.509   2.706  13.555 -0.2459 -0.9725 -0.4630
  117CHL1  H21A14897   3.545   2.735  13.454 -1.7702  1.0569 -0.4834
  117CHL1  H21B14898   3.557   2.611  13.586 -0.9659 -1.2556 -0.1837
  117CHL1  H21C14899   3.529   2.784  13.631 -0.0348 -0.1698 -1.3222
  117CHL1   C2214900   3.294   2.747  13.431  0.3670 -0.3547 -0.3329
  117CHL1  H22A14901   3.186   2.718  13.431  0.7888 -2.0942  0.8599
  117CHL1  H22B14902   3.295   2.857  13.444  1.4677 -0.4250  0.2489
  117CHL1   C2314903   3.350   2.712  13.289 -0.6388  0.0896  0.0438
  117CHL1  H23A14904   3.452   2.754  13.283 -0.9133  0.6728 -0.7179
  117CHL1  H23B14905   3.362   2.602  13.275 -1.6742 -0.1252  0.6845
  117CHL1   C2414906   3.277   2.775  13.170  1.0322  0.6686 -0.0927
  117CHL1  H24A14907   3.257   2.884  13.184 -0.3027  0.5401 -0.7843
  117CHL1  H24B14908   3.342   2.773  13.079 -0.0230  0.8140 -0.8650
  117CHL1   C2514909   3.143   2.709  13.137 -0.0629 -0.2676 -0.1360
  117CHL1   H2514910   3.086   2.701  13.232 -0.6362 -1.2216 -0.5523
  117CHL1   C2614911   3.060   2.790  13.037 -0.0861 -0.7785  0.3462
  117CHL1  H26A14912   2.952   2.767  13.049  0.0580 -1.3228  0.6017
  117CHL1  H26B14913   3.069   2.897  13.065  0.0243 -0.6025 -0.3490
  117CHL1  H26C14914   3.088   2.776  12.930  1.9222 -1.8539  0.9682
  117CHL1   C2714915   3.169   2.561  13.092 -0.0260 -0.5948  0.4610
  117CHL1  H27A14916   3.078   2.497  13.090  0.3841 -1.2583 -3.0807
  117CHL1  H27B14917   3.223   2.549  12.996  0.1743  0.3660  0.4412
  117CHL1  H27C14918   3.233   2.499  13.158  0.5225 -2.2994 -1.5842
  118CHL1    C314919   5.371   3.642  14.365 -0.6450 -0.4564  0.4287
  118CHL1    H314920   5.312   3.548  14.365 -1.4758  0.0551  0.1583
  118CHL1    O314921   5.391   3.674  14.499  0.4696 -0.2854 -0.2997
  118CHL1   H3'14922   5.485   3.669  14.516  0.9723  0.4539 -2.4954
  118CHL1    C414923   5.503   3.628  14.293  0.5223 -0.4622 -0.1049
  118CHL1   H4A14924   5.551   3.728  14.300 -1.4856  0.5284  0.1436
  118CHL1   H4B14925   5.561   3.555  14.354  0.6680  1.4301  2.1644
  118CHL1    C514926   5.484   3.594  14.149 -0.6268  0.4640  0.1352
  118CHL1    C614927   5.534   3.480  14.096  0.2950 -0.1051 -0.5093
  118CHL1    H614928   5.574   3.402  14.163 -0.1072  1.5951  1.7994
  118CHL1    C714929   5.519   3.444  13.950 -0.0800  0.0958 -0.2542
  118CHL1   H7A14930   5.611   3.405  13.902 -0.9034  0.6950 -2.4185
  118CHL1   H7B14931   5.440   3.366  13.944  0.0909 -0.0058 -1.2711
  118CHL1    C814932   5.501   3.579  13.865  0.1873  0.1777  0.9232
  118CHL1    H814933   5.590   3.647  13.867  0.7859 -0.5234 -0.4353
  118CHL1   C1414934   5.468   3.538  13.724  0.0776 -0.2994  0.4379
  118CHL1   H1414935   5.379   3.471  13.728 -2.4514  2.8463  0.6710
  118CHL1   C1514936   5.578   3.456  13.641 -0.5482  0.1549  0.1674
  118CHL1  H15A14937   5.684   3.487  13.658  0.3680 -0.7130 -3.1513
  118CHL1  H15B14938   5.568   3.349  13.669 -3.8280  0.0300 -1.0784
  118CHL1   C1614939   5.539   3.487  13.495  0.2859  0.3526  0.4173
  118CHL1  H16A14940   5.633   3.518  13.443  1.5605 -2.2538  0.9782
  118CHL1  H16B14941   5.504   3.387  13.461  4.1569 -0.3155 -2.4206
  118CHL1   C1714942   5.425   3.592  13.494 -0.1843  0.6571  0.2694
  118CHL1   H1714943   5.333   3.531  13.502 -0.9518  1.6748 -0.4533
  118CHL1   C1314944   5.432   3.659  13.631  0.1470 -0.0559  0.1749
  118CHL1   C1814945   5.552   3.754  13.626 -0.6201 -0.2550  0.2613
  118CHL1  H18A14946   5.539   3.831  13.547  1.8825  1.4637  1.4147
  118CHL1  H18B14947   5.553   3.818  13.716  1.0489  0.4698 -0.2426
  118CHL1  H18C14948   5.649   3.702  13.609 -0.3187  0.7772 -1.4232
  118CHL1   C1214949   5.313   3.732  13.681  0.2895  0.3753 -0.5207
  118CHL1  H12A14950   5.304   3.827  13.623 -1.3066  0.1659 -0.6729
  118CHL1  H12B14951   5.231   3.658  13.666  0.5023  0.3285 -1.4962
  118CHL1   C1114952   5.328   3.766  13.830  0.3609 -0.0618  0.3797
  118CHL1  H11A14953   5.386   3.860  13.819  1.2181 -0.7245 -1.1207
  118CHL1  H11B14954   5.228   3.803  13.864 -1.0081 -0.4384 -2.8407
  118CHL1    C914955   5.389   3.655  13.920 -0.1617  0.3142  0.6646
  118CHL1    H914956   5.304   3.584  13.927  0.4619 -0.4966  0.0962
  118CHL1   C1014957   5.415   3.703  14.066 -0.2097 -0.7453  1.0296
  118CHL1   C1914958   5.496   3.828  14.056  0.6051  0.4937  0.6830
  118CHL1  H19A14959   5.536   3.850  14.157  1.2449 -0.0768  0.5663
  118CHL1  H19B14960   5.584   3.817  13.989  0.5045 -0.9303  0.7515
  118CHL1  H19C14961   5.432   3.908  14.012 -0.2622 -0.8784 -0.6614
  118CHL1    C114962   5.281   3.733  14.140 -0.3535 -0.0204  0.2730
  118CHL1   H1A14963   5.228   3.820  14.095 -0.2722  0.5744  1.2991
  118CHL1   H1B14964   5.214   3.645  14.135  0.1955 -0.4777  0.8243
  118CHL1    C214965   5.290   3.753  14.289 -0.2978 -0.3966  0.0520
  118CHL1   H2A14966   5.191   3.767  14.338 -1.5225 -2.0387 -1.7939
  118CHL1   H2B14967   5.351   3.845  14.302 -1.0237 -0.2079  2.6064
  118CHL1   C2014968   5.425   3.669  13.358 -0.0841  0.2108 -0.5278
  118CHL1   H2014969   5.527   3.711  13.348  0.6863 -0.5323  2.8918
  118CHL1   C2114970   5.333   3.795  13.355 -0.0456  0.5256  0.5646
  118CHL1  H21A14971   5.224   3.781  13.372  0.1173  0.6625  1.8329
  118CHL1  H21B14972   5.332   3.846  13.256 -0.8004 -2.1659 -0.9126
  118CHL1  H21C14973   5.374   3.870  13.425 -0.0085  1.2101 -0.1799
  118CHL1   C2214974   5.393   3.578  13.238 -0.1005  1.1131  0.4777
  118CHL1  H22A14975   5.441   3.478  13.248  0.6407  1.6304  2.5449
  118CHL1  H22B14976   5.283   3.562  13.238 -0.2205  1.8719  1.2281
  118CHL1   C2314977   5.434   3.649  13.106 -0.5079 -0.0045  0.3705
  118CHL1  H23A14978   5.497   3.736  13.130 -0.2857  0.6030 -2.1271
  118CHL1  H23B14979   5.505   3.584  13.051  0.7399  0.7559  1.0466
  118CHL1   C2414980   5.316   3.694  13.015  0.4294  0.2929 -0.2095
  118CHL1  H24A14981   5.258   3.771  13.070 -1.8217 -0.7038 -1.0654
  118CHL1  H24B14982   5.362   3.742  12.927  1.2994  1.4031  0.8118
  118CHL1   C2514983   5.214   3.581  12.968  1.0161 -0.0290  0.7756
  118CHL1   H2514984   5.157   3.552  13.058 -0.3411 -0.0112 -0.0416
  118CHL1   C2614985   5.121   3.643  12.857  0.0311  0.4646 -0.3139
  118CHL1  H26A14986   5.083   3.741  12.894  1.6934 -0.2754  3.9134
  118CHL1  H26B14987   5.182   3.662  12.766  1.2488  1.0505  0.5832
  118CHL1  H26C14988   5.044   3.564  12.853  0.8946 -0.4126 -0.0900
  118CHL1   C2714989   5.280   3.453  12.910  0.2340 -0.1958 -0.7309
  118CHL1  H27A14990   5.340   3.400  12.987 -1.2604 -0.6303  0.1648
  118CHL1  H27B14991   5.204   3.385  12.865  1.3542 -0.4888 -2.2963
  118CHL1  H27C14992   5.357   3.474  12.832  0.1714  2.1010 -0.2510
  119CHL1    C314993   6.114   2.919  14.193 -0.5222 -0.6889  0.3130
  119CHL1    H314994   6.190   2.999  14.178 -0.6178 -0.2405  1.9903
  119CHL1    O314995   6.080   2.917  14.329 -0.0390  0.5146 -0.1627
  119CHL1   H3'14996   6.015   2.984  14.351 -0.6598  0.0700 -0.5997
  119CHL1    C414997   5.988   2.950  14.116  0.3054 -0.0620 -0.2535
  119CHL1   H4A14998   5.904   2.883  14.145  0.6607 -1.3498 -2.0478
  119CHL1   H4B14999   5.951   3.048  14.151 -3.8082 -1.9712  1.4320
  119CHL1    C515000   6.016   2.945  13.968  0.0579 -0.1519  0.3341
  119CHL1    C615001   5.982   3.041  13.886  1.1015  0.3073 -0.2304
  119CHL1    H615002   5.933   3.127  13.934 -2.1322 -3.1895  3.4901
  119CHL1    C715003   5.991   3.048  13.738  0.0635  0.1789  0.0611
  119CHL1   H7A15004   5.903   3.100  13.694 -0.6859 -0.5418  0.6826
  119CHL1   H7B15005   6.079   3.110  13.710  1.6080 -0.9947  2.0231
  119CHL1    C815006   6.030   2.910  13.682  0.2024  0.1126 -0.5003
  119CHL1    H815007   5.935   2.855  13.662 -1.7054  2.1927  2.0455
  119CHL1   C1415008   6.081   2.921  13.538  0.8116 -0.8535  0.0934
  119CHL1   H1415009   6.162   2.997  13.540 -1.6033  2.1088 -2.2898
  119CHL1   C1515010   5.984   2.998  13.444 -1.0704 -0.1254  0.0429
  119CHL1  H15A15011   5.883   2.951  13.441 -0.4710 -1.4872  0.2217
  119CHL1  H15B15012   5.981   3.108  13.459 -4.6370 -0.1431  0.3837
  119CHL1   C1615013   6.058   2.983  13.307 -0.2092  0.4053  0.4488
  119CHL1  H16A15014   5.979   2.965  13.232  1.0694 -0.2873 -0.7758
  119CHL1  H16B15015   6.118   3.072  13.278  2.7438 -0.6435  2.7491
  119CHL1   C1715016   6.149   2.848  13.322 -0.1239  0.1944  0.0615
  119CHL1   H1715017   6.252   2.889  13.328  1.4834 -3.2074 -1.4904
  119CHL1   C1315018   6.122   2.791  13.466 -0.3283 -0.5428 -0.5025
  119CHL1   C1815019   6.006   2.696  13.454 -0.3364 -0.2058 -0.0271
  119CHL1  H18A15020   6.051   2.597  13.431 -0.5161  0.3729 -3.3367
  119CHL1  H18B15021   5.937   2.681  13.540  0.0577 -2.9837 -0.1269
  119CHL1  H18C15022   5.942   2.727  13.369 -0.6116 -2.9658 -0.9182
  119CHL1   C1215023   6.234   2.734  13.561  0.1967  0.0419 -0.2226
  119CHL1  H12A15024   6.279   2.639  13.526 -1.6918 -0.1639 -2.2772
  119CHL1  H12B15025   6.312   2.814  13.561  0.4591 -0.2100 -1.0044
  119CHL1   C1115026   6.195   2.706  13.703  0.2217 -1.0091 -0.7377
  119CHL1  H11A15027   6.131   2.616  13.708 -0.3012 -0.5573  2.0154
  119CHL1  H11B15028   6.292   2.701  13.756 -0.6912  0.2420  1.1524
  119CHL1    C915029   6.133   2.833  13.769  0.8360  0.2688  0.2065
  119CHL1    H915030   6.222   2.899  13.780  0.6031  0.5981  0.1170
  119CHL1   C1015031   6.086   2.814  13.915  0.1884 -0.4804 -0.0369
  119CHL1   C1915032   5.979   2.699  13.928  0.0585 -0.2369  0.1368
  119CHL1  H19A15033   6.029   2.608  13.889  1.2695 -0.0666  1.2315
  119CHL1  H19B15034   5.955   2.686  14.035 -0.8122  0.0006 -0.0162
  119CHL1  H19C15035   5.886   2.713  13.868 -0.5626 -0.8351  0.9411
  119CHL1    C115036   6.214   2.784  14.005 -0.7557  0.4404 -0.2048
  119CHL1   H1A15037   6.265   2.695  13.960  0.7748  2.0066 -1.7157
  119CHL1   H1B15038   6.287   2.866  13.991 -0.0673 -0.3297 -1.3376
  119CHL1    C215039   6.186   2.785  14.151  0.1247 -0.0467  0.3607
  119CHL1   H2A15040   6.278   2.776  14.214 -0.2078 -0.6748  0.7698
  119CHL1   H2B15041   6.122   2.698  14.175  1.2775 -0.7115  1.1742
  119CHL1   C2015042   6.145   2.753  13.204  0.6287 -0.6384 -0.3288
  119CHL1   H2015043   6.041   2.714  13.207  1.1865 -2.1278  0.6521
  119CHL1   C2115044   6.253   2.639  13.220  0.6893 -0.1422 -0.7310
  119CHL1  H21A15045   6.252   2.571  13.133  0.5780  1.4797 -2.0595
  119CHL1  H21B15046   6.232   2.585  13.314  2.6077  1.8524  0.9719
  119CHL1  H21C15047   6.350   2.693  13.227  0.3800  0.3139  0.3830
  119CHL1   C2215048   6.175   2.830  13.071  0.1624  0.2107  0.4559
  119CHL1  H22A15049   6.092   2.903  13.060 -1.0190 -1.2264 -0.5633
  119CHL1  H22B15050   6.275   2.877  13.074  0.1059  0.3176  0.6685
  119CHL1   C2315051   6.167   2.742  12.945 -0.3716 -0.4148  0.3906
  119CHL1  H23A15052   6.205   2.813  12.868 -1.0285  1.0019  1.3245
  119CHL1  H23B15053   6.245   2.664  12.953  2.4007  2.2207  0.6844
  119CHL1   C2415054   6.030   2.684  12.913  0.1197  0.6989 -0.1172
  119CHL1  H24A15055   5.986   2.628  12.998 -1.1823 -0.8667 -1.7186
  119CHL1  H24B15056   5.963   2.768  12.884 -1.4617 -0.3320  0.3874
  119CHL1   C2515057   6.034   2.579  12.802  0.8285  0.1800  0.0333
  119CHL1   H2515058   6.130   2.525  12.817  1.5910  1.4277 -0.2510
  119CHL1   C2615059   5.915   2.482  12.821 -0.1882 -0.2537 -0.0747
  119CHL1  H26A15060   5.817   2.533  12.812  0.6174  1.4669  0.4307
  119CHL1  H26B15061   5.913   2.417  12.731 -2.8335  0.2001 -0.4232
  119CHL1  H26C15062   5.922   2.409  12.904 -0.1561  0.0525  0.1965
  119CHL1   C2715063   6.029   2.635  12.651 -0.3989  0.2051 -0.0546
  119CHL1  H27A15064   6.122   2.692  12.631 -0.9380  0.9460 -0.5475
  119CHL1  H27B15065   6.006   2.547  12.588 -3.4878  0.7473  0.1100
  119CHL1  H27C15066   5.938   2.699  12.642 -2.1306 -2.2169 -0.6707
  120CHL1    C315067   4.903   3.344  14.376  0.1488  0.5215  0.2362
  120CHL1    H315068   4.804   3.392  14.361  0.5242  1.8309  1.7654
  120CHL1    O315069   4.931   3.333  14.519  0.0270  0.2636  0.4415
  120CHL1   H3'15070   5.023   3.308  14.521 -0.0193 -0.0033 -0.4392
  120CHL1    C415071   4.902   3.198  14.321 -0.4888  0.3235  0.1785
  120CHL1   H4A15072   4.989   3.147  14.369  0.0785 -0.3849 -1.5550
  120CHL1   H4B15073   4.819   3.142  14.369 -0.7988 -1.2841 -2.1083
  120CHL1    C515074   4.913   3.178  14.169  0.2091 -0.3309  0.2406
  120CHL1    C615075   4.825   3.104  14.106 -0.5776 -0.6464  0.0742
  120CHL1    H615076   4.745   3.047  14.156 -0.3309 -1.6204 -0.6255
  120CHL1    C715077   4.821   3.073  13.957  0.0561  0.1387  0.0100
  120CHL1   H7A15078   4.822   2.964  13.932  0.5835  0.2680 -0.5728
  120CHL1   H7B15079   4.726   3.104  13.909  0.2133 -2.3281 -2.2074
  120CHL1    C815080   4.944   3.136  13.887  0.4473 -0.3802  0.0814
  120CHL1    H815081   5.024   3.063  13.913 -0.4348 -1.8914 -1.2763
  120CHL1   C1415082   4.931   3.141  13.731 -0.5967  0.2534 -0.6344
  120CHL1   H1415083   4.858   3.223  13.712 -0.8977  1.1242  3.4342
  120CHL1   C1515084   4.893   3.018  13.659  0.2177 -0.1396 -0.0165
  120CHL1  H15A15085   4.956   2.929  13.681 -1.9534 -2.4213 -2.2527
  120CHL1  H15B15086   4.790   2.992  13.692  0.0698 -0.3700 -0.6418
  120CHL1   C1615087   4.909   3.047  13.505 -0.6220  0.3255  0.6115
  120CHL1  H16A15088   4.942   2.951  13.461 -0.2841  0.5246  0.4214
  120CHL1  H16B15089   4.808   3.084  13.480 -0.5403  0.5515  0.6106
  120CHL1   C1715090   5.013   3.169  13.512 -0.1232  0.5935 -0.0438
  120CHL1   H1715091   4.954   3.261  13.492 -1.3550  0.0326  0.8837
  120CHL1   C1315092   5.063   3.180  13.659 -0.3499 -0.6594  0.7274
  120CHL1   C1815093   5.190   3.091  13.679  0.6154 -0.2206  0.2986
  120CHL1  H18A15094   5.178   2.994  13.627  0.1634 -0.3956  0.7190
  120CHL1  H18B15095   5.275   3.137  13.624  0.6895 -2.0263 -1.1609
  120CHL1  H18C15096   5.205   3.077  13.788  0.2526 -0.6548  0.2924
  120CHL1   C1215097   5.088   3.330  13.701  0.1400  0.2766 -0.1368
  120CHL1  H12A15098   5.185   3.359  13.657 -0.2356 -0.3317 -1.3966
  120CHL1  H12B15099   5.005   3.391  13.661  1.6439  0.8594 -2.5599
  120CHL1   C1115100   5.103   3.344  13.854 -0.2978 -0.4608 -0.9632
  120CHL1  H11A15101   5.204   3.298  13.863 -0.6062 -1.3970 -2.0382
  120CHL1  H11B15102   5.116   3.453  13.866  0.1072 -0.6225  0.1179
  120CHL1    C915103   4.994   3.273  13.937 -0.4980 -0.2936 -0.2613
  120CHL1    H915104   4.907   3.339  13.918 -0.1201 -0.2018 -1.7403
  120CHL1   C1015105   5.015   3.267  14.092  0.1004  0.7551  0.3761
  120CHL1   C1915106   5.157   3.206  14.124  0.4232  0.1193 -0.3419
  120CHL1  H19A15107   5.177   3.120  14.057 -0.0049  0.9688 -1.6006
  120CHL1  H19B15108   5.233   3.286  14.109  0.1333  0.3411 -0.6519
  120CHL1  H19C15109   5.163   3.176  14.231 -0.3510  0.2418 -0.2603
  120CHL1    C115110   5.004   3.408  14.151 -0.5258  0.0314 -0.3407
  120CHL1   H1A15111   5.086   3.466  14.104 -1.5692  1.4578 -0.4763
  120CHL1   H1B15112   4.904   3.452  14.128 -1.4588 -0.8181  1.8521
  120CHL1    C215113   5.020   3.421  14.304  0.3743 -0.6658  0.6984
  120CHL1   H2A15114   5.019   3.528  14.332 -1.3985 -0.7489  1.1001
  120CHL1   H2B15115   5.113   3.375  14.344  1.7634  0.4056 -1.1659
  120CHL1   C2015116   5.117   3.151  13.398  0.4333 -0.0657  0.1646
  120CHL1   H2015117   5.166   3.053  13.416 -2.3010 -1.4276  0.7068
  120CHL1   C2115118   5.212   3.273  13.391 -0.0288  0.0300 -0.4012
  120CHL1  H21A15119   5.265   3.276  13.293  1.7556  0.1164  0.5141
  120CHL1  H21B15120   5.298   3.258  13.460 -1.5677 -2.7202  1.0884
  120CHL1  H21C15121   5.164   3.372  13.405  1.3192  0.5816  0.5943
  120CHL1   C2215122   5.047   3.142  13.264 -0.7671 -0.5399 -0.0825
  120CHL1  H22A15123   5.120   3.163  13.183 -0.4898  3.1027  0.9554
  120CHL1  H22B15124   5.016   3.037  13.243 -0.2587 -0.3977 -1.6701
  120CHL1   C2315125   4.935   3.247  13.241 -0.0073  0.6465 -0.0811
  120CHL1  H23A15126   4.844   3.233  13.302  0.7037  0.2024  0.9020
  120CHL1  H23B15127   4.962   3.354  13.257 -1.7842  0.9619  1.0649
  120CHL1   C2415128   4.890   3.229  13.097  0.1583  0.0456 -0.1179
  120CHL1  H24A15129   4.982   3.220  13.036  0.5192 -1.0053  0.5530
  120CHL1  H24B15130   4.824   3.139  13.099 -2.6343  1.8961 -1.9392
  120CHL1   C2515131   4.803   3.340  13.037  0.6834  0.0418  0.3195
  120CHL1   H2515132   4.857   3.435  13.057 -0.7212  1.0082 -0.2771
  120CHL1   C2615133   4.775   3.335  12.881  0.3526 -0.1785  0.0309
  120CHL1  H26A15134   4.708   3.420  12.856 -0.0251  0.7254  3.5748
  120CHL1  H26B15135   4.866   3.359  12.822  1.6800 -0.4163  1.8907
  120CHL1  H26C15136   4.740   3.235  12.848 -0.1605 -0.1173  0.3738
  120CHL1   C2715137   4.677   3.383  13.118  0.4183 -0.3007 -0.8726
  120CHL1  H27A15138   4.597   3.305  13.110 -0.3877  0.5347 -1.2284
  120CHL1  H27B15139   4.698   3.406  13.224 -0.4255  0.1282 -0.7843
  120CHL1  H27C15140   4.624   3.475  13.084 -0.8979 -1.1604 -1.2617
  121CHL1    C315141   3.604   0.311  10.459  0.4909  0.4825 -0.4365
  121CHL1    H315142   3.564   0.407  10.498 -3.1990 -1.1008  0.0997
  121CHL1    O315143   3.597   0.315  10.325 -0.3468  0.4480  0.5670
  121CHL1   H3'15144   3.642   0.240  10.284 -2.4304 -0.0826 -0.9641
  121CHL1    C415145   3.747   0.296  10.501 -0.0112 -0.0038 -0.2187
  121CHL1   H4A15146   3.791   0.205  10.456 -0.3853 -0.5084  0.4234
  121CHL1   H4B15147   3.798   0.391  10.472  1.8400 -1.2388 -1.2038
  121CHL1    C515148   3.759   0.285  10.651 -0.1308  0.0388  0.5463
  121CHL1    C615149   3.850   0.366  10.719 -0.2975  0.2918 -0.5863
  121CHL1    H615150   3.914   0.431  10.657 -1.7893  1.2987 -1.1266
  121CHL1    C715151   3.878   0.366  10.868  0.1253  0.1992 -0.5559
  121CHL1   H7A15152   3.988   0.365  10.884 -0.1703  0.5810  1.8820
  121CHL1   H7B15153   3.829   0.459  10.902 -2.5512 -1.3719  0.1380
  121CHL1    C815154   3.812   0.240  10.934  0.6111 -0.3628  0.5246
  121CHL1    H815155   3.881   0.155  10.915  1.3688  0.4238 -0.3406
  121CHL1   C1415156   3.797   0.255  11.081 -0.1649 -0.5087  0.4847
  121CHL1   H1415157   3.725   0.339  11.086 -2.0660 -1.9846 -0.5239
  121CHL1   C1515158   3.923   0.285  11.166 -0.0120 -0.5188 -0.1407
  121CHL1  H15A15159   4.000   0.209  11.139 -0.3044 -0.3102 -1.6140
  121CHL1  H15B15160   3.969   0.383  11.140 -1.3869  0.0599 -0.4957
  121CHL1   C1615161   3.880   0.273  11.310  0.6887  0.0672 -0.0251
  121CHL1  H16A15162   3.956   0.204  11.352  2.2394  1.0620 -1.0733
  121CHL1  H16B15163   3.868   0.374  11.355  2.2151  0.1692  0.2342
  121CHL1   C1715164   3.743   0.209  11.300 -0.4718  0.4540 -0.4936
  121CHL1   H1715165   3.663   0.286  11.303 -3.2429 -2.1727 -1.1488
  121CHL1   C1315166   3.727   0.148  11.161 -0.6279 -0.1138  0.1898
  121CHL1   C1815167   3.813   0.016  11.153 -0.6642 -0.1159 -0.0429
  121CHL1  H18A15168   3.836  -0.015  11.049 -0.7927 -1.2727  0.2590
  121CHL1  H18B15169   3.914   0.038  11.193 -1.7647  0.4321  2.6327
  121CHL1  H18C15170   3.769  -0.064  11.216 -0.2966  0.0480  0.4313
  121CHL1   C1215171   3.586   0.138  11.104 -0.3006 -0.2802 -0.5606
  121CHL1  H12A15172   3.521   0.068  11.161 -1.7770  1.0692 -0.5151
  121CHL1  H12B15173   3.536   0.237  11.109 -0.0797 -0.2272  0.9924
  121CHL1   C1115174   3.591   0.103  10.956 -0.0154 -0.1888  0.5753
  121CHL1  H11A15175   3.640   0.003  10.951 -0.8949 -0.7491  2.2883
  121CHL1  H11B15176   3.485   0.098  10.924 -0.3254  1.8012  1.1246
  121CHL1    C915177   3.670   0.206  10.875 -0.6118 -0.0597 -0.5124
  121CHL1    H915178   3.622   0.306  10.885  0.6893  0.5049  0.3411
  121CHL1   C1015179   3.671   0.187  10.722 -0.4362 -0.0746  1.4652
  121CHL1   C1915180   3.721   0.045  10.693 -0.2981  0.3755 -0.2232
  121CHL1  H19A15181   3.721   0.026  10.584 -2.8187 -0.9927 -0.0529
  121CHL1  H19B15182   3.828   0.040  10.723 -0.4475  0.2075  0.2977
  121CHL1  H19C15183   3.658  -0.039  10.730 -0.0226 -0.8286 -2.3472
  121CHL1    C115184   3.524   0.191  10.665  0.1763  0.0118 -0.2212
  121CHL1   H1A15185   3.470   0.103  10.705  1.7773 -0.5010  0.8997
  121CHL1   H1B15186   3.466   0.278  10.703 -0.0548  0.5275 -1.6705
  121CHL1    C215187   3.509   0.200  10.512  0.2116  0.9519 -0.3443
  121CHL1   H2A15188   3.405   0.222  10.482  0.1082  0.8085 -0.0952
  121CHL1   H2B15189   3.520   0.102  10.462  0.0505  0.3242  0.8160
  121CHL1   C2015190   3.731   0.121  11.426 -0.0346  0.0907  0.0966
  121CHL1   H2015191   3.815   0.049  11.429 -0.4827 -0.4151  0.6103
  121CHL1   C2115192   3.601   0.036  11.437 -0.4839  0.0238  0.2562
  121CHL1  H21A15193   3.597  -0.025  11.529  1.9560  0.5143  0.7442
  121CHL1  H21B15194   3.592  -0.032  11.350  2.0649  1.9810 -1.7004
  121CHL1  H21C15195   3.515   0.106  11.429 -1.4920 -1.2182 -0.0747
  121CHL1   C2215196   3.755   0.203  11.562  0.2654  0.0175  0.5280
  121CHL1  H22A15197   3.846   0.264  11.543 -1.6026  3.0107  0.4156
  121CHL1  H22B15198   3.663   0.266  11.570  1.0952  1.4067 -0.4314
  121CHL1   C2315199   3.776   0.117  11.686  0.3493 -0.6175 -0.3747
  121CHL1  H23A15200   3.693   0.047  11.713  0.0048 -0.6477 -1.4339
  121CHL1  H23B15201   3.869   0.057  11.679 -0.1899 -1.3589 -1.5698
  121CHL1   C2415202   3.808   0.223  11.798  0.0153 -0.1858 -0.0408
  121CHL1  H24A15203   3.885   0.296  11.765 -0.7408  1.0378  0.7741
  121CHL1  H24B15204   3.720   0.289  11.815  0.5101  1.0892 -2.0937
  121CHL1   C2515205   3.849   0.161  11.935 -0.0449 -0.5285  0.0263
  121CHL1   H2515206   3.933   0.092  11.912  1.0355  0.5733  0.5178
  121CHL1   C2615207   3.904   0.276  12.024 -0.1541  0.1473  0.5680
  121CHL1  H26A15208   3.998   0.305  11.973 -0.3945 -1.8454 -1.1610
  121CHL1  H26B15209   3.826   0.355  12.030 -0.4254 -0.1873  1.8703
  121CHL1  H26C15210   3.928   0.237  12.126  0.8799 -1.3556 -0.2160
  121CHL1   C2715211   3.733   0.095  11.998 -0.1940  0.3888 -0.0384
  121CHL1  H27A15212   3.692  -0.002  11.961 -3.8692 -0.1533  4.4152
  121CHL1  H27B15213   3.761   0.070  12.103 -0.6276  0.5692  0.1280
  121CHL1  H27C15214   3.645   0.161  12.015  1.2406  2.2425  0.4897
  122CHL1    C315215   2.630   0.643  10.230  0.1728 -0.1298 -0.9670
  122CHL1    H315216   2.741   0.648  10.231  0.1264  1.7388 -0.0558
  122CHL1    O315217   2.577   0.643  10.102  0.0911  0.1468 -0.3712
  122CHL1   H3'15218   2.482   0.648  10.110  0.1627  0.7439  0.2148
  122CHL1    C415219   2.580   0.517  10.292 -0.4901 -0.0894  0.5484
  122CHL1   H4A15220   2.470   0.507  10.276 -0.7006  1.7463  0.6560
  122CHL1   H4B15221   2.626   0.438  10.230  0.3555  0.9172 -0.1434
  122CHL1    C515222   2.626   0.495  10.435  0.2339  0.0604 -0.5625
  122CHL1    C615223   2.693   0.387  10.485  0.0800  0.1036  0.4213
  122CHL1    H615224   2.716   0.303  10.418  0.1814 -0.9443  1.7357
  122CHL1    C715225   2.728   0.364  10.631 -0.2189 -0.5966  0.0813
  122CHL1   H7A15226   2.712   0.259  10.664 -1.7511 -0.7603 -1.0967
  122CHL1   H7B15227   2.836   0.389  10.643  0.2211 -1.1565 -2.2020
  122CHL1    C815228   2.653   0.466  10.723 -0.0152 -0.3757  0.4526
  122CHL1    H815229   2.545   0.440  10.735  0.4107 -1.2008  3.1051
  122CHL1   C1415230   2.725   0.464  10.862  0.4492  0.3692 -0.4310
  122CHL1   H1415231   2.823   0.507  10.832  0.0803  1.2444 -0.4083
  122CHL1   C1515232   2.747   0.327  10.931  0.5200  0.1359  0.5871
  122CHL1  H15A15233   2.650   0.277  10.914  0.4864  0.8834 -1.7027
  122CHL1  H15B15234   2.830   0.265  10.891  0.5815  1.3848 -1.3492
  122CHL1   C1615235   2.762   0.369  11.076  0.0524  0.1016 -0.5469
  122CHL1  H16A15236   2.687   0.316  11.139 -0.2972  0.3460 -0.7559
  122CHL1  H16B15237   2.856   0.325  11.114  0.8884  0.8837 -1.6371
  122CHL1   C1715238   2.750   0.517  11.093 -0.3875  0.2088 -1.0041
  122CHL1   H1715239   2.852   0.558  11.075 -0.1889  0.5110  0.5791
  122CHL1   C1315240   2.669   0.563  10.966 -0.2657 -0.5202  0.3725
  122CHL1   C1815241   2.516   0.533  10.987 -0.0582  0.2060 -0.0096
  122CHL1  H18A15242   2.471   0.604  11.060  1.7735 -0.5637  1.9737
  122CHL1  H18B15243   2.458   0.543  10.892  0.0836  0.3247 -0.0846
  122CHL1  H18C15244   2.509   0.425  11.013  1.8065 -0.6439 -2.6038
  122CHL1   C1215245   2.690   0.704  10.909  0.4276 -0.1154  0.3320
  122CHL1  H12A15246   2.643   0.789  10.963  0.0712 -0.5627  0.7383
  122CHL1  H12B15247   2.798   0.723  10.892  0.0297  0.4649 -1.9057
  122CHL1   C1115248   2.631   0.717  10.764  0.0625  0.4977 -0.0812
  122CHL1  H11A15249   2.523   0.732  10.786  0.2416  1.1015  0.4228
  122CHL1  H11B15250   2.664   0.815  10.722  1.6828  0.1567  0.3376
  122CHL1    C915251   2.653   0.604  10.661  0.2124  0.2420  0.5634
  122CHL1    H915252   2.762   0.617  10.646  0.3174  0.2337  1.2783
  122CHL1   C1015253   2.584   0.617  10.528 -0.1190 -0.0051  0.4703
  122CHL1   C1915254   2.429   0.610  10.536 -0.1881  0.0486 -0.3211
  122CHL1  H19A15255   2.394   0.701  10.589  0.4243 -1.2382  2.4492
  122CHL1  H19B15256   2.375   0.621  10.439  0.1131  2.8655 -0.2415
  122CHL1  H19C15257   2.399   0.517  10.589 -2.1684  0.0630 -1.3122
  122CHL1    C115258   2.633   0.750  10.453 -0.3990 -0.0544 -0.3938
  122CHL1   H1A15259   2.587   0.842  10.497 -1.5442 -0.5219 -0.5728
  122CHL1   H1B15260   2.744   0.753  10.456 -0.3022 -0.2025 -2.4278
  122CHL1    C215261   2.589   0.767  10.305 -0.0771 -0.0123  0.5956
  122CHL1   H2A15262   2.633   0.859  10.260  0.1506 -0.7984 -0.8517
  122CHL1   H2B15263   2.480   0.782  10.291  0.4504  3.1341 -0.9100
  122CHL1   C2015264   2.687   0.556  11.235 -0.2125 -0.7611  0.4863
  122CHL1   H2015265   2.589   0.504  11.247 -1.7379  2.1154  1.3508
  122CHL1   C2115266   2.669   0.713  11.237 -0.2037 -0.9592 -0.6900
  122CHL1  H21A15267   2.765   0.766  11.220 -1.0147  0.3439 -1.4359
  122CHL1  H21B15268   2.630   0.732  11.340  1.3118 -1.2703 -0.0383
  122CHL1  H21C15269   2.592   0.754  11.168 -0.1155  0.3446 -0.0611
  122CHL1   C2215270   2.793   0.515  11.342 -0.1700  0.2202 -0.4865
  122CHL1  H22A15271   2.823   0.409  11.337  2.4849  0.8829 -0.3910
  122CHL1  H22B15272   2.885   0.575  11.324 -0.0018  0.3914  0.8652
  122CHL1   C2315273   2.750   0.536  11.484  0.5275  0.0043 -0.0692
  122CHL1  H23A15274   2.838   0.536  11.552  0.1910  2.7229  0.4682
  122CHL1  H23B15275   2.710   0.639  11.498  0.5876  0.1703 -1.0353
  122CHL1   C2415276   2.637   0.449  11.545  0.0234 -0.9256  0.5133
  122CHL1  H24A15277   2.541   0.502  11.532  0.7894  0.9391  2.0238
  122CHL1  H24B15278   2.640   0.351  11.493 -3.4085 -0.7425 -0.2441
  122CHL1   C2515279   2.649   0.419  11.697  0.0618 -0.2928  0.3210
  122CHL1   H2515280   2.691   0.506  11.751  1.9969 -2.2718  2.1999
  122CHL1   C2615281   2.513   0.381  11.746  0.2857  0.2446  0.2165
  122CHL1  H26A15282   2.520   0.377  11.856  2.1064 -0.5332  0.1069
  122CHL1  H26B15283   2.434   0.455  11.722  0.7989  0.7169 -0.0490
  122CHL1  H26C15284   2.481   0.281  11.709 -1.7567  2.2939 -4.3487
  122CHL1   C2715285   2.755   0.314  11.718  0.6905  0.3558 -0.5307
  122CHL1  H27A15286   2.851   0.346  11.671  2.5360 -4.0874 -0.2219
  122CHL1  H27B15287   2.781   0.296  11.825  1.1259 -2.3875 -1.0281
  122CHL1  H27C15288   2.725   0.219  11.670  0.5090 -0.4583  1.1233
  123CHL1    C315289   4.485   0.817  10.135  0.6403 -0.0790  0.3373
  123CHL1    H315290   4.391   0.765  10.163  1.3395 -1.2211  0.6166
  123CHL1    O315291   4.500   0.822   9.993 -0.4365  0.2182 -0.0913
  123CHL1   H3'15292   4.556   0.747   9.975  1.3391  1.3401  0.5053
  123CHL1    C415293   4.458   0.959  10.180  0.6243 -0.5633  0.7024
  123CHL1   H4A15294   4.548   1.015  10.145  0.6184 -0.7989  0.2989
  123CHL1   H4B15295   4.368   1.008  10.136 -0.8703 -0.9451  3.1700
  123CHL1    C515296   4.448   0.978  10.329 -0.3674  0.4438 -0.1214
  123CHL1    C615297   4.340   1.036  10.386 -0.5218 -0.2094  0.0891
  123CHL1    H615298   4.255   1.067  10.323 -2.9787 -2.5116  2.0562
  123CHL1    C715299   4.324   1.062  10.530  0.7608 -0.7985 -0.3546
  123CHL1   H7A15300   4.287   1.163  10.557 -0.5661 -0.8788 -1.7103
  123CHL1   H7B15301   4.238   1.002  10.567 -0.4889  0.3752 -1.2472
  123CHL1    C815302   4.450   1.037  10.615  0.6412 -0.4553 -0.3532
  123CHL1    H815303   4.513   1.127  10.599 -0.0281  0.1587  0.3541
  123CHL1   C1415304   4.414   1.036  10.764  0.6850  0.9395 -0.5695
  123CHL1   H1415305   4.346   0.949  10.776 -0.5760  1.9021 -0.4307
  123CHL1   C1515306   4.357   1.160  10.835  0.0392  0.1685 -0.0634
  123CHL1  H15A15307   4.411   1.245  10.787  0.4082 -0.1503 -0.2176
  123CHL1  H15B15308   4.253   1.182  10.802  0.7155  1.9889 -1.1136
  123CHL1   C1615309   4.377   1.132  10.981 -0.2517 -0.6629 -0.3169
  123CHL1  H16A15310   4.426   1.218  11.032 -1.2103 -0.5609  0.4735
  123CHL1  H16B15311   4.283   1.107  11.036 -0.2494  0.8600  0.4417
  123CHL1   C1715312   4.476   1.010  10.989 -0.0824  0.0745  0.0012
  123CHL1   H1715313   4.406   0.925  11.007 -0.0621 -0.0109 -0.3202
  123CHL1   C1315314   4.532   0.997  10.852  0.5345  0.0162 -0.4642
  123CHL1   C1815315   4.644   1.109  10.833 -0.0678  0.9440 -0.0972
  123CHL1  H18A15316   4.603   1.208  10.864  0.0251  0.9223  0.0969
  123CHL1  H18B15317   4.734   1.081  10.892  0.4292 -0.0541 -1.2736
  123CHL1  H18C15318   4.688   1.114  10.731  3.0416 -0.5474  1.0359
  123CHL1   C1215319   4.601   0.863  10.813 -0.2750 -0.0905  0.7130
  123CHL1  H12A15320   4.691   0.839  10.874 -0.8508 -0.3373  1.4822
  123CHL1  H12B15321   4.521   0.787  10.826  1.0170 -1.9832 -1.4609
  123CHL1   C1115322   4.637   0.853  10.662  0.0705 -0.5883 -0.6985
  123CHL1  H11A15323   4.732   0.908  10.645 -0.2311  0.1773  0.0450
  123CHL1  H11B15324   4.672   0.749  10.646  1.7882 -0.3766  1.2054
  123CHL1    C915325   4.524   0.910  10.572  0.5476  0.1597  0.1808
  123CHL1    H915326   4.447   0.831  10.571 -0.8211  1.4478  0.2801
  123CHL1   C1015327   4.562   0.917  10.421 -0.5407 -0.4362  0.1817
  123CHL1   C1915328   4.692   0.999  10.397  0.2281  0.1905  0.2044
  123CHL1  H19A15329   4.779   0.937  10.427  0.9008 -0.6619 -3.0329
  123CHL1  H19B15330   4.701   1.022  10.288  1.3499 -2.6091 -0.3833
  123CHL1  H19C15331   4.691   1.092  10.458 -0.1574  1.7254 -2.0109
  123CHL1    C115332   4.581   0.768  10.362  0.3532  0.4474 -0.5718
  123CHL1   H1A15333   4.663   0.729  10.426 -2.0890 -2.8237  0.8868
  123CHL1   H1B15334   4.493   0.712  10.402  1.9054 -0.5109  1.7512
  123CHL1    C215335   4.610   0.766  10.207 -0.2273  0.3564 -0.0644
  123CHL1   H2A15336   4.630   0.660  10.183 -0.0179 -0.6404  3.7983
  123CHL1   H2B15337   4.699   0.830  10.187  0.3458 -0.2712  0.4529
  123CHL1   C2015338   4.569   1.029  11.108 -0.1576  0.0800  0.3654
  123CHL1   H2015339   4.626   1.123  11.091  0.7675 -0.5359 -0.0222
  123CHL1   C2115340   4.671   0.915  11.123  0.3743  0.2228  0.1776
  123CHL1  H21A15341   4.609   0.826  11.099 -0.6263  1.1682 -0.8530
  123CHL1  H21B15342   4.694   0.895  11.230  4.7371  0.6543 -0.5311
  123CHL1  H21C15343   4.759   0.913  11.055  0.2735 -0.6870  0.0539
  123CHL1   C2215344   4.494   1.050  11.240  0.7611 -0.2007  0.7975
  123CHL1  H22A15345   4.413   1.126  11.231  0.9000 -0.0149  1.1020
  123CHL1  H22B15346   4.444   0.957  11.274  0.3972  0.1222  1.1637
  123CHL1   C2315347   4.580   1.089  11.359  0.4276  0.0140 -0.4346
  123CHL1  H23A15348   4.621   1.002  11.414 -2.2220 -0.5525  0.7886
  123CHL1  H23B15349   4.663   1.157  11.332 -1.2844  2.4624  0.1771
  123CHL1   C2415350   4.491   1.170  11.463 -1.4046 -0.9141 -0.2353
  123CHL1  H24A15351   4.439   1.254  11.411 -2.3536 -2.4000 -1.7888
  123CHL1  H24B15352   4.410   1.102  11.496 -0.4475 -1.8103  0.3235
  123CHL1   C2515353   4.572   1.218  11.581 -0.4606 -0.3204  0.4122
  123CHL1   H2515354   4.656   1.148  11.597  0.6928  0.2970 -2.3662
  123CHL1   C2615355   4.657   1.347  11.547 -0.2608  0.8908 -0.4163
  123CHL1  H26A15356   4.667   1.341  11.437  0.7798 -3.1807 -0.2561
  123CHL1  H26B15357   4.608   1.440  11.583  0.4423  0.5016  1.7647
  123CHL1  H26C15358   4.756   1.324  11.591  0.0073  1.3522 -0.7706
  123CHL1   C2715359   4.497   1.240  11.715 -0.1165 -0.0834 -0.3088
  123CHL1  H27A15360   4.425   1.161  11.743 -1.2031  0.4784 -1.4058
  123CHL1  H27B15361   4.564   1.259  11.802 -0.3211 -0.3640 -0.0897
  123CHL1  H27C15362   4.430   1.328  11.703 -1.8452 -1.0819  1.4295
  124CHL1    C315363   2.804   1.688  10.648 -0.3229 -0.6454 -0.6270
  124CHL1    H315364   2.700   1.652  10.631 -0.3717 -0.3640 -0.9587
  124CHL1    O315365   2.866   1.712  10.524 -0.3708  0.4850  0.6441
  124CHL1   H3'15366   2.944   1.758  10.555  2.5580 -3.1773 -0.5436
  124CHL1    C415367   2.805   1.827  10.725  0.0379  0.7886  0.3642
  124CHL1   H4A15368   2.908   1.870  10.722  0.7929 -0.9826 -0.9357
  124CHL1   H4B15369   2.739   1.890  10.661 -1.1094 -1.0557 -0.3325
  124CHL1    C515370   2.763   1.825  10.869 -0.4435  0.6818  0.1375
  124CHL1    C615371   2.666   1.903  10.906 -0.5315  0.3011 -0.1276
  124CHL1    H615372   2.621   1.972  10.833  2.8711  0.2106 -2.5517
  124CHL1    C715373   2.605   1.894  11.045  0.6461 -0.3812  0.4919
  124CHL1   H7A15374   2.596   1.987  11.105  2.9190  0.0483  0.2672
  124CHL1   H7B15375   2.510   1.837  11.036  0.3107  0.2510  0.0100
  124CHL1    C815376   2.693   1.811  11.146 -0.3884  1.1704 -0.3160
  124CHL1    H815377   2.787   1.865  11.168  0.2643 -0.1280  0.2159
  124CHL1   C1415378   2.617   1.767  11.267 -0.7269 -0.4661 -0.1178
  124CHL1   H1415379   2.538   1.703  11.223  1.6110 -2.5445 -1.5452
  124CHL1   C1515380   2.546   1.883  11.340 -0.1815  0.6618 -0.1452
  124CHL1  H15A15381   2.609   1.974  11.346  0.0727  0.5706 -1.2001
  124CHL1  H15B15382   2.454   1.914  11.286 -1.7147  0.5512  2.2502
  124CHL1   C1615383   2.516   1.821  11.478  0.3138 -0.0682 -0.3218
  124CHL1  H16A15384   2.560   1.894  11.549  0.3731 -1.5219  1.2011
  124CHL1  H16B15385   2.408   1.828  11.503  0.5488 -0.0112  0.6889
  124CHL1   C1715386   2.583   1.681  11.479 -0.2015 -0.1874  0.3932
  124CHL1   H1715387   2.510   1.603  11.448 -2.0663  1.5284  0.2088
  124CHL1   C1315388   2.698   1.693  11.374  0.3443 -0.6638  0.0452
  124CHL1   C1815389   2.815   1.781  11.429 -0.3955  0.2494  0.4492
  124CHL1  H18A15390   2.883   1.717  11.490  0.4358  1.5967  0.9809
  124CHL1  H18B15391   2.880   1.818  11.346  0.4448  0.0713  1.0102
  124CHL1  H18C15392   2.775   1.863  11.491 -0.5569  1.1983 -0.8662
  124CHL1   C1215393   2.735   1.566  11.298  0.3689  0.7905  0.2459
  124CHL1  H12A15394   2.795   1.504  11.368 -0.4539 -1.0170 -0.5977
  124CHL1  H12B15395   2.639   1.511  11.288 -0.3776  1.6791  2.0242
  124CHL1   C1115396   2.819   1.591  11.173  0.0339  0.4642 -0.1127
  124CHL1  H11A15397   2.921   1.625  11.201  0.6862 -1.9608  0.7643
  124CHL1  H11B15398   2.836   1.488  11.135 -0.2882  0.1003  0.6868
  124CHL1    C915399   2.744   1.677  11.074  0.2937 -0.8297 -0.3089
  124CHL1    H915400   2.651   1.621  11.049 -0.8142  1.3024 -1.2983
  124CHL1   C1015401   2.823   1.703  10.945 -0.1477 -0.3628  0.1853
  124CHL1   C1915402   2.969   1.744  10.978 -0.9611 -0.5571  0.7678
  124CHL1  H19A15403   3.038   1.768  10.894  0.8703  0.9416  2.6003
  124CHL1  H19B15404   2.970   1.825  11.054 -0.8467 -0.0914  0.2751
  124CHL1  H19C15405   3.024   1.660  11.026  0.2356  0.7620  1.8100
  124CHL1    C115406   2.824   1.570  10.865 -0.0527 -0.2082 -0.8226
  124CHL1   H1A15407   2.883   1.490  10.915 -0.1163  0.2873  0.0666
  124CHL1   H1B15408   2.718   1.539  10.852  0.0708 -2.7789  2.6389
  124CHL1    C215409   2.882   1.583  10.724 -0.0988 -0.0567  0.2891
  124CHL1   H2A15410   2.860   1.492  10.666 -0.8747  1.0912 -1.3008
  124CHL1   H2B15411   2.991   1.603  10.720  0.3181 -2.0051  0.9113
  124CHL1   C2015412   2.618   1.645  11.628  1.0126 -0.2467 -0.5854
  124CHL1   H2015413   2.683   1.730  11.658  2.9100 -0.8693 -2.6519
  124CHL1   C2115414   2.693   1.515  11.633  0.1043  0.1721 -0.2515
  124CHL1  H21A15415   2.641   1.437  11.573 -0.2010 -0.0729  0.3332
  124CHL1  H21B15416   2.704   1.469  11.733 -1.0554 -1.1094 -0.6952
  124CHL1  H21C15417   2.795   1.543  11.596  1.8396 -2.1291  2.4315
  124CHL1   C2215418   2.487   1.626  11.711  0.1659  0.3386 -0.2843
  124CHL1  H22A15419   2.401   1.688  11.679  1.5614  2.1471 -0.7150
  124CHL1  H22B15420   2.454   1.522  11.691 -1.5730  0.8932 -0.4076
  124CHL1   C2315421   2.507   1.638  11.860 -0.5148 -0.5318 -0.1985
  124CHL1  H23A15422   2.565   1.546  11.882 -0.4460 -0.7430 -1.2432
  124CHL1  H23B15423   2.573   1.719  11.897  1.0853 -0.7773 -2.3314
  124CHL1   C2415424   2.375   1.639  11.936  0.0352  0.2071 -0.2444
  124CHL1  H24A15425   2.309   1.718  11.896 -1.1887 -0.4278  0.4562
  124CHL1  H24B15426   2.341   1.536  11.912 -0.4038  0.5285 -1.0424
  124CHL1   C2515427   2.381   1.657  12.092 -0.2659 -0.1029 -0.3770
  124CHL1   H2515428   2.415   1.762  12.111  0.8224 -0.6295  0.7215
  124CHL1   C2615429   2.241   1.639  12.157 -0.2339 -0.2913 -0.0434
  124CHL1  H26A15430   2.161   1.710  12.129 -0.3238 -0.1138  0.6347
  124CHL1  H26B15431   2.207   1.534  12.141 -2.5020  0.4014 -0.1403
  124CHL1  H26C15432   2.256   1.659  12.265 -0.3731  0.9508 -0.2470
  124CHL1   C2715433   2.474   1.546  12.145 -0.0228  0.0804 -0.2882
  124CHL1  H27A15434   2.491   1.552  12.255 -3.1426  2.5366  0.2171
  124CHL1  H27B15435   2.429   1.448  12.118 -2.1336  0.4128  1.6172
  124CHL1  H27C15436   2.576   1.553  12.102 -0.4110  0.3520 -1.1892
  125CHL1    C315437   3.028   2.464  10.636  0.7083 -0.2566  0.0206
  125CHL1    H315438   3.119   2.406  10.662  0.2377 -0.8289  0.4138
  125CHL1    O315439   3.038   2.492  10.498 -0.5952  0.6359  0.2524
  125CHL1   H3'15440   2.951   2.529  10.481 -1.2680 -1.0390 -0.1366
  125CHL1    C415441   2.909   2.370  10.673  0.2307 -0.8013 -0.3955
  125CHL1   H4A15442   2.816   2.421  10.640  0.2866  0.2154  0.9672
  125CHL1   H4B15443   2.918   2.276  10.615  2.6679  1.0440 -3.3225
  125CHL1    C515444   2.894   2.352  10.828  0.5528 -1.0864  0.1343
  125CHL1    C615445   2.887   2.228  10.887 -0.2908  0.4301  0.3185
  125CHL1    H615446   2.888   2.144  10.817 -0.8003  1.9039 -1.5233
  125CHL1    C715447   2.886   2.200  11.036  0.3827 -0.1844  0.0350
  125CHL1   H7A15448   2.804   2.133  11.070  0.8674 -0.0042  1.6470
  125CHL1   H7B15449   2.983   2.160  11.074 -0.6660 -0.7570  2.2507
  125CHL1    C815450   2.848   2.326  11.110 -0.1154  0.0014  0.6780
  125CHL1    H815451   2.739   2.339  11.094  0.0682 -1.5007 -2.4953
  125CHL1   C1415452   2.875   2.311  11.261 -0.4732  0.4346  0.4214
  125CHL1   H1415453   2.984   2.294  11.273 -0.2627  1.9282  0.7615
  125CHL1   C1515454   2.807   2.187  11.332  0.5862 -0.6005 -0.1250
  125CHL1  H15A15455   2.703   2.170  11.294 -0.5029  0.9806  1.9234
  125CHL1  H15B15456   2.867   2.098  11.306 -0.7833 -1.3877 -0.7082
  125CHL1   C1615457   2.811   2.225  11.486  0.2485 -0.1189 -0.0423
  125CHL1  H16A15458   2.716   2.204  11.541 -1.1757 -1.9563 -2.9086
  125CHL1  H16B15459   2.891   2.164  11.533  0.5301 -0.1145 -0.5128
  125CHL1   C1715460   2.853   2.376  11.491  0.2995 -0.2057  0.0987
  125CHL1   H1715461   2.960   2.377  11.521  1.1538  0.4225 -2.7069
  125CHL1   C1315462   2.838   2.429  11.344  0.5472 -0.5408  0.0769
  125CHL1   C1815463   2.692   2.468  11.324 -0.3250 -0.4206 -0.8456
  125CHL1  H18A15464   2.624   2.396  11.374  0.7126 -1.0117 -0.2547
  125CHL1  H18B15465   2.678   2.571  11.365  0.4322 -0.4508 -0.5010
  125CHL1  H18C15466   2.669   2.482  11.216  1.9717 -3.0654 -1.7804
  125CHL1   C1215467   2.929   2.546  11.300 -1.4994 -0.8060 -0.8803
  125CHL1  H12A15468   2.916   2.631  11.369  3.0647  0.1313 -0.8768
  125CHL1  H12B15469   3.035   2.518  11.315 -1.3003  0.6540  0.6540
  125CHL1   C1115470   2.907   2.575  11.154 -0.4918  0.1648  0.6247
  125CHL1  H11A15471   2.804   2.616  11.145  0.5121  2.3370 -3.4869
  125CHL1  H11B15472   2.977   2.656  11.124  0.5829 -1.4596 -1.5542
  125CHL1    C915473   2.923   2.452  11.057  0.1212 -0.5178  0.3488
  125CHL1    H915474   3.032   2.439  11.070  0.4794  2.2780  0.7336
  125CHL1   C1015475   2.897   2.483  10.911  0.0497 -0.0835  0.1655
  125CHL1   C1915476   2.762   2.562  10.891 -0.2928  0.8580 -0.0165
  125CHL1  H19A15477   2.768   2.665  10.933  1.5142  1.2088 -1.0284
  125CHL1  H19B15478   2.737   2.585  10.786  0.4999  2.3498  0.0850
  125CHL1  H19C15479   2.672   2.504  10.920  0.6217 -0.2158  0.7608
  125CHL1    C115480   3.015   2.576  10.862  0.6677  0.0397  0.4237
  125CHL1   H1A15481   3.018   2.674  10.915 -0.7056 -0.7643  2.0912
  125CHL1   H1B15482   3.107   2.522  10.893  1.9859  1.8892 -0.0915
  125CHL1    C215483   3.022   2.597  10.716  0.0985 -0.0786 -0.7455
  125CHL1   H2A15484   3.117   2.653  10.699  0.7226 -0.9019 -0.0083
  125CHL1   H2B15485   2.942   2.667  10.681  0.4309  1.5618  1.5872
  125CHL1   C2015486   2.792   2.457  11.612 -0.5586 -1.1854 -0.2121
  125CHL1   H2015487   2.684   2.476  11.598 -0.9654 -1.0374  2.5167
  125CHL1   C2115488   2.863   2.591  11.619 -0.2341  0.1877 -0.7525
  125CHL1  H21A15489   2.802   2.660  11.557 -0.5725  0.8944  0.3434
  125CHL1  H21B15490   2.965   2.587  11.574  0.0219  1.9808 -0.4037
  125CHL1  H21C15491   2.862   2.626  11.724 -1.0428 -0.7247 -0.4433
  125CHL1   C2215492   2.801   2.388  11.746  0.9281 -0.1844  0.3333
  125CHL1  H22A15493   2.789   2.278  11.736 -0.1580 -0.0057 -0.4627
  125CHL1  H22B15494   2.905   2.387  11.787  0.9848  0.2822  0.2016
  125CHL1   C2315495   2.693   2.430  11.839  0.5319 -0.3728  0.3605
  125CHL1  H23A15496   2.699   2.541  11.841  0.2858 -0.2991 -1.4127
  125CHL1  H23B15497   2.591   2.403  11.805 -0.4049  0.8117  2.1045
  125CHL1   C2415498   2.706   2.387  11.985  0.6578  0.1631  0.1326
  125CHL1  H24A15499   2.664   2.285  12.001 -3.3152  1.4234 -0.8683
  125CHL1  H24B15500   2.814   2.379  12.005  0.5385 -0.0138  0.7234
  125CHL1   C2515501   2.630   2.484  12.082 -0.3945 -0.2875  0.5008
  125CHL1   H2515502   2.666   2.588  12.065 -0.8556  0.4363  3.4870
  125CHL1   C2615503   2.473   2.493  12.049  0.0128 -0.5184  0.0690
  125CHL1  H26A15504   2.455   2.531  11.946 -0.9739 -0.6377  0.1800
  125CHL1  H26B15505   2.427   2.391  12.054  1.6444 -1.4205 -1.7597
  125CHL1  H26C15506   2.423   2.554  12.127 -0.4282 -0.4158 -0.2842
  125CHL1   C2715507   2.656   2.445  12.226 -0.2124 -0.2911 -0.6734
  125CHL1  H27A15508   2.610   2.346  12.245 -2.2592  0.7952  0.3818
  125CHL1  H27B15509   2.767   2.441  12.234 -0.2486 -0.1543  0.0094
  125CHL1  H27C15510   2.618   2.518  12.300 -0.5752 -0.8173 -0.3346
  126CHL1    C315511   1.139   1.475  10.151  0.3061  0.0208  0.6823
  126CHL1    H315512   1.120   1.366  10.156 -1.3740  0.2052 -0.7381
  126CHL1    O315513   1.057   1.514  10.038  0.1914  0.1869  0.3486
  126CHL1   H3'15514   1.053   1.609  10.036 -1.5370  0.1843  1.1544
  126CHL1    C415515   1.079   1.539  10.279  0.2087 -0.1375 -0.3037
  126CHL1   H4A15516   1.092   1.649  10.272  2.2103 -0.1441  2.0620
  126CHL1   H4B15517   0.974   1.504  10.287  0.3044 -0.3753 -0.0606
  126CHL1    C515518   1.163   1.502  10.403  0.3362 -0.0096  0.1725
  126CHL1    C615519   1.101   1.447  10.508 -0.7416 -0.2732 -0.7834
  126CHL1    H615520   0.993   1.424  10.512 -0.7058 -0.7922 -2.2397
  126CHL1    C715521   1.174   1.391  10.626  0.3763  0.2467  0.0298
  126CHL1   H7A15522   1.122   1.396  10.724  1.6029 -1.1949  0.7873
  126CHL1   H7B15523   1.174   1.282  10.605  0.3727 -0.2335  2.3083
  126CHL1    C815524   1.318   1.447  10.636  0.0011  0.0536  0.4728
  126CHL1    H815525   1.312   1.552  10.672  0.9522  1.1054 -2.1694
  126CHL1   C1415526   1.394   1.359  10.739  0.2781 -0.2584  0.2252
  126CHL1   H1415527   1.403   1.260  10.691 -0.0944 -0.1542 -0.0614
  126CHL1   C1515528   1.333   1.335  10.878 -1.4136 -0.0349  0.6050
  126CHL1  H15A15529   1.298   1.426  10.930 -0.7653  0.7436 -0.2992
  126CHL1  H15B15530   1.247   1.265  10.866 -0.2535 -1.1311 -1.9158
  126CHL1   C1615531   1.455   1.272  10.956 -0.6884  0.2161  0.1393
  126CHL1  H16A15532   1.475   1.347  11.035 -0.7213  1.3798 -0.9310
  126CHL1  H16B15533   1.427   1.175  11.002 -0.8322 -1.0445 -2.4007
  126CHL1   C1715534   1.580   1.281  10.864 -0.5059 -0.0970 -0.2872
  126CHL1   H1715535   1.588   1.180  10.817  0.3598 -1.1808  2.0046
  126CHL1   C1315536   1.548   1.384  10.761  0.8520 -0.3411 -0.1052
  126CHL1   C1815537   1.560   1.523  10.819 -0.1731 -0.3932 -0.4824
  126CHL1  H18A15538   1.512   1.602  10.757 -3.1985 -0.9329  0.9877
  126CHL1  H18B15539   1.502   1.542  10.911 -1.3294 -1.8418 -0.8744
  126CHL1  H18C15540   1.666   1.546  10.844 -0.9422  1.5333  1.1868
  126CHL1   C1215541   1.618   1.382  10.623  0.2473  0.2532 -0.2608
  126CHL1  H12A15542   1.721   1.418  10.643 -0.3673  1.3803  1.0879
  126CHL1  H12B15543   1.619   1.280  10.581  0.6764 -0.1738  0.7365
  126CHL1   C1115544   1.544   1.469  10.513 -0.3347 -0.8138  0.1457
  126CHL1  H11A15545   1.559   1.576  10.541 -0.7584 -0.5981 -0.4386
  126CHL1  H11B15546   1.596   1.449  10.418 -1.3654  0.2806 -0.6812
  126CHL1    C915547   1.391   1.439  10.498 -0.2759 -0.3903 -0.6963
  126CHL1    H915548   1.391   1.331  10.471 -0.0171 -0.3566 -0.8364
  126CHL1   C1015549   1.316   1.518  10.386  0.7631  1.1518 -0.1430
  126CHL1   C1915550   1.339   1.671  10.393 -0.0987  0.8611 -0.3103
  126CHL1  H19A15551   1.312   1.713  10.492  2.0254  0.5174  0.4659
  126CHL1  H19B15552   1.445   1.685  10.364 -0.3727 -0.2362 -1.9385
  126CHL1  H19C15553   1.268   1.728  10.329 -0.9229  3.1029  2.3954
  126CHL1    C115554   1.370   1.468  10.250 -0.0089  0.3104 -0.1382
  126CHL1   H1A15555   1.476   1.501  10.240  0.2996 -0.9105 -1.1781
  126CHL1   H1B15556   1.357   1.358  10.251  1.6142  0.0948  1.1420
  126CHL1    C215557   1.283   1.519  10.126  0.0583 -0.0920 -0.0608
  126CHL1   H2A15558   1.325   1.477  10.033 -0.7386 -0.4228 -0.2774
  126CHL1   H2B15559   1.283   1.630  10.121  0.4331 -0.0234  1.0226
  126CHL1   C2015560   1.707   1.296  10.950 -0.7912  0.1120 -0.7860
  126CHL1   H2015561   1.719   1.390  11.007  1.3242 -0.3151 -0.4548
  126CHL1   C2115562   1.831   1.282  10.860 -0.1966  0.3795  0.2877
  126CHL1  H21A15563   1.812   1.231  10.764  0.0864 -1.5121  1.1919
  126CHL1  H21B15564   1.902   1.225  10.923  0.6878  1.9692  0.7989
  126CHL1  H21C15565   1.882   1.376  10.830 -2.0074  0.6064 -2.4807
  126CHL1   C2215566   1.729   1.197  11.065 -0.0231 -0.2097  0.0525
  126CHL1  H22A15567   1.815   1.243  11.119  0.5318  2.1809 -2.6628
  126CHL1  H22B15568   1.637   1.193  11.126  0.2413 -2.0482  0.4013
  126CHL1   C2315569   1.756   1.044  11.032  0.2458 -0.0399 -0.3065
  126CHL1  H23A15570   1.671   1.013  10.967  0.4761 -1.8583  0.2021
  126CHL1  H23B15571   1.852   1.041  10.976 -0.0960 -2.5027 -0.8811
  126CHL1   C2415572   1.769   0.964  11.160 -0.0420  0.7343  0.4397
  126CHL1  H24A15573   1.872   0.989  11.195  0.9519  0.8413 -2.3760
  126CHL1  H24B15574   1.697   1.000  11.237 -0.3714 -0.2934  0.6244
  126CHL1   C2515575   1.769   0.811  11.148  0.4166 -0.2499  0.2078
  126CHL1   H2515576   1.838   0.789  11.063  0.1908  3.4312 -1.0871
  126CHL1   C2615577   1.820   0.734  11.269 -0.1185 -0.5953 -0.5672
  126CHL1  H26A15578   1.837   0.627  11.246 -0.8828 -1.0711  0.9802
  126CHL1  H26B15579   1.920   0.774  11.297 -0.0319 -0.7033 -0.7222
  126CHL1  H26C15580   1.755   0.742  11.359 -0.6991  0.1363 -1.0357
  126CHL1   C2715581   1.633   0.756  11.106  0.1964  0.4184  0.3413
  126CHL1  H27A15582   1.648   0.648  11.087  0.9101  0.2371  1.7541
  126CHL1  H27B15583   1.551   0.783  11.177 -1.4175 -0.0483 -1.2695
  126CHL1  H27C15584   1.602   0.810  11.014  0.1446 -0.4038 -0.1337
  127CHL1    C315585   1.717   3.058  10.523  0.1885 -0.3734  0.2724
  127CHL1    H315586   1.649   2.973  10.502  0.6429 -1.0637  1.5216
  127CHL1    O315587   1.788   3.113  10.414 -0.2125 -0.9825 -0.3846
  127CHL1   H3'15588   1.723   3.159  10.361 -0.2243  0.2722  0.6857
  127CHL1    C415589   1.645   3.178  10.589 -0.3650  0.0151  1.1360
  127CHL1   H4A15590   1.704   3.272  10.581  1.0777 -0.9608 -0.2023
  127CHL1   H4B15591   1.563   3.196  10.516 -0.2751 -2.5156  0.3216
  127CHL1    C515592   1.600   3.148  10.730  0.3257 -0.3799  0.5600
  127CHL1    C615593   1.472   3.167  10.771 -0.4447 -0.3002 -0.1423
  127CHL1    H615594   1.398   3.211  10.701 -2.6844 -1.4869  1.3514
  127CHL1    C715595   1.409   3.152  10.903 -0.3552 -0.0182  0.6188
  127CHL1   H7A15596   1.363   3.251  10.925 -0.3385 -0.0570  0.8291
  127CHL1   H7B15597   1.329   3.075  10.902  2.4109 -3.1292  0.0608
  127CHL1    C815598   1.523   3.129  11.001  0.2392  0.3444  0.0193
  127CHL1    H815599   1.573   3.227  11.020  0.9143 -0.2533  1.5363
  127CHL1   C1415600   1.474   3.077  11.134  0.2424  0.5102 -0.1515
  127CHL1   H1415601   1.418   2.984  11.110  2.4659 -0.5249 -1.5996
  127CHL1   C1515602   1.349   3.151  11.191 -0.4531 -0.0511 -0.0013
  127CHL1  H15A15603   1.350   3.261  11.181  0.8399 -0.1066 -0.7297
  127CHL1  H15B15604   1.263   3.105  11.137 -0.0798  1.1573 -1.6992
  127CHL1   C1615605   1.356   3.110  11.337 -0.2494 -0.3953  0.3457
  127CHL1  H16A15606   1.362   3.208  11.389 -1.9459  0.1306 -0.3932
  127CHL1  H16B15607   1.260   3.063  11.367  0.0765 -0.8801  0.6521
  127CHL1   C1715608   1.475   3.010  11.351  1.5076 -0.1145  0.3478
  127CHL1   H1715609   1.438   2.906  11.337  2.7246 -0.5871  0.5533
  127CHL1   C1315610   1.576   3.040  11.236  0.1325  0.2146  0.2967
  127CHL1   C1815611   1.661   3.166  11.269 -1.1478  0.3361  0.3062
  127CHL1  H18A15612   1.719   3.189  11.177 -2.7751 -0.9565 -1.1077
  127CHL1  H18B15613   1.606   3.258  11.299 -0.5383  0.4837  1.0000
  127CHL1  H18C15614   1.730   3.140  11.351  1.5550  4.4721 -0.3445
  127CHL1   C1215615   1.667   2.925  11.179 -0.7834  0.0720  0.0303
  127CHL1  H12A15616   1.743   2.889  11.252  0.5941  0.0881 -1.3516
  127CHL1  H12B15617   1.598   2.840  11.163  0.1238 -0.6795  0.0501
  127CHL1   C1115618   1.734   2.968  11.046 -0.4260 -0.6311 -0.5223
  127CHL1  H11A15619   1.812   3.044  11.067 -1.1116  0.7922 -2.8037
  127CHL1  H11B15620   1.799   2.889  11.003  3.1463  1.5626  0.4034
  127CHL1    C915621   1.637   3.031  10.949 -0.0662  0.2645  0.7131
  127CHL1    H915622   1.583   2.941  10.914  0.4389 -0.3914  1.5852
  127CHL1   C1015623   1.708   3.087  10.825  0.8161 -0.2037  0.5057
  127CHL1   C1915624   1.803   3.202  10.861  0.3958  0.6534  0.3400
  127CHL1  H19A15625   1.832   3.261  10.771 -1.0888 -0.0905 -0.6728
  127CHL1  H19B15626   1.743   3.270  10.926 -3.1626 -0.5033 -1.4890
  127CHL1  H19C15627   1.894   3.161  10.910  0.0806 -0.0093  0.3831
  127CHL1    C115628   1.782   2.974  10.755  0.3441 -0.0597 -0.5529
  127CHL1   H1A15629   1.870   2.949  10.818 -0.5226  0.8358  1.0562
  127CHL1   H1B15630   1.722   2.880  10.753 -1.9752  1.3501 -0.4885
  127CHL1    C215631   1.824   3.003  10.620  0.4150 -0.3845 -0.1508
  127CHL1   H2A15632   1.858   2.913  10.565 -0.9246  0.2737 -2.1621
  127CHL1   H2B15633   1.913   3.070  10.612  0.1676 -0.0447 -0.0854
  127CHL1   C2015634   1.532   3.006  11.499  0.2384 -1.3708  0.2943
  127CHL1   H2015635   1.564   3.109  11.528  0.6055 -1.7089  1.1295
  127CHL1   C2115636   1.658   2.919  11.513 -0.6439  0.5253 -0.4393
  127CHL1  H21A15637   1.640   2.820  11.467  0.0260 -0.3101  1.0299
  127CHL1  H21B15638   1.685   2.907  11.620 -1.3339 -1.2186 -0.4243
  127CHL1  H21C15639   1.741   2.959  11.452 -0.0546  0.4096  0.2635
  127CHL1   C2215640   1.426   2.956  11.597 -0.0514 -0.4637 -0.5513
  127CHL1  H22A15641   1.335   3.020  11.591  0.0770  0.0080  1.4848
  127CHL1  H22B15642   1.401   2.850  11.580 -0.3317 -0.2548 -1.4858
  127CHL1   C2315643   1.461   2.961  11.752 -0.3403  0.6984 -0.9145
  127CHL1  H23A15644   1.370   2.924  11.804  1.1860  1.1342  2.2649
  127CHL1  H23B15645   1.550   2.895  11.767 -0.7535 -0.0541 -1.6679
  127CHL1   C2415646   1.496   3.107  11.791 -0.1088 -0.6365 -0.1538
  127CHL1  H24A15647   1.583   3.147  11.735 -0.5115 -1.0886 -1.1323
  127CHL1  H24B15648   1.408   3.171  11.771  0.4524 -0.3322 -1.7901
  127CHL1   C2515649   1.513   3.116  11.941 -0.3773 -0.2897 -0.3779
  127CHL1   H2515650   1.435   3.052  11.985  0.7513 -1.4838 -0.0407
  127CHL1   C2615651   1.658   3.062  11.973 -0.7115  0.4718 -0.1555
  127CHL1  H26A15652   1.688   3.088  12.077 -1.2569 -1.1400  0.4409
  127CHL1  H26B15653   1.668   2.952  11.963 -1.8512  0.4290 -0.9698
  127CHL1  H26C15654   1.735   3.112  11.910 -2.0068  0.0856 -2.1555
  127CHL1   C2715655   1.498   3.259  11.990 -0.5039  0.2905 -0.5080
  127CHL1  H27A15656   1.400   3.286  11.945 -0.5980 -0.1854 -0.5941
  127CHL1  H27B15657   1.504   3.263  12.101 -0.4142  1.2079 -0.5392
  127CHL1  H27C15658   1.575   3.321  11.942 -0.3165 -1.0680 -2.0444
  128CHL1    C315659   3.117   4.259  10.422  0.1634  0.1833 -0.4509
  128CHL1    H315660   3.115   4.152  10.393 -3.9269 -0.6128  1.9695
  128CHL1    O315661   3.142   4.318  10.297  0.1824 -0.2356 -0.2091
  128CHL1   H3'15662   3.184   4.403  10.314  1.4696 -0.9507  0.3392
  128CHL1    C415663   2.978   4.307  10.473  0.3683  0.1986 -0.2970
  128CHL1   H4A15664   2.951   4.409  10.441 -1.1542 -0.4734 -1.2576
  128CHL1   H4B15665   2.903   4.256  10.408 -0.3959  1.1542 -0.1887
  128CHL1    C515666   2.951   4.284  10.620  0.8831  0.0595 -0.6422
  128CHL1    C615667   2.850   4.201  10.653  0.9037  0.0703  0.5586
  128CHL1    H615668   2.794   4.165  10.567  3.0832 -1.5835 -0.2675
  128CHL1    C715669   2.811   4.189  10.795  0.0714 -0.1745  0.2949
  128CHL1   H7A15670   2.702   4.206  10.803 -0.0395 -0.9015  0.4228
  128CHL1   H7B15671   2.843   4.092  10.841 -0.3012  0.4324  1.8975
  128CHL1    C815672   2.877   4.287  10.888 -1.2164 -0.9797 -0.2929
  128CHL1    H815673   2.833   4.387  10.868  2.5685  0.4878 -2.3984
  128CHL1   C1415674   2.861   4.256  11.033  0.3504 -0.4830 -0.9026
  128CHL1   H1415675   2.909   4.158  11.052  0.1435 -0.0583  2.4275
  128CHL1   C1515676   2.712   4.225  11.078 -0.1234  0.1979  0.4557
  128CHL1  H15A15677   2.642   4.301  11.036  2.5071  2.4842 -0.0977
  128CHL1  H15B15678   2.682   4.124  11.043 -0.9895  0.5972  0.0177
  128CHL1   C1615679   2.720   4.244  11.226 -0.6048  0.3500  0.3244
  128CHL1  H16A15680   2.657   4.332  11.253  0.1293  0.9524  0.1357
  128CHL1  H16B15681   2.683   4.162  11.290 -0.1095  2.0491  2.9406
  128CHL1   C1715682   2.866   4.292  11.263 -0.6725  0.1641  0.1941
  128CHL1   H1715683   2.936   4.209  11.284  1.6427  1.7304 -0.8310
  128CHL1   C1315684   2.928   4.359  11.138 -0.6961  0.2321  0.3148
  128CHL1   C1815685   2.868   4.493  11.116  0.0557 -0.4432  0.3082
  128CHL1  H18A15686   2.760   4.484  11.142  0.1655 -3.2157  0.1076
  128CHL1  H18B15687   2.915   4.572  11.177 -0.4169  0.1799 -0.1235
  128CHL1  H18C15688   2.871   4.528  11.011 -0.4739 -1.8960 -0.2199
  128CHL1   C1215689   3.074   4.350  11.116 -0.3735  0.1178 -0.1816
  128CHL1  H12A15690   3.134   4.411  11.187 -1.4435 -0.4184  1.2220
  128CHL1  H12B15691   3.092   4.242  11.137  1.0647  0.4250  0.3009
  128CHL1   C1115692   3.107   4.388  10.970  0.5352 -0.2887  0.7600
  128CHL1  H11A15693   3.093   4.498  10.964  2.1290  0.0290  2.1162
  128CHL1  H11B15694   3.214   4.365  10.947  0.4325 -0.7950  0.7698
  128CHL1    C915695   3.029   4.304  10.863  0.7888 -0.4259  0.2944
  128CHL1    H915696   3.061   4.199  10.876 -1.8860 -1.1504  1.6207
  128CHL1   C1015697   3.058   4.339  10.718 -0.0155  0.7479 -0.3750
  128CHL1   C1915698   3.058   4.487  10.691 -0.6937 -0.8171 -0.3452
  128CHL1  H19A15699   3.098   4.516  10.592 -1.0537  0.5983 -0.1052
  128CHL1  H19B15700   2.961   4.538  10.707 -0.4718 -0.6043  0.3531
  128CHL1  H19C15701   3.131   4.524  10.766 -1.7010  0.2343  0.1494
  128CHL1    C115702   3.197   4.287  10.676 -0.4291 -0.1840  0.2832
  128CHL1   H1A15703   3.273   4.332  10.743 -0.2561 -1.7783  1.1878
  128CHL1   H1B15704   3.210   4.180  10.703 -1.3035 -0.6858 -1.1429
  128CHL1    C215705   3.232   4.298  10.522  0.6913 -0.7232 -0.2895
  128CHL1   H2A15706   3.319   4.233  10.498  0.5502 -0.0806 -2.7794
  128CHL1   H2B15707   3.260   4.403  10.502  0.4606 -0.5064  0.4728
  128CHL1   C2015708   2.865   4.367  11.399 -0.4615 -0.0332  0.2826
  128CHL1   H2015709   2.796   4.452  11.381 -0.0612  0.0517 -0.9715
  128CHL1   C2115710   3.006   4.421  11.430  1.3321  0.0604 -0.0386
  128CHL1  H21A15711   3.015   4.475  11.527 -2.1398  0.2017  0.3417
  128CHL1  H21B15712   3.041   4.493  11.353  1.0967 -0.1720 -0.3674
  128CHL1  H21C15713   3.074   4.333  11.433 -1.3625 -2.2065 -0.3261
  128CHL1   C2215714   2.814   4.276  11.518  0.0258 -0.1219 -0.1784
  128CHL1  H22A15715   2.710   4.242  11.496 -0.4037  0.8923  0.1939
  128CHL1  H22B15716   2.886   4.192  11.516  1.5446  1.1077  0.8705
  128CHL1   C2315717   2.806   4.339  11.660  0.5018  0.2105  0.4511
  128CHL1  H23A15718   2.904   4.348  11.713  0.2864 -0.4880  0.9809
  128CHL1  H23B15719   2.746   4.433  11.659 -0.7109 -0.5421 -1.3894
  128CHL1   C2415720   2.725   4.251  11.750  0.0703  0.0279  1.0931
  128CHL1  H24A15721   2.640   4.212  11.690  0.5684 -1.6098  1.4104
  128CHL1  H24B15722   2.779   4.163  11.791  1.1885  0.0074 -0.3216
  128CHL1   C2515723   2.668   4.327  11.878 -0.0001 -0.2965  1.0329
  128CHL1   H2515724   2.587   4.394  11.843  0.9613 -1.1385 -3.3957
  128CHL1   C2615725   2.612   4.227  11.978 -0.1679 -0.3166  0.2748
  128CHL1  H26A15726   2.540   4.160  11.927 -0.6368  0.1811  0.2784
  128CHL1  H26B15727   2.691   4.163  12.023  0.0241 -0.9638 -0.9417
  128CHL1  H26C15728   2.553   4.282  12.054  0.4469  0.4359  0.2228
  128CHL1   C2715729   2.781   4.406  11.953  0.7489  0.0667 -0.0906
  128CHL1  H27A15730   2.874   4.347  11.965  1.1523  1.1455  3.0338
  128CHL1  H27B15731   2.799   4.492  11.886 -0.7503  0.2046 -0.3513
  128CHL1  H27C15732   2.745   4.441  12.052 -0.2652 -2.4009  0.4713
  129CHL1    C315733   3.729   2.263  10.453  0.4297  0.3416  0.1420
  129CHL1    H315734   3.788   2.357  10.466  1.3035  0.0048 -1.1459
  129CHL1    O315735   3.706   2.240  10.315  0.1670 -0.1468  0.0346
  129CHL1   H3'15736   3.792   2.225  10.275  0.3491 -1.1902  0.7660
  129CHL1    C415737   3.828   2.155  10.509  0.5014  0.2103 -0.1805
  129CHL1   H4A15738   3.790   2.052  10.491  0.7611 -0.0010  0.4472
  129CHL1   H4B15739   3.918   2.144  10.444  0.2512 -0.3720 -0.4318
  129CHL1    C515740   3.850   2.174  10.658 -0.1262  0.0711  0.1437
  129CHL1    C615741   3.976   2.191  10.700  0.0589  0.0812 -0.0273
  129CHL1    H615742   4.063   2.173  10.637  0.8381  1.8935  0.4566
  129CHL1    C715743   4.021   2.227  10.835 -0.9615 -0.5297  0.6918
  129CHL1   H7A15744   4.097   2.157  10.877  1.3647  1.4117 -0.0379
  129CHL1   H7B15745   4.088   2.316  10.835  2.0815 -2.6195  2.3622
  129CHL1    C815746   3.902   2.221  10.932 -0.1289  1.0474 -0.3976
  129CHL1    H815747   3.885   2.114  10.954 -3.1489  0.9108 -2.6731
  129CHL1   C1415748   3.931   2.288  11.069 -0.7917  0.3394 -0.3641
  129CHL1   H1415749   3.948   2.391  11.031 -0.5490 -0.5872 -2.9103
  129CHL1   C1515750   4.072   2.263  11.147 -0.1100  0.0686 -0.2343
  129CHL1  H15A15751   4.099   2.158  11.172  0.9134  0.5591  0.7768
  129CHL1  H15B15752   4.161   2.309  11.099  0.8507 -1.4889 -0.0052
  129CHL1   C1615753   4.039   2.327  11.286  0.3109 -0.3639 -0.3229
  129CHL1  H16A15754   4.066   2.254  11.365 -0.0309 -0.9917 -0.7777
  129CHL1  H16B15755   4.107   2.410  11.316  0.8315 -0.8227 -0.2242
  129CHL1   C1715756   3.889   2.374  11.278  0.0306 -0.2001  0.4721
  129CHL1   H1715757   3.897   2.472  11.225 -1.1138 -0.4992 -0.2949
  129CHL1   C1315758   3.821   2.290  11.172  0.0033 -0.0136  0.2325
  129CHL1   C1815759   3.792   2.141  11.220  0.9819 -0.3792 -0.0023
  129CHL1  H18A15760   3.698   2.149  11.280  0.4375  0.1245 -0.9009
  129CHL1  H18B15761   3.766   2.069  11.140 -0.8939  1.9143 -1.5986
  129CHL1  H18C15762   3.868   2.091  11.284  2.2938  0.1990 -1.0614
  129CHL1   C1215763   3.690   2.353  11.115 -0.7813 -0.5876 -0.2222
  129CHL1  H12A15764   3.602   2.353  11.182 -0.2740 -1.7232  0.4751
  129CHL1  H12B15765   3.710   2.459  11.091 -2.6227 -0.1274  0.1932
  129CHL1   C1115766   3.651   2.281  10.982  0.6460  0.7156  0.0629
  129CHL1  H11A15767   3.617   2.184  11.025  1.5466  1.1353  1.8071
  129CHL1  H11B15768   3.568   2.338  10.936 -0.0316 -1.4690 -1.5611
  129CHL1    C915769   3.769   2.268  10.876 -0.0403 -0.1323  0.4040
  129CHL1    H915770   3.784   2.375  10.850  0.5552 -0.0132  1.1768
  129CHL1   C1015771   3.730   2.203  10.747  0.3022 -0.0844 -0.6590
  129CHL1   C1915772   3.664   2.060  10.767  0.5995 -0.3591  0.0223
  129CHL1  H19A15773   3.730   1.983  10.811  0.1278 -0.8286 -0.0824
  129CHL1  H19B15774   3.593   2.070  10.851 -0.7613 -0.8754 -1.0348
  129CHL1  H19C15775   3.609   2.022  10.678  0.1783  0.6603 -0.1656
  129CHL1    C115776   3.622   2.298  10.672  0.6740 -0.1989 -0.2078
  129CHL1   H1A15777   3.527   2.281  10.727  0.7632  0.7481  0.2501
  129CHL1   H1B15778   3.652   2.405  10.676 -0.9221  0.3219 -1.1289
  129CHL1    C215779   3.594   2.260  10.525 -0.4126  0.4276  0.4608
  129CHL1   H2A15780   3.529   2.339  10.482  0.3459  0.3596 -0.8549
  129CHL1   H2B15781   3.546   2.160  10.523 -0.8311  0.6320  0.1419
  129CHL1   C2015782   3.817   2.399  11.414 -0.5032  0.3660  0.8542
  129CHL1   H2015783   3.711   2.401  11.381  0.1514 -0.0905 -1.3887
  129CHL1   C2115784   3.859   2.534  11.472  0.3775  0.3000  0.4878
  129CHL1  H21A15785   3.956   2.518  11.522  0.8034  1.5901  0.1046
  129CHL1  H21B15786   3.779   2.574  11.539 -1.3070  0.3687 -1.4320
  129CHL1  H21C15787   3.865   2.611  11.392 -2.8421  0.5671  0.3355
  129CHL1   C2215788   3.834   2.294  11.521 -0.4568 -0.0923  0.5798
  129CHL1  H22A15789   3.799   2.197  11.479 -0.0767 -0.0137  0.0716
  129CHL1  H22B15790   3.943   2.276  11.533  0.0763 -0.1478 -2.9950
  129CHL1   C2315791   3.762   2.323  11.656 -0.4483  0.0336 -0.3713
  129CHL1  H23A15792   3.789   2.422  11.700  0.0937  0.2402 -1.1409
  129CHL1  H23B15793   3.657   2.324  11.621  0.3506 -1.2102 -3.0617
  129CHL1   C2415794   3.788   2.214  11.759  0.0271  0.3490 -0.0061
  129CHL1  H24A15795   3.745   2.121  11.718  0.2851 -0.0568  0.6339
  129CHL1  H24B15796   3.892   2.194  11.791 -0.4074 -0.7417  0.7563
  129CHL1   C2515797   3.700   2.245  11.889  0.5398  0.5125 -0.0416
  129CHL1   H2515798   3.700   2.354  11.911  1.5678  0.2497  1.3727
  129CHL1   C2615799   3.549   2.201  11.874 -0.5869  0.3531 -0.2827
  129CHL1  H26A15800   3.501   2.201  11.974  1.1553  1.6248  0.6062
  129CHL1  H26B15801   3.493   2.274  11.812 -0.0755  1.1458  0.1660
  129CHL1  H26C15802   3.546   2.096  11.839  0.5633 -0.4073  1.7115
  129CHL1   C2715803   3.777   2.188  12.014 -0.1299  0.1988  0.2951
  129CHL1  H27A15804   3.880   2.229  12.018  0.6606 -1.4323 -1.5188
  129CHL1  H27B15805   3.721   2.235  12.097  1.6216 -0.0539  1.6755
  129CHL1  H27C15806   3.770   2.078  12.024  1.1380  0.1336  0.7247
  130CHL1    C315807   2.324   3.435  10.728  0.2103  0.2645 -0.4148
  130CHL1    H315808   2.357   3.529  10.777  0.1138  1.6485 -2.8662
  130CHL1    O315809   2.365   3.420  10.600  0.0027 -0.3662 -0.0925
  130CHL1   H3'15810   2.337   3.330  10.584  1.3417 -1.0867  1.3283
  130CHL1    C415811   2.387   3.316  10.801 -0.1353  0.1532  0.1070
  130CHL1   H4A15812   2.348   3.223  10.753 -3.0797  0.6203  1.3567
  130CHL1   H4B15813   2.497   3.317  10.784  0.2033 -1.5089  1.8955
  130CHL1    C515814   2.356   3.305  10.944 -0.6406 -0.2674 -0.0171
  130CHL1    C615815   2.447   3.305  11.042 -0.3482  0.6217 -0.4423
  130CHL1    H615816   2.554   3.309  11.018 -0.2036 -0.0083  0.0498
  130CHL1    C715817   2.409   3.285  11.191 -0.6469  0.1302 -0.1232
  130CHL1   H7A15818   2.462   3.197  11.234 -0.1513  1.3712  1.9201
  130CHL1   H7B15819   2.438   3.372  11.254  0.7882 -0.0752 -0.4536
  130CHL1    C815820   2.256   3.254  11.219 -0.0752 -0.5436 -0.1729
  130CHL1    H815821   2.233   3.146  11.210  0.3266 -0.5927 -0.6391
  130CHL1   C1415822   2.219   3.298  11.365  0.0921  0.1567  0.1526
  130CHL1   H1415823   2.244   3.406  11.369  2.3867 -0.3554  2.0532
  130CHL1   C1515824   2.302   3.234  11.483 -0.4527 -0.3112 -0.2798
  130CHL1  H15A15825   2.333   3.128  11.470  3.6698  0.8457 -1.6456
  130CHL1  H15B15826   2.397   3.290  11.498 -1.2710  0.3604  3.7220
  130CHL1   C1615827   2.210   3.252  11.601  0.3846  0.5795 -0.6981
  130CHL1  H16A15828   2.189   3.157  11.654  2.5547 -0.0132 -0.7897
  130CHL1  H16B15829   2.257   3.309  11.685 -0.1594 -2.0547  1.5516
  130CHL1   C1715830   2.083   3.321  11.548 -0.5320  0.1441 -0.6790
  130CHL1   H1715831   2.108   3.429  11.536 -0.3270  0.1166 -0.5037
  130CHL1   C1315832   2.071   3.283  11.402  0.3821  0.1941  0.3856
  130CHL1   C1815833   2.020   3.126  11.387  0.0069 -0.8542 -0.0911
  130CHL1  H18A15834   2.090   3.055  11.436 -2.2235 -3.4282 -0.4594
  130CHL1  H18B15835   1.920   3.108  11.432 -0.6283 -1.4494 -1.6870
  130CHL1  H18C15836   2.012   3.091  11.282  0.0866 -1.4844  0.1102
  130CHL1   C1215837   1.994   3.374  11.308  0.5347 -0.9434 -0.6171
  130CHL1  H12A15838   1.884   3.369  11.320  0.5622  0.3334  0.3131
  130CHL1  H12B15839   2.023   3.481  11.315  1.6584 -1.3096  0.6802
  130CHL1   C1115840   2.019   3.343  11.160  0.0486 -0.0809  0.2366
  130CHL1  H11A15841   1.991   3.236  11.151  0.3409  0.0170 -3.0417
  130CHL1  H11B15842   1.954   3.412  11.102 -1.1600 -0.5041  1.0490
  130CHL1    C915843   2.173   3.344  11.124 -0.6357  0.7017 -0.3216
  130CHL1    H915844   2.208   3.446  11.150  0.4887  0.0289  0.9807
  130CHL1   C1015845   2.205   3.307  10.975 -0.6688 -0.0198  0.0284
  130CHL1   C1915846   2.160   3.160  10.941 -0.3432  0.3482  0.3156
  130CHL1  H19A15847   2.065   3.128  10.990 -0.0165 -0.3246  0.5269
  130CHL1  H19B15848   2.148   3.127  10.836  1.2366 -1.2076  0.5894
  130CHL1  H19C15849   2.238   3.095  10.986  0.2956  1.9288  1.6189
  130CHL1    C115850   2.134   3.416  10.887 -0.1011 -0.0374 -0.0711
  130CHL1   H1A15851   2.023   3.403  10.891 -0.0898  0.0290  0.8482
  130CHL1   H1B15852   2.159   3.518  10.924 -0.4552 -0.0876  0.3173
  130CHL1    C215853   2.173   3.416  10.736 -0.3174 -0.0943 -0.2855
  130CHL1   H2A15854   2.123   3.493  10.673 -0.5598 -1.0534 -1.3078
  130CHL1   H2B15855   2.153   3.311  10.706 -0.8526  0.2294 -1.0971
  130CHL1   C2015856   1.959   3.301  11.643 -0.7927 -0.5988  0.4331
  130CHL1   H2015857   1.934   3.192  11.642  1.0606 -1.0574 -0.2008
  130CHL1   C2115858   1.845   3.389  11.596  0.7053  0.2178 -0.6002
  130CHL1  H21A15859   1.868   3.497  11.585  0.0934  0.4551  0.3056
  130CHL1  H21B15860   1.760   3.379  11.667 -0.1945  1.0264 -1.5422
  130CHL1  H21C15861   1.795   3.347  11.506  2.0656 -3.1040  0.0472
  130CHL1   C2215862   1.995   3.320  11.790  0.0990 -0.0632  0.3734
  130CHL1  H22A15863   1.910   3.298  11.857 -0.3329 -0.3201 -0.2417
  130CHL1  H22B15864   2.079   3.251  11.814  1.1299  1.1206  0.2992
  130CHL1   C2315865   2.021   3.474  11.819 -0.9052  0.2246  0.1751
  130CHL1  H23A15866   2.094   3.511  11.744 -2.8119  1.7612 -1.0180
  130CHL1  H23B15867   1.929   3.534  11.805  0.0249  1.7921  0.4642
  130CHL1   C2415868   2.077   3.496  11.960 -0.3328 -0.2981 -0.2020
  130CHL1  H24A15869   2.181   3.457  11.970  0.1720  0.4838 -1.9247
  130CHL1  H24B15870   2.089   3.606  11.957 -0.6583 -0.2650 -0.4437
  130CHL1   C2515871   1.990   3.450  12.078  1.6722  0.2907  0.0531
  130CHL1   H2515872   1.978   3.341  12.063 -0.1077  0.8127 -3.3632
  130CHL1   C2615873   2.056   3.475  12.209 -0.2508 -0.1262  0.9331
  130CHL1  H26A15874   2.161   3.439  12.210 -0.7608 -1.7155  0.0071
  130CHL1  H26B15875   2.062   3.585  12.222  0.8671 -0.2939  2.0762
  130CHL1  H26C15876   1.997   3.428  12.291 -0.2904 -0.9616  0.4338
  130CHL1   C2715877   1.847   3.515  12.075 -0.5992 -0.2199  0.2288
  130CHL1  H27A15878   1.804   3.484  11.977  1.1605 -0.5449 -0.4824
  130CHL1  H27B15879   1.795   3.468  12.161 -0.0248 -1.6772 -0.1938
  130CHL1  H27C15880   1.853   3.625  12.083  0.9675 -0.1274 -1.5725
  131CHL1    C315881   0.508   2.017  10.779 -0.4795  0.1894 -0.9485
  131CHL1    H315882   0.403   1.987  10.801 -0.1854 -0.9856 -1.0798
  131CHL1    O315883   0.531   2.048  10.643  0.0066  0.3392  0.2197
  131CHL1   H3'15884   0.626   2.056  10.634 -0.0975  0.9483 -0.3441
  131CHL1    C415885   0.547   2.134  10.869 -0.6653 -0.1451 -1.0708
  131CHL1   H4A15886   0.649   2.175  10.851 -0.9144  1.8839  1.5876
  131CHL1   H4B15887   0.481   2.219  10.843  0.3534  1.7519  1.9747
  131CHL1    C515888   0.533   2.089  11.018  0.0594  0.2051  0.9838
  131CHL1    C615889   0.444   2.137  11.113  0.6387  0.3048  0.9490
  131CHL1    H615890   0.384   2.222  11.078  0.6180  0.8680  2.2879
  131CHL1    C715891   0.448   2.104  11.256  0.1897 -0.3615 -0.6229
  131CHL1   H7A15892   0.453   2.199  11.313  2.2875  0.0237 -1.3311
  131CHL1   H7B15893   0.355   2.047  11.275  0.2207 -0.7741 -1.6223
  131CHL1    C815894   0.571   2.023  11.302 -0.4726 -0.0423 -0.2108
  131CHL1    H815895   0.659   2.091  11.310 -0.0947 -0.4877 -0.5433
  131CHL1   C1415896   0.547   1.956  11.439 -0.4219  0.2668  0.1589
  131CHL1   H1415897   0.469   1.882  11.411  0.6407 -0.3260 -1.3760
  131CHL1   C1515898   0.481   2.039  11.549 -0.3832 -0.0170 -0.3304
  131CHL1  H15A15899   0.518   2.143  11.554  0.3643 -0.0176 -3.5784
  131CHL1  H15B15900   0.370   2.034  11.538 -0.1884 -0.0019 -2.6553
  131CHL1   C1615901   0.527   1.963  11.676 -0.8746  0.8121 -0.3924
  131CHL1  H16A15902   0.601   2.022  11.734 -0.8927 -0.4390  0.9595
  131CHL1  H16B15903   0.440   1.953  11.745 -1.1867  0.7139 -0.7986
  131CHL1   C1715904   0.594   1.831  11.627  0.1386  0.1927 -0.3522
  131CHL1   H1715905   0.514   1.759  11.598  2.3040 -3.1349  1.2953
  131CHL1   C1315906   0.654   1.868  11.493 -0.5615 -0.1444 -0.3058
  131CHL1   C1815907   0.785   1.948  11.511  0.7079  0.1443  0.3731
  131CHL1  H18A15908   0.874   1.883  11.522  2.3873  1.6804 -2.8009
  131CHL1  H18B15909   0.806   2.004  11.417  0.2781  1.0977  0.8239
  131CHL1  H18C15910   0.779   2.034  11.582 -0.2571  0.0849  0.3709
  131CHL1   C1215911   0.675   1.753  11.386 -0.1244 -0.2959 -0.1598
  131CHL1  H12A15912   0.759   1.686  11.415 -0.8891 -0.6643  1.3086
  131CHL1  H12B15913   0.590   1.682  11.380  0.9378 -1.7460  1.0132
  131CHL1   C1115914   0.705   1.806  11.251 -0.0942 -0.3441  0.3069
  131CHL1  H11A15915   0.809   1.844  11.251 -0.4204  0.8059 -2.3315
  131CHL1  H11B15916   0.714   1.716  11.186 -0.5179 -1.3059  1.5249
  131CHL1    C915917   0.596   1.909  11.201 -0.0611 -0.5501 -0.0672
  131CHL1    H915918   0.501   1.853  11.189 -0.7673  0.7331 -0.6609
  131CHL1   C1015919   0.623   1.968  11.057  0.7792 -0.6856 -0.2782
  131CHL1   C1915920   0.771   2.015  11.054 -0.1402 -0.8324 -0.8203
  131CHL1  H19A15921   0.842   1.930  11.066  1.0814  0.1154 -1.0526
  131CHL1  H19B15922   0.803   2.071  10.963 -0.2732  0.1308 -0.2878
  131CHL1  H19C15923   0.796   2.084  11.138  0.6930 -0.1812 -1.5853
  131CHL1    C115924   0.595   1.854  10.955 -1.1183  0.2343 -0.3603
  131CHL1   H1A15925   0.670   1.772  10.962  1.3539  2.5109  2.1952
  131CHL1   H1B15926   0.493   1.818  10.978 -1.5834  2.2819  1.0619
  131CHL1    C215927   0.593   1.897  10.804 -0.5178 -1.2542 -0.5354
  131CHL1   H2A15928   0.567   1.815  10.734  0.2716 -1.0616 -1.0529
  131CHL1   H2B15929   0.698   1.926  10.784 -0.7135  1.6085  1.9214
  131CHL1   C2015930   0.687   1.745  11.715 -0.0963  0.5512 -0.2321
  131CHL1   H2015931   0.749   1.691  11.640  0.3295  0.8702 -0.1062
  131CHL1   C2115932   0.608   1.634  11.787 -0.3470  0.3706 -0.0813
  131CHL1  H21A15933   0.559   1.687  11.871 -2.7841 -2.5641  0.5411
  131CHL1  H21B15934   0.675   1.553  11.823  0.0100  0.1429 -1.2279
  131CHL1  H21C15935   0.531   1.586  11.724  1.7197 -0.8603 -1.7924
  131CHL1   C2215936   0.786   1.824  11.810  0.4495 -0.6157 -0.5868
  131CHL1  H22A15937   0.808   1.928  11.778 -0.6787  0.0030  0.5479
  131CHL1  H22B15938   0.734   1.818  11.908 -0.9112 -0.2516 -1.2556
  131CHL1   C2315939   0.917   1.745  11.823  0.0534  0.1366 -0.1346
  131CHL1  H23A15940   0.903   1.646  11.872 -0.0605 -0.0808 -0.6041
  131CHL1  H23B15941   0.947   1.714  11.721 -1.5616 -0.5822 -0.4059
  131CHL1   C2415942   1.028   1.832  11.892  0.1788  0.3249  0.0422
  131CHL1  H24A15943   1.123   1.775  11.880 -0.6070 -0.9561 -0.4027
  131CHL1  H24B15944   1.035   1.917  11.821  0.4251 -0.0452 -0.3896
  131CHL1   C2515945   0.992   1.869  12.037  0.5203  0.4020 -0.0916
  131CHL1   H2515946   0.898   1.929  12.036  0.9763  1.2430  2.1642
  131CHL1   C2615947   0.965   1.743  12.119  0.3687 -0.7378  0.6251
  131CHL1  H26A15948   0.931   1.779  12.218 -0.3612  0.8424 -0.1717
  131CHL1  H26B15949   0.879   1.681  12.085 -1.8684  2.4755 -0.0055
  131CHL1  H26C15950   1.063   1.690  12.125  0.1122 -1.3793 -0.4902
  131CHL1   C2715951   1.096   1.959  12.100  0.0743  0.8026 -0.7945
  131CHL1  H27A15952   1.091   2.063  12.061 -1.0196  2.4922  3.2650
  131CHL1  H27B15953   1.073   1.974  12.208  0.0632 -2.0308 -0.3358
  131CHL1  H27C15954   1.194   1.908  12.101  0.4334  1.2564  2.9115
  132CHL1    C315955   4.450   3.902  11.030 -0.7091 -0.4138 -0.0732
  132CHL1    H315956   4.339   3.904  11.034 -0.8804 -3.6476 -0.6044
  132CHL1    O315957   4.496   3.887  10.894  0.5905  0.1846  0.5206
  132CHL1   H3'15958   4.590   3.884  10.915  0.2779 -1.4623  1.9467
  132CHL1    C415959   4.516   4.026  11.082  0.1956 -0.3766  1.2292
  132CHL1   H4A15960   4.623   4.022  11.051 -0.3923  1.1878 -1.4146
  132CHL1   H4B15961   4.487   4.107  11.011 -1.0712 -2.0214 -0.2075
  132CHL1    C515962   4.485   4.049  11.232  0.0732 -0.5902 -0.3499
  132CHL1    C615963   4.440   4.170  11.274 -0.2862 -0.1408 -0.0454
  132CHL1    H615964   4.426   4.253  11.202  1.5543  1.3992  1.2723
  132CHL1    C715965   4.418   4.210  11.418 -0.2382 -0.4654  0.2472
  132CHL1   H7A15966   4.463   4.308  11.444  1.5373 -0.7604 -1.4868
  132CHL1   H7B15967   4.313   4.231  11.448  0.3250  0.8523  1.4139
  132CHL1    C815968   4.475   4.110  11.514 -0.0279  0.4347  1.5269
  132CHL1    H815969   4.585   4.124  11.520  0.1470 -0.4344  0.5500
  132CHL1   C1415970   4.421   4.128  11.653  0.0261 -0.8250 -1.2945
  132CHL1   H1415971   4.311   4.110  11.644 -0.4875  1.4637 -0.4541
  132CHL1   C1515972   4.445   4.268  11.715 -0.4302 -0.3099 -0.2861
  132CHL1  H15A15973   4.551   4.301  11.702 -0.3086  0.7730  2.6719
  132CHL1  H15B15974   4.375   4.334  11.659 -1.9874  0.9816  2.9144
  132CHL1   C1615975   4.420   4.248  11.864 -0.0932  0.1724 -0.4109
  132CHL1  H16A15976   4.509   4.279  11.923  0.5034 -1.2307 -0.5425
  132CHL1  H16B15977   4.328   4.297  11.903  0.0203 -0.2662  0.4269
  132CHL1   C1715978   4.386   4.098  11.884 -0.0432 -0.0781 -0.2837
  132CHL1   H1715979   4.277   4.095  11.861 -0.4051 -0.7296  1.3582
  132CHL1   C1315980   4.460   4.027  11.760 -0.4385  0.0682  0.5676
  132CHL1   C1815981   4.608   4.018  11.779  0.0264  0.2272 -0.0345
  132CHL1  H18A15982   4.641   4.111  11.830 -1.3592  0.3840  0.6167
  132CHL1  H18B15983   4.636   3.939  11.852 -1.8300 -1.1291 -0.7335
  132CHL1  H18C15984   4.665   4.002  11.685  0.1118  1.0632 -0.1370
  132CHL1   C1215985   4.415   3.887  11.710  0.6702 -0.2166 -0.0338
  132CHL1  H12A15986   4.450   3.798  11.766 -1.2292 -1.2613 -0.4356
  132CHL1  H12B15987   4.305   3.896  11.711  0.7112  0.3169  0.6282
  132CHL1   C1115988   4.463   3.862  11.565  0.2378 -0.0865  0.1706
  132CHL1  H11A15989   4.572   3.837  11.571  0.1286 -0.3903  1.0338
  132CHL1  H11B15990   4.414   3.769  11.530  0.8505  0.0400 -1.0564
  132CHL1    C915991   4.440   3.972  11.465  0.1349 -0.0565  0.3703
  132CHL1    H915992   4.331   3.981  11.445  0.3853 -1.1711 -1.7852
  132CHL1   C1015993   4.509   3.935  11.325 -0.0550  0.0510 -0.0936
  132CHL1   C1915994   4.663   3.923  11.340  0.0780 -0.8808 -0.0458
  132CHL1  H19A15995   4.697   3.829  11.388 -0.6476 -2.0807 -1.7805
  132CHL1  H19B15996   4.720   3.932  11.245 -1.2533 -1.0172 -0.8737
  132CHL1  H19C15997   4.700   4.010  11.398  0.1855 -0.6645 -0.4349
  132CHL1    C115998   4.441   3.806  11.270 -0.2716  0.2302  0.2672
  132CHL1   H1A15999   4.482   3.717  11.322  0.7864  0.6752  0.2043
  132CHL1   H1B16000   4.331   3.818  11.278 -0.1271  0.3597  3.0001
  132CHL1    C216001   4.484   3.776  11.121 -0.4972  0.0135 -0.0690
  132CHL1   H2A16002   4.422   3.690  11.088  1.2699 -1.1615 -0.5204
  132CHL1   H2B16003   4.591   3.750  11.104 -0.5848  0.4834 -1.4079
  132CHL1   C2016004   4.407   4.037  12.025 -0.1780 -0.5454  0.5119
  132CHL1   H2016005   4.511   4.019  12.058  0.4169 -0.0507 -1.0521
  132CHL1   C2116006   4.335   3.903  12.015  0.1528  0.7162  0.5745
  132CHL1  H21A16007   4.396   3.825  11.964 -0.1994  0.8238 -0.0219
  132CHL1  H21B16008   4.234   3.923  11.973 -0.3352  1.0041  1.8421
  132CHL1  H21C16009   4.319   3.864  12.118 -0.2463 -2.3590 -0.5252
  132CHL1   C2216010   4.351   4.132  12.125 -0.9847  0.2588 -0.5919
  132CHL1  H22A16011   4.393   4.235  12.122 -1.7437  0.5684 -3.3061
  132CHL1  H22B16012   4.245   4.136  12.094 -0.7911  0.6578 -1.2166
  132CHL1   C2316013   4.360   4.080  12.274  0.3989  0.2913 -0.2945
  132CHL1  H23A16014   4.301   4.153  12.334  1.0081  0.4680  0.0903
  132CHL1  H23B16015   4.306   3.983  12.275  0.0529  0.4839  0.1461
  132CHL1   C2416016   4.497   4.072  12.340  0.4709 -0.1416  0.3299
  132CHL1  H24A16017   4.559   3.995  12.288 -0.6936 -0.2648 -0.9120
  132CHL1  H24B16018   4.561   4.161  12.320  1.2194 -0.8396 -0.4596
  132CHL1   C2516019   4.512   4.037  12.494 -0.1161  0.5431  0.5899
  132CHL1   H2516020   4.462   4.116  12.554 -0.2010  2.3555 -1.7382
  132CHL1   C2616021   4.456   3.895  12.531  0.7161 -0.0011  0.1850
  132CHL1  H26A16022   4.354   3.867  12.494  1.1875 -2.7588  0.7424
  132CHL1  H26B16023   4.531   3.824  12.491  2.0636  0.4655  1.7716
  132CHL1  H26C16024   4.450   3.873  12.639  0.0314 -0.2530  0.1017
  132CHL1   C2716025   4.661   4.045  12.529 -0.1788 -0.0117  0.6271
  132CHL1  H27A16026   4.684   4.034  12.637  1.4510 -0.9648  0.2267
  132CHL1  H27B16027   4.720   3.967  12.476  1.6802  2.0066 -0.4334
  132CHL1  H27C16028   4.709   4.143  12.504  0.0704 -0.5179 -0.9917
  133CHL1    C316029   1.716   6.278  10.574  1.1125  0.3089 -0.3872
  133CHL1    H316030   1.822   6.273  10.606  0.7882  1.0622  0.8852
  133CHL1    O316031   1.712   6.258  10.433  0.2731  0.0168 -0.5211
  133CHL1   H3'16032   1.626   6.293  10.405  1.1400  1.2733 -1.7821
  133CHL1    C416033   1.629   6.180  10.646  0.3087  0.2764 -0.1840
  133CHL1   H4A16034   1.524   6.188  10.611  0.1594 -1.0179 -0.0683
  133CHL1   H4B16035   1.663   6.078  10.619 -1.1570 -0.2076 -0.2723
  133CHL1    C516036   1.617   6.203  10.793  0.8563 -0.4845 -0.6440
  133CHL1    C616037   1.657   6.115  10.885 -0.3843  0.0395  0.2208
  133CHL1    H616038   1.697   6.020  10.847 -0.0437  0.1650  0.2620
  133CHL1    C716039   1.654   6.129  11.030  0.2297  0.7822 -0.1543
  133CHL1   H7A16040   1.623   6.035  11.080 -1.3744  0.6615 -1.3078
  133CHL1   H7B16041   1.756   6.148  11.068  0.3564  0.0746 -0.1322
  133CHL1    C816042   1.566   6.248  11.080  0.3239 -0.4156 -0.9086
  133CHL1    H816043   1.460   6.219  11.065  0.4844 -0.7678 -1.4325
  133CHL1   C1416044   1.590   6.299  11.222  0.5697  0.4545  0.3114
  133CHL1   H1416045   1.698   6.324  11.218  0.8195 -0.5490  0.5845
  133CHL1   C1516046   1.584   6.197  11.342 -0.2821 -0.3632 -0.5054
  133CHL1  H15A16047   1.489   6.144  11.320 -0.2676 -0.4723 -0.3118
  133CHL1  H15B16048   1.679   6.141  11.329 -0.3448 -0.3211 -1.1911
  133CHL1   C1616049   1.590   6.292  11.460 -0.2789  0.7020  0.3967
  133CHL1  H16A16050   1.508   6.256  11.526 -2.3677  2.8138 -0.8793
  133CHL1  H16B16051   1.686   6.284  11.515  0.8752 -1.0518 -1.7148
  133CHL1   C1716052   1.558   6.437  11.419  0.7303 -0.4601 -0.6945
  133CHL1   H1716053   1.652   6.495  11.419  0.0834  0.6376  0.5826
  133CHL1   C1316054   1.515   6.427  11.269 -0.2772  0.3386 -0.3675
  133CHL1   C1816055   1.359   6.400  11.263 -0.8288  0.0922 -0.0222
  133CHL1  H18A16056   1.332   6.318  11.334 -0.4966  0.3175  0.3692
  133CHL1  H18B16057   1.288   6.484  11.276 -0.4389  0.4090  0.0565
  133CHL1  H18C16058   1.342   6.361  11.161 -0.4077 -0.5488  0.1444
  133CHL1   C1216059   1.563   6.544  11.178 -0.0830  0.9341  0.0960
  133CHL1  H12A16060   1.505   6.638  11.193 -2.7300 -0.0504 -2.8058
  133CHL1  H12B16061   1.672   6.558  11.191  0.5683 -3.0228 -0.0934
  133CHL1   C1116062   1.530   6.510  11.031  0.1385 -0.4030  0.4065
  133CHL1  H11A16063   1.420   6.508  11.017  0.1583 -0.5475  0.2723
  133CHL1  H11B16064   1.571   6.592  10.969 -0.0057  1.1684  2.2876
  133CHL1    C916065   1.599   6.377  10.985  0.3227  0.1128 -0.2130
  133CHL1    H916066   1.708   6.400  10.988  0.4023 -0.2630 -0.2117
  133CHL1   C1016067   1.571   6.350  10.838  0.1296  0.7366  0.0782
  133CHL1   C1916068   1.417   6.372  10.812 -0.2432 -0.2997  0.2057
  133CHL1  H19A16069   1.371   6.323  10.900 -0.8589 -1.0018 -0.4913
  133CHL1  H19B16070   1.377   6.476  10.812 -1.7934 -0.8681 -0.5130
  133CHL1  H19C16071   1.390   6.313  10.722  0.2984  0.3154 -0.3784
  133CHL1    C116072   1.646   6.454  10.747  0.2873  0.5028 -0.2603
  133CHL1   H1A16073   1.592   6.551  10.757 -2.3685 -0.8559 -0.3560
  133CHL1   H1B16074   1.752   6.469  10.775 -0.0939  2.9557  0.1107
  133CHL1    C216075   1.648   6.413  10.596  0.0560 -0.0327 -0.0795
  133CHL1   H2A16076   1.699   6.483  10.527  0.9129 -1.3416 -0.8416
  133CHL1   H2B16077   1.540   6.414  10.572  0.3609 -1.5366 -1.7824
  133CHL1   C2016078   1.452   6.499  11.510 -0.2741  0.4258  0.7258
  133CHL1   H2016079   1.351   6.454  11.501 -1.0261  2.2957 -1.2377
  133CHL1   C2116080   1.451   6.657  11.482  0.3307 -0.2236  0.0213
  133CHL1  H21A16081   1.440   6.674  11.373  0.4181 -1.4117 -0.1867
  133CHL1  H21B16082   1.535   6.713  11.529  1.1648 -1.4039 -0.0136
  133CHL1  H21C16083   1.362   6.711  11.522 -0.0352  0.3565 -1.5183
  133CHL1   C2216084   1.480   6.476  11.662 -0.8245  0.2465  0.1507
  133CHL1  H22A16085   1.511   6.371  11.681 -2.1893 -0.1072  0.5312
  133CHL1  H22B16086   1.557   6.548  11.697 -0.2595  0.2427 -1.0288
  133CHL1   C2316087   1.355   6.498  11.751 -0.7038  0.1247  0.5672
  133CHL1  H23A16088   1.329   6.606  11.754  0.6420  0.4643  0.4381
  133CHL1  H23B16089   1.272   6.445  11.699 -0.1548  2.4573 -3.0653
  133CHL1   C2416090   1.364   6.443  11.895 -0.9660  0.3748 -0.0433
  133CHL1  H24A16091   1.407   6.341  11.887  1.4187  1.0749  2.2781
  133CHL1  H24B16092   1.447   6.492  11.951  0.2750  0.6211 -1.9809
  133CHL1   C2516093   1.234   6.444  11.974  0.1398  0.4323  0.1725
  133CHL1   H2516094   1.162   6.397  11.903 -0.7439  2.7042 -0.5609
  133CHL1   C2616095   1.249   6.358  12.098 -0.4324  0.2139 -0.3607
  133CHL1  H26A16096   1.284   6.256  12.070 -0.1970 -0.4211  1.9978
  133CHL1  H26B16097   1.328   6.400  12.163  1.4710 -1.4253 -1.4790
  133CHL1  H26C16098   1.158   6.352  12.161 -0.4694  1.0288 -0.3266
  133CHL1   C2716099   1.177   6.584  12.002  0.3386 -0.1955 -0.1453
  133CHL1  H27A16100   1.168   6.651  11.914 -0.1992  0.0927  0.1244
  133CHL1  H27B16101   1.074   6.581  12.044 -0.2768  2.0518 -1.3215
  133CHL1  H27C16102   1.248   6.634  12.072 -0.1898 -0.6732  0.7581
  134CHL1    C316103   4.838   5.852  10.008  0.0167 -1.3642  0.1404
  134CHL1    H316104   4.728   5.843  10.022 -0.2788  1.8941  0.6357
  134CHL1    O316105   4.864   5.820   9.875 -0.0118  0.0677 -0.2765
  134CHL1   H3'16106   4.959   5.835   9.870 -0.0332  1.6394  2.2517
  134CHL1    C416107   4.878   6.003  10.034 -0.8172 -0.1705  0.7564
  134CHL1   H4A16108   4.981   6.017   9.993 -1.0209  1.6332  0.7746
  134CHL1   H4B16109   4.821   6.078   9.975  1.3217 -0.3229 -1.6720
  134CHL1    C516110   4.868   6.049  10.175 -0.7850 -0.3560  0.0331
  134CHL1    C616111   4.789   6.146  10.216 -0.6087  0.0819 -1.1527
  134CHL1    H616112   4.718   6.191  10.146 -0.3372  2.5293  0.0482
  134CHL1    C716113   4.793   6.209  10.357 -0.8827 -0.3360  0.5290
  134CHL1   H7A16114   4.808   6.319  10.353 -2.1474 -0.1059  1.6288
  134CHL1   H7B16115   4.694   6.187  10.401 -1.7055  0.2957 -0.9710
  134CHL1    C816116   4.904   6.154  10.448  0.4086  0.0820 -0.2220
  134CHL1    H816117   5.003   6.197  10.423  0.6116  0.9028  1.7992
  134CHL1   C1416118   4.860   6.177  10.590  0.1309  0.2251  0.5623
  134CHL1   H1416119   4.773   6.109  10.602  1.4813 -1.7468 -0.2569
  134CHL1   C1516120   4.823   6.324  10.621 -0.0626  0.4396 -0.0167
  134CHL1  H15A16121   4.893   6.386  10.560  0.2509 -1.5776 -1.8357
  134CHL1  H15B16122   4.719   6.359  10.604 -0.4164 -0.8308 -0.5590
  134CHL1   C1616123   4.854   6.327  10.772  0.5057  0.3240  0.4388
  134CHL1  H16A16124   4.936   6.395  10.806 -0.8302  2.3332 -0.1849
  134CHL1  H16B16125   4.775   6.364  10.841 -1.2819  0.0484 -1.3682
  134CHL1   C1716126   4.898   6.181  10.817 -0.7639 -0.3205  0.2733
  134CHL1   H1716127   4.802   6.127  10.828 -1.0343 -0.1956 -1.3339
  134CHL1   C1316128   4.959   6.124  10.690 -0.7416  0.3763  0.8265
  134CHL1   C1816129   5.095   6.184  10.676 -1.1039 -0.1146 -0.1561
  134CHL1  H18A16130   5.101   6.290  10.709  0.0895 -0.4739  0.8530
  134CHL1  H18B16131   5.165   6.134  10.746  0.0609  0.9317 -0.5209
  134CHL1  H18C16132   5.143   6.174  10.576  0.8211 -0.3742  0.7513
  134CHL1   C1216133   4.977   5.974  10.675 -0.8766  0.4315  0.3691
  134CHL1  H12A16134   5.048   5.933  10.750 -3.3990 -3.2561  1.0100
  134CHL1  H12B16135   4.879   5.926  10.697 -1.8724  1.7998 -0.8501
  134CHL1   C1116136   5.015   5.933  10.535 -0.0269 -0.2663 -0.1521
  134CHL1  H11A16137   5.116   5.971  10.511 -0.4354  0.0007 -1.4991
  134CHL1  H11B16138   5.008   5.824  10.517  0.7995 -0.0275 -2.1485
  134CHL1    C916139   4.913   6.000  10.426 -0.4959 -0.0293 -0.0848
  134CHL1    H916140   4.811   5.962  10.447 -1.2113  0.7873 -1.8345
  134CHL1   C1016141   4.953   5.963  10.276 -0.0822 -0.1306 -0.1254
  134CHL1   C1916142   5.107   5.980  10.258  0.2539  0.4985  0.4342
  134CHL1  H19A16143   5.144   6.071  10.310  0.4005  0.5159  0.3027
  134CHL1  H19B16144   5.153   5.884  10.291 -0.9611 -0.5173 -0.7072
  134CHL1  H19C16145   5.127   5.993  10.149  1.0586 -0.1349  0.4937
  134CHL1    C116146   4.906   5.818  10.237 -0.2527 -0.0159 -0.2111
  134CHL1   H1A16147   4.947   5.739  10.304 -3.1029 -1.2468  0.2313
  134CHL1   H1B16148   4.798   5.817  10.264 -0.4238  1.9340 -0.6901
  134CHL1    C216149   4.916   5.763  10.095 -0.6957  0.1412  0.2052
  134CHL1   H2A16150   4.868   5.663  10.092 -0.7906  0.2106 -0.8271
  134CHL1   H2B16151   5.022   5.748  10.068 -0.2918 -0.9652  2.2669
  134CHL1   C2016152   4.976   6.183  10.953 -0.1770 -0.1517  0.4366
  134CHL1   H2016153   5.058   6.258  10.945 -1.4813  1.1599 -2.1192
  134CHL1   C2116154   5.045   6.044  10.987 -0.9741 -0.5696  0.4243
  134CHL1  H21A16155   5.064   6.040  11.096  0.4907  1.2733  0.2769
  134CHL1  H21B16156   5.137   6.035  10.926 -1.7275  1.4983 -1.1496
  134CHL1  H21C16157   4.971   5.967  10.953 -1.6979  0.7631 -1.1709
  134CHL1   C2216158   4.881   6.222  11.071 -0.0835  0.8001  0.7454
  134CHL1  H22A16159   4.833   6.317  11.038  1.8528  1.4675 -0.2658
  134CHL1  H22B16160   4.810   6.138  11.090  0.5770  0.0249 -0.1623
  134CHL1   C2316161   4.958   6.266  11.192  0.1448  0.1214 -0.1662
  134CHL1  H23A16162   5.050   6.208  11.215  0.0281 -0.3124 -0.7882
  134CHL1  H23B16163   4.983   6.371  11.165 -1.1758  0.4854 -0.0807
  134CHL1   C2416164   4.876   6.280  11.326  0.8284  0.3467 -0.0846
  134CHL1  H24A16165   4.770   6.312  11.317  1.0451  1.8459  1.8197
  134CHL1  H24B16166   4.864   6.179  11.370  0.6235  0.3130 -0.2163
  134CHL1   C2516167   4.941   6.371  11.436  0.5811  0.0514 -0.1154
  134CHL1   H2516168   5.049   6.367  11.414  0.5993 -0.9140  0.1332
  134CHL1   C2616169   4.900   6.521  11.418  0.2865  0.3746  0.0705
  134CHL1  H26A16170   4.796   6.548  11.444  0.5723  1.0076  0.6213
  134CHL1  H26B16171   4.967   6.582  11.483  1.8027 -0.7327 -0.3949
  134CHL1  H26C16172   4.922   6.563  11.317  0.3143  0.0372 -0.0648
  134CHL1   C2716173   4.909   6.312  11.573  0.5630  0.1679  0.8634
  134CHL1  H27A16174   4.952   6.367  11.659  1.5697  0.1519  0.3920
  134CHL1  H27B16175   4.799   6.313  11.588  0.3654 -1.4409 -0.2876
  134CHL1  H27C16176   4.939   6.205  11.579 -1.3404 -0.5583 -1.3283
  135CHL1    C316177   5.192   5.102  10.550  0.7366  0.9389  0.1960
  135CHL1    H316178   5.156   5.206  10.534 -1.8708 -0.1837 -2.2822
  135CHL1    O316179   5.222   5.054  10.424 -0.1320 -0.1553  0.0161
  135CHL1   H3'16180   5.269   4.972  10.443  3.6605  2.3047  2.6437
  135CHL1    C416181   5.310   5.077  10.644  0.4434 -0.0411  0.5081
  135CHL1   H4A16182   5.334   4.969  10.643 -1.7399 -0.5584  0.0846
  135CHL1   H4B16183   5.393   5.133  10.595  1.4413 -1.8282  0.0703
  135CHL1    C516184   5.284   5.139  10.782  0.3610  0.2298 -0.6681
  135CHL1    C616185   5.360   5.245  10.822  0.2334 -0.9200 -0.0145
  135CHL1    H616186   5.435   5.294  10.757  1.8185  0.4101  2.6151
  135CHL1    C716187   5.345   5.312  10.952  0.2543 -0.0896 -0.0650
  135CHL1   H7A16188   5.444   5.320  11.002  0.2090  0.7018 -0.0951
  135CHL1   H7B16189   5.294   5.411  10.947  0.4226  0.0129  0.2322
  135CHL1    C816190   5.253   5.224  11.047 -0.3471  1.0088 -0.3518
  135CHL1    H816191   5.315   5.137  11.077  1.8544  2.7909  0.5589
  135CHL1   C1416192   5.210   5.307  11.166 -0.3377  0.0750 -0.2735
  135CHL1   H1416193   5.145   5.388  11.124  1.4894  0.5979 -2.2202
  135CHL1   C1516194   5.316   5.380  11.251  0.3604  0.1493  0.0595
  135CHL1  H15A16195   5.395   5.311  11.289 -1.5071 -1.7428  0.7192
  135CHL1  H15B16196   5.352   5.469  11.196 -1.4796  0.4521 -0.7332
  135CHL1   C1616197   5.235   5.426  11.370  0.2647 -0.5320  0.3311
  135CHL1  H16A16198   5.303   5.421  11.458 -0.5205 -2.1681  0.8938
  135CHL1  H16B16199   5.212   5.535  11.360 -0.3254 -0.4814  1.8944
  135CHL1   C1716200   5.099   5.348  11.383 -0.3878  0.0516 -0.1917
  135CHL1   H1716201   5.024   5.424  11.352 -0.7730  0.1176  0.8587
  135CHL1   C1316202   5.117   5.240  11.271  0.4501 -0.5546 -0.5148
  135CHL1   C1816203   5.175   5.113  11.327 -0.1380  0.7375  0.2455
  135CHL1  H18A16204   5.090   5.070  11.384 -2.4552  1.8978 -2.1103
  135CHL1  H18B16205   5.205   5.037  11.251 -1.5388  0.9331 -0.5281
  135CHL1  H18C16206   5.265   5.120  11.392  0.6553 -0.9855 -0.5777
  135CHL1   C1216207   4.989   5.212  11.192  0.1395  0.9582 -0.1639
  135CHL1  H12A16208   4.916   5.160  11.258 -1.2972 -0.2830 -2.5749
  135CHL1  H12B16209   4.938   5.302  11.153 -2.2802 -0.0197  0.5234
  135CHL1   C1116210   5.018   5.116  11.067 -0.9453 -0.1259  0.2581
  135CHL1  H11A16211   5.055   5.017  11.102 -0.4825 -0.8727 -2.1526
  135CHL1  H11B16212   4.931   5.096  11.001 -0.6326  0.3721 -0.3181
  135CHL1    C916213   5.129   5.171  10.971 -0.0117  0.7280 -0.6197
  135CHL1    H916214   5.083   5.262  10.927  0.9797  1.9994  0.8581
  135CHL1   C1016215   5.156   5.080  10.851  0.1095 -0.3552 -0.9496
  135CHL1   C1916216   5.186   4.938  10.889 -0.0271 -0.5142 -0.3504
  135CHL1  H19A16217   5.273   4.921  10.957  1.1748 -2.3099 -2.2175
  135CHL1  H19B16218   5.100   4.894  10.943  1.0745 -0.8401  1.2181
  135CHL1  H19C16219   5.205   4.870  10.803  1.5181 -0.4555 -0.0873
  135CHL1    C116220   5.039   5.087  10.750 -0.4708 -0.7770  1.0387
  135CHL1   H1A16221   4.945   5.039  10.786 -0.4138 -2.7423 -1.1938
  135CHL1   H1B16222   5.024   5.195  10.731  1.1500 -0.5757  0.7878
  135CHL1    C216223   5.070   5.028  10.611  0.3191 -0.1320  0.3625
  135CHL1   H2A16224   4.976   5.050  10.555  0.8922 -1.6692 -1.3117
  135CHL1   H2B16225   5.084   4.918  10.608  0.1914 -0.1322 -0.5172
  135CHL1   C2016226   5.069   5.322  11.530  0.3814  0.2105  0.1862
  135CHL1   H2016227   5.137   5.244  11.571  2.8926  2.3519  0.3979
  135CHL1   C2116228   4.918   5.279  11.532  0.0486 -0.3149 -0.3147
  135CHL1  H21A16229   4.886   5.218  11.444 -0.0088  0.4164 -0.8137
  135CHL1  H21B16230   4.857   5.371  11.518 -0.3781 -0.4609  0.5336
  135CHL1  H21C16231   4.879   5.230  11.623 -0.1925  0.9059  0.2645
  135CHL1   C2216232   5.070   5.448  11.617  0.3554  0.2178 -0.3022
  135CHL1  H22A16233   5.172   5.491  11.617 -0.4271  2.1561  0.0078
  135CHL1  H22B16234   4.997   5.529  11.598  0.7085  0.6088 -0.0163
  135CHL1   C2316235   5.054   5.427  11.775  0.2825  0.2493  0.4970
  135CHL1  H23A16236   4.956   5.385  11.805  1.0965 -0.9170  1.6407
  135CHL1  H23B16237   5.129   5.349  11.800 -1.8031 -2.3033 -0.7926
  135CHL1   C2416238   5.074   5.561  11.851  0.1641  0.3749 -0.6008
  135CHL1  H24A16239   5.179   5.594  11.836  0.2045  1.1221  1.0319
  135CHL1  H24B16240   4.995   5.635  11.829  0.5981  0.5345 -1.6520
  135CHL1   C2516241   5.065   5.539  12.009 -0.2370 -0.0989  0.0394
  135CHL1   H2516242   5.142   5.463  12.033  0.6865  1.1311  1.1635
  135CHL1   C2616243   5.095   5.673  12.093  0.5325 -0.1866  0.3380
  135CHL1  H26A16244   5.011   5.742  12.071  0.1592 -1.1817 -1.5373
  135CHL1  H26B16245   5.092   5.657  12.203 -0.3171 -0.5036  0.2730
  135CHL1  H26C16246   5.193   5.712  12.059 -0.5080  0.6606 -1.8996
  135CHL1   C2716247   4.928   5.489  12.054  0.2666  0.0023  0.0666
  135CHL1  H27A16248   4.898   5.395  12.003  0.9731 -0.4649  0.4938
  135CHL1  H27B16249   4.915   5.486  12.164  0.4519  0.6706  0.1127
  135CHL1  H27C16250   4.864   5.571  12.016  0.9936  0.2804 -0.5756
  136CHL1    C316251   4.117   4.144  10.990  0.6867 -0.3331 -0.9876
  136CHL1    H316252   4.224   4.119  11.011  0.2288 -0.4590  1.5448
  136CHL1    O316253   4.117   4.181  10.852 -0.4648 -0.4720  0.2654
  136CHL1   H3'16254   4.169   4.107  10.820  2.4001  0.9761  1.2515
  136CHL1    C416255   4.027   4.027  11.014  0.5459  0.0491  0.3078
  136CHL1   H4A16256   3.930   4.059  10.972 -0.0774 -1.3600  0.6302
  136CHL1   H4B16257   4.076   3.949  10.950  0.6277 -1.7944  2.4875
  136CHL1    C516258   4.008   3.973  11.152  0.4614 -0.4392  0.1202
  136CHL1    C616259   4.014   3.841  11.185  0.0841  0.1084  0.3512
  136CHL1    H616260   4.038   3.777  11.099  3.1248  1.5317  0.0161
  136CHL1    C716261   3.987   3.778  11.325  0.0715 -0.2361  0.3034
  136CHL1   H7A16262   3.920   3.690  11.335 -0.3162  0.0328  0.0927
  136CHL1   H7B16263   4.088   3.748  11.360  1.3763  1.5061 -1.7779
  136CHL1    C816264   3.938   3.893  11.424  0.3655  0.5128  0.1037
  136CHL1    H816265   3.828   3.908  11.425  0.4126  0.8491  0.7457
  136CHL1   C1416266   3.995   3.847  11.564 -0.6337 -0.2199  0.5132
  136CHL1   H1416267   4.105   3.866  11.563  0.4719 -5.2011  0.1035
  136CHL1   C1516268   3.959   3.702  11.611 -0.2619  0.3454  0.2196
  136CHL1  H15A16269   3.851   3.695  11.588  0.0423  1.8590 -1.9153
  136CHL1  H15B16270   4.008   3.616  11.560 -1.7777 -0.4914  0.1062
  136CHL1   C1616271   3.984   3.704  11.766  0.3760  0.5782  0.3411
  136CHL1  H16A16272   3.895   3.656  11.812  0.8426 -0.5395  0.1059
  136CHL1  H16B16273   4.075   3.659  11.810 -1.1684 -3.7135 -0.4124
  136CHL1   C1716274   3.993   3.858  11.804  0.5427  0.0781  1.6054
  136CHL1   H1716275   4.102   3.878  11.802  0.6286 -0.1094 -1.7535
  136CHL1   C1316276   3.943   3.927  11.673  0.2290  0.2182 -0.5832
  136CHL1   C1816277   3.785   3.935  11.679  0.2202  0.1939 -0.3010
  136CHL1  H18A16278   3.742   3.836  11.704  1.4795 -0.0414  1.0323
  136CHL1  H18B16279   3.771   4.010  11.761 -1.1956 -0.0721 -0.2760
  136CHL1  H18C16280   3.738   3.987  11.593  0.1238  0.5746 -0.0239
  136CHL1   C1216281   4.001   4.068  11.648 -0.0698  0.2637  0.1586
  136CHL1  H12A16282   3.945   4.135  11.717  0.1454 -0.8344  1.4446
  136CHL1  H12B16283   4.110   4.070  11.670 -0.4643  1.2829  2.2949
  136CHL1   C1116284   3.976   4.123  11.509  0.0787  0.1794  0.1094
  136CHL1  H11A16285   3.874   4.167  11.506 -0.1063 -0.2169  0.5123
  136CHL1  H11B16286   4.044   4.209  11.494  0.5156 -0.1198  0.3518
  136CHL1    C916287   4.010   4.022  11.396  0.8703 -0.3474  0.3899
  136CHL1    H916288   4.118   3.997  11.389  1.5152  2.2637 -0.0447
  136CHL1   C1016289   3.984   4.086  11.254 -0.8736 -0.0341  0.4590
  136CHL1   C1916290   3.841   4.138  11.229 -0.7797 -0.6264  0.0978
  136CHL1  H19A16291   3.811   4.141  11.122  1.4599 -0.1426 -0.5732
  136CHL1  H19B16292   3.765   4.071  11.274 -1.8374  1.0024  0.8498
  136CHL1  H19C16293   3.818   4.235  11.280  1.7050 -1.5842  3.3693
  136CHL1    C116294   4.080   4.213  11.230 -0.1510  0.0056  0.1472
  136CHL1   H1A16295   4.058   4.303  11.292  1.4796  0.1070  0.6070
  136CHL1   H1B16296   4.180   4.178  11.261 -0.7676 -1.3973  0.6200
  136CHL1    C216297   4.079   4.266  11.082  0.2727 -0.0310 -0.5782
  136CHL1   H2A16298   4.149   4.351  11.062 -0.9434  1.5051  1.3492
  136CHL1   H2B16299   3.977   4.300  11.056  1.0142  1.9067 -1.1090
  136CHL1   C2016300   3.943   3.888  11.945 -0.2194  0.0846 -0.7328
  136CHL1   H2016301   3.833   3.874  11.942 -0.0360 -1.3544 -3.2681
  136CHL1   C2116302   3.971   4.044  11.989  0.5058 -0.2564  0.4993
  136CHL1  H21A16303   4.079   4.069  11.996  0.2651  1.4397 -1.0315
  136CHL1  H21B16304   3.927   4.079  12.085  0.7025  1.9102 -0.1367
  136CHL1  H21C16305   3.912   4.106  11.918  0.8479  0.7252  1.0452
  136CHL1   C2216306   4.003   3.793  12.051  0.6750  0.0952 -0.4481
  136CHL1  H22A16307   3.962   3.696  12.018 -2.0773  0.9047  0.2926
  136CHL1  H22B16308   4.113   3.780  12.062  0.6795 -0.1374 -0.7612
  136CHL1   C2316309   3.951   3.817  12.196 -0.1357 -0.5368  0.2511
  136CHL1  H23A16310   4.000   3.909  12.236 -0.5937 -0.3759  0.4589
  136CHL1  H23B16311   3.841   3.829  12.188  0.0624  1.4775 -0.0666
  136CHL1   C2416312   3.992   3.696  12.287 -0.4969  0.1674 -0.1873
  136CHL1  H24A16313   3.944   3.603  12.250  0.4131 -0.0846 -0.7970
  136CHL1  H24B16314   4.103   3.691  12.282 -0.4859  0.6151 -0.4002
  136CHL1   C2516315   3.955   3.710  12.438 -0.3054 -0.3442  0.8182
  136CHL1   H2516316   4.003   3.807  12.463 -2.3870  0.5481  1.5797
  136CHL1   C2616317   3.802   3.705  12.468 -0.0209  0.3643  0.2255
  136CHL1  H26A16318   3.765   3.619  12.408 -1.7893  1.2801 -0.0688
  136CHL1  H26B16319   3.777   3.689  12.575  0.1166  0.7374  0.3154
  136CHL1  H26C16320   3.750   3.796  12.430 -1.7479 -0.0310  1.5150
  136CHL1   C2716321   4.029   3.603  12.517  0.3516 -0.4965  0.6757
  136CHL1  H27A16322   4.007   3.618  12.625 -2.0789  1.9971 -0.0454
  136CHL1  H27B16323   3.985   3.505  12.489  2.1069 -0.7109 -1.6631
  136CHL1  H27C16324   4.138   3.613  12.497 -0.1874  0.9877 -2.0375
  137CHL1    C316325   0.949   5.089  10.552  0.4675  0.0682  0.2936
  137CHL1    H316326   0.913   5.184  10.598 -0.4760 -0.3211  0.3807
  137CHL1    O316327   0.955   5.111  10.416 -0.1765  0.5488  0.8365
  137CHL1   H3'16328   0.865   5.141  10.400 -0.3930 -1.1777 -2.0225
  137CHL1    C416329   1.090   5.053  10.593  0.0095  0.2505 -0.3239
  137CHL1   H4A16330   1.115   4.952  10.555 -1.0284  0.4282 -1.5564
  137CHL1   H4B16331   1.165   5.128  10.558  1.6515 -2.5096 -3.2858
  137CHL1    C516332   1.102   5.049  10.746 -0.1645  0.1243  0.5748
  137CHL1    C616333   1.195   5.121  10.813 -0.2671 -0.5072  0.4387
  137CHL1    H616334   1.253   5.188  10.750 -1.0230 -0.3400 -0.0994
  137CHL1    C716335   1.216   5.096  10.962 -0.8826 -0.2418 -0.1454
  137CHL1   H7A16336   1.323   5.087  10.989  0.1731  1.7517 -3.1110
  137CHL1   H7B16337   1.194   5.195  11.007  1.9920  0.2227  0.4322
  137CHL1    C816338   1.128   4.989  11.034 -0.0502 -0.5153  0.5701
  137CHL1    H816339   1.178   4.890  11.021 -0.0409 -0.3833 -0.4833
  137CHL1   C1416340   1.103   5.015  11.176  0.5816  0.4081 -0.2769
  137CHL1   H1416341   1.040   5.107  11.174  0.4370  0.3389  0.6844
  137CHL1   C1516342   1.219   5.058  11.263 -0.4755 -0.6683 -0.2713
  137CHL1  H15A16343   1.319   5.008  11.259 -0.6536 -0.9722 -1.7192
  137CHL1  H15B16344   1.242   5.165  11.243 -0.4995 -0.7631 -0.8205
  137CHL1   C1616345   1.167   5.047  11.410  0.5995 -0.0793  0.1751
  137CHL1  H16A16346   1.239   4.986  11.470 -0.5893  2.3549  4.4590
  137CHL1  H16B16347   1.171   5.139  11.472 -0.8381 -0.9850  1.7208
  137CHL1   C1716348   1.025   4.988  11.398  0.4170  0.3742 -0.0917
  137CHL1   H1716349   0.959   5.076  11.381  2.1848  1.8352  0.2166
  137CHL1   C1316350   1.022   4.914  11.258  0.1364 -0.3900 -0.2165
  137CHL1   C1816351   1.103   4.784  11.265  0.3831 -0.4471 -0.5362
  137CHL1  H18A16352   1.198   4.794  11.321  0.2803 -2.1417 -0.0078
  137CHL1  H18B16353   1.046   4.705  11.318  0.1001 -1.1337 -1.8226
  137CHL1  H18C16354   1.102   4.745  11.162 -1.9930  2.0901 -1.6150
  137CHL1   C1216355   0.886   4.899  11.197 -0.4898  0.4539 -0.2136
  137CHL1  H12A16356   0.827   4.815  11.237  1.3129 -0.1584  1.2977
  137CHL1  H12B16357   0.838   4.998  11.212 -1.0904  0.6049 -2.6724
  137CHL1   C1116358   0.892   4.877  11.039  0.3046  0.6387  0.6376
  137CHL1  H11A16359   0.929   4.772  11.029  0.4456  0.7123  0.3510
  137CHL1  H11B16360   0.786   4.887  11.007  0.5005  1.1434  0.1175
  137CHL1    C916361   0.991   4.975  10.964 -0.1323  0.1160 -0.2358
  137CHL1    H916362   0.938   5.072  10.976  0.5008  0.3335  0.9665
  137CHL1   C1016363   0.994   4.955  10.807 -0.6487 -0.2360 -0.1671
  137CHL1   C1916364   1.051   4.812  10.786  0.3855 -0.2130  0.3326
  137CHL1  H19A16365   1.153   4.807  10.831  0.3270 -1.4519  0.3621
  137CHL1  H19B16366   0.987   4.734  10.832  0.7046 -1.4919 -1.2946
  137CHL1  H19C16367   1.065   4.773  10.683  1.2378 -1.4488  0.8850
  137CHL1    C116368   0.848   4.962  10.743 -0.1750 -0.4920 -0.4629
  137CHL1   H1A16369   0.795   4.867  10.763 -0.3907 -0.8529 -2.4884
  137CHL1   H1B16370   0.800   5.051  10.787  0.3746 -0.3016 -0.2335
  137CHL1    C216371   0.844   4.974  10.592 -0.0222  0.2835  0.3892
  137CHL1   H2A16372   0.746   5.002  10.549  0.2098  0.8530  0.2261
  137CHL1   H2B16373   0.876   4.879  10.542 -1.4141 -1.1672  2.1209
  137CHL1   C2016374   0.984   4.917  11.527 -0.2249 -0.3023  0.4745
  137CHL1   H2016375   1.032   4.817  11.536  2.7178  0.8332 -1.1205
  137CHL1   C2116376   0.832   4.902  11.534  0.3637 -0.5299 -0.2415
  137CHL1  H21A16377   0.792   5.006  11.531  1.7857  0.0169 -1.5860
  137CHL1  H21B16378   0.804   4.852  11.629  0.5398  1.2028  0.7599
  137CHL1  H21C16379   0.794   4.858  11.439 -0.1083  0.0600 -0.3362
  137CHL1   C2216380   1.047   4.993  11.652  0.2323 -0.8913  0.0674
  137CHL1  H22A16381   1.156   4.978  11.666  0.2141  0.1599  1.6503
  137CHL1  H22B16382   1.044   5.104  11.640 -0.1749 -0.8264  0.6899
  137CHL1   C2316383   0.980   4.965  11.783 -0.5472 -0.1208  0.0552
  137CHL1  H23A16384   0.871   4.988  11.785 -0.2389  1.5687 -0.8385
  137CHL1  H23B16385   0.997   4.859  11.811 -1.4771  0.2806  2.3420
  137CHL1   C2416386   1.064   5.035  11.891  0.7796  0.2265  0.5355
  137CHL1  H24A16387   1.173   5.010  11.888  0.7764  0.2971 -0.3162
  137CHL1  H24B16388   1.053   5.142  11.865  0.2994  0.0390 -0.0347
  137CHL1   C2516389   1.002   5.009  12.029  0.2590 -0.2009  0.4865
  137CHL1   H2516390   0.891   5.006  12.029  0.2504 -2.3946 -1.3765
  137CHL1   C2616391   1.030   4.870  12.086 -0.8529  0.2378  0.5620
  137CHL1  H26A16392   0.981   4.853  12.185  0.9042 -2.3349  1.0854
  137CHL1  H26B16393   0.997   4.786  12.021  3.0150  0.6836 -2.3283
  137CHL1  H26C16394   1.137   4.860  12.115 -0.1656  4.4372  0.1522
  137CHL1   C2716395   1.057   5.114  12.128 -0.0623 -0.2543 -0.5325
  137CHL1  H27A16396   1.043   5.079  12.232  0.4485 -0.1332 -0.4200
  137CHL1  H27B16397   1.167   5.120  12.110  0.2426 -0.0697  1.2868
  137CHL1  H27C16398   1.002   5.207  12.104 -2.5431 -1.8490 -1.3943
  138CHL1    C316399   6.093   3.304  10.742 -0.1255  0.7814  0.0251
  138CHL1    H316400   6.157   3.213  10.754  0.3152  0.9578 -0.8861
  138CHL1    O316401   6.065   3.332  10.604 -0.3780  0.4584  0.1312
  138CHL1   H3'16402   6.144   3.376  10.572  1.1327 -2.3742 -0.3422
  138CHL1    C416403   5.965   3.289  10.808  0.1869 -0.1148 -0.2004
  138CHL1   H4A16404   5.903   3.381  10.796  0.2108  0.0958  1.1471
  138CHL1   H4B16405   5.908   3.214  10.750  0.6955 -1.0981  0.5458
  138CHL1    C516406   5.976   3.265  10.962 -0.2816 -0.4111  0.7783
  138CHL1    C616407   5.925   3.161  11.019 -0.0561 -0.1162 -0.0535
  138CHL1    H616408   5.876   3.086  10.955 -1.2836  1.2191 -0.7307
  138CHL1    C716409   5.920   3.124  11.165  0.0113  0.0661 -0.3762
  138CHL1   H7A16410   5.816   3.087  11.179 -0.2413  0.4839 -1.1138
  138CHL1   H7B16411   5.989   3.039  11.187  0.5686  0.6904  0.3159
  138CHL1    C816412   5.959   3.253  11.248 -0.0597  0.4765 -0.5485
  138CHL1    H816413   5.868   3.317  11.251  1.8224  3.3181  0.1379
  138CHL1   C1416414   5.971   3.215  11.392  0.2197  0.5651 -0.8448
  138CHL1   H1416415   6.056   3.145  11.403 -0.5125  0.0840  3.2095
  138CHL1   C1516416   5.850   3.143  11.452  0.5617 -0.3776 -0.3094
  138CHL1  H15A16417   5.756   3.193  11.420 -0.5368 -0.5675  2.3578
  138CHL1  H15B16418   5.842   3.036  11.423  0.4958 -0.4608  0.0159
  138CHL1   C1616419   5.869   3.164  11.602 -0.9662 -0.8333  0.7402
  138CHL1  H16A16420   5.772   3.201  11.642 -1.2061  0.2667 -0.7673
  138CHL1  H16B16421   5.898   3.076  11.663  0.0025 -0.3095  1.0526
  138CHL1   C1716422   5.992   3.267  11.619  0.0387 -0.5102  0.6906
  138CHL1   H1716423   6.085   3.207  11.626  1.8897  2.1285  0.5159
  138CHL1   C1316424   6.010   3.333  11.481 -0.2622  0.0071  0.3866
  138CHL1   C1816425   5.905   3.440  11.467  0.2335 -0.0775  0.1741
  138CHL1  H18A16426   5.801   3.406  11.487  0.0384  0.3415 -0.1192
  138CHL1  H18B16427   5.926   3.528  11.531 -2.1532 -0.2948  1.3835
  138CHL1  H18C16428   5.906   3.481  11.364  2.3953 -2.4200 -0.8396
  138CHL1   C1216429   6.144   3.376  11.434  0.2549 -0.1924  0.4099
  138CHL1  H12A16430   6.177   3.464  11.493  0.6190  0.7558 -1.1389
  138CHL1  H12B16431   6.218   3.295  11.453 -1.0214 -1.6504 -0.6471
  138CHL1   C1116432   6.147   3.424  11.289 -0.5697  0.5135  0.6370
  138CHL1  H11A16433   6.089   3.517  11.277 -0.5451  0.5597  0.8627
  138CHL1  H11B16434   6.252   3.447  11.259 -0.3148  0.4979  1.4758
  138CHL1    C916435   6.080   3.321  11.185 -0.2927 -0.7753 -0.2424
  138CHL1    H916436   6.157   3.242  11.168  1.1066  0.0866  1.7317
  138CHL1   C1016437   6.053   3.372  11.036  0.1382 -0.2371 -0.3091
  138CHL1   C1916438   5.969   3.501  11.045 -1.0250  0.5709  0.2186
  138CHL1  H19A16439   5.902   3.503  11.135  0.0231 -1.6821  1.1264
  138CHL1  H19B16440   6.037   3.587  11.058 -0.4249  0.1026  0.2428
  138CHL1  H19C16441   5.889   3.520  10.971 -2.4530  2.3974  2.0990
  138CHL1    C116442   6.192   3.402  10.966  0.4658 -0.3023  0.0266
  138CHL1   H1A16443   6.245   3.486  11.014  1.2498  1.5916 -3.7461
  138CHL1   H1B16444   6.257   3.313  10.978  2.0068  0.2905 -2.9516
  138CHL1    C216445   6.178   3.422  10.809  0.6166  0.5856  0.1928
  138CHL1   H2A16446   6.278   3.442  10.765  1.0045 -0.4974  0.5667
  138CHL1   H2B16447   6.116   3.513  10.794 -0.6948 -0.3489 -0.2570
  138CHL1   C2016448   5.982   3.363  11.745 -0.4750  0.1598 -0.5459
  138CHL1   H2016449   5.891   3.426  11.729 -1.9100 -2.2448 -2.5859
  138CHL1   C2116450   6.110   3.457  11.762  0.5423 -0.0870 -0.0118
  138CHL1  H21A16451   6.110   3.539  11.688  2.2978  1.1368  1.2431
  138CHL1  H21B16452   6.199   3.393  11.749 -0.1940 -0.9010 -1.1656
  138CHL1  H21C16453   6.114   3.502  11.864  1.6877  0.0440 -0.1015
  138CHL1   C2216454   5.969   3.275  11.872  0.2124 -0.7528  0.3884
  138CHL1  H22A16455   5.871   3.224  11.865 -0.8693  1.4808 -2.8811
  138CHL1  H22B16456   6.051   3.199  11.880 -1.2962 -2.6478 -1.1703
  138CHL1   C2316457   5.974   3.354  12.007  0.4438  0.1772 -0.2602
  138CHL1  H23A16458   6.073   3.403  12.024  0.5449 -0.2165  0.3627
  138CHL1  H23B16459   5.889   3.424  12.004  0.5582  0.4510  1.5912
  138CHL1   C2416460   5.954   3.262  12.136  0.0611  0.2303  0.0530
  138CHL1  H24A16461   5.850   3.225  12.139  0.2757 -0.3223  1.2054
  138CHL1  H24B16462   6.012   3.168  12.127  0.7841  0.8242 -1.9565
  138CHL1   C2516463   5.979   3.314  12.278  0.2285  0.0837  0.3940
  138CHL1   H2516464   6.088   3.311  12.298  0.2750 -0.9061  0.0420
  138CHL1   C2616465   5.924   3.460  12.296 -0.8324  0.0601 -0.0141
  138CHL1  H26A16466   5.921   3.490  12.403  3.8014 -0.3532  0.4222
  138CHL1  H26B16467   5.984   3.536  12.243 -1.3621 -0.2816 -1.1309
  138CHL1  H26C16468   5.821   3.467  12.254 -0.3392 -0.6538 -1.3792
  138CHL1   C2716469   5.897   3.229  12.388 -0.3211 -0.7573 -0.0179
  138CHL1  H27A16470   5.791   3.254  12.369  0.5420  2.1069 -1.7722
  138CHL1  H27B16471   5.911   3.121  12.367 -1.6573 -0.9854  0.2118
  138CHL1  H27C16472   5.907   3.266  12.492 -0.2107  0.5083 -0.4538
  139CHL1    C316473   0.506   2.948  10.386  0.1081  0.4505  0.1975
  139CHL1    H316474   0.418   2.882  10.404  0.5636  0.1279  1.2821
  139CHL1    O316475   0.513   2.958  10.248  0.5747  0.3950  0.5133
  139CHL1   H3'16476   0.578   3.024  10.224 -0.2000  0.6823 -0.8951
  139CHL1    C416477   0.471   3.085  10.448  0.7295  0.0024 -0.6277
  139CHL1   H4A16478   0.539   3.170  10.428  0.4800  0.1700 -0.7762
  139CHL1   H4B16479   0.372   3.123  10.414  0.5399  0.4321  0.3742
  139CHL1    C516480   0.470   3.071  10.598  0.0189  0.0233  0.2658
  139CHL1    C616481   0.358   3.102  10.655  0.1780 -0.8134 -0.1380
  139CHL1    H616482   0.272   3.134  10.595 -0.6032  0.7297  1.7134
  139CHL1    C716483   0.345   3.102  10.807 -0.1851  0.1516 -0.1443
  139CHL1   H7A16484   0.281   3.189  10.834 -2.1068 -0.5888 -1.9680
  139CHL1   H7B16485   0.289   3.014  10.847 -0.1706  0.6513  0.9972
  139CHL1    C816486   0.474   3.096  10.885 -0.1054  0.6760  0.1512
  139CHL1    H816487   0.516   3.198  10.875 -0.5128  0.7308 -1.1236
  139CHL1   C1416488   0.442   3.062  11.026  0.4779  0.4332 -0.4270
  139CHL1   H1416489   0.387   2.965  11.028  1.0560  0.0841 -1.2256
  139CHL1   C1516490   0.351   3.166  11.105 -0.0340 -0.3770  0.0498
  139CHL1  H15A16491   0.385   3.267  11.074  1.1928  0.5448  3.9172
  139CHL1  H15B16492   0.242   3.158  11.087 -0.2171  1.4163  0.1906
  139CHL1   C1616493   0.389   3.138  11.253 -0.3655 -0.6582  0.2532
  139CHL1  H16A16494   0.425   3.237  11.289 -1.1052 -0.1699 -0.3189
  139CHL1  H16B16495   0.312   3.092  11.319  1.0187  0.1343  2.5439
  139CHL1   C1716496   0.499   3.023  11.249 -0.2884  0.2454  0.2750
  139CHL1   H1716497   0.435   2.933  11.237 -0.3211 -0.2531  3.3991
  139CHL1   C1316498   0.566   3.046  11.109 -0.4809  0.0032 -0.4285
  139CHL1   C1816499   0.652   3.183  11.115  0.2030  0.2850  0.0832
  139CHL1  H18A16500   0.742   3.176  11.179  0.1111 -2.5963  0.0269
  139CHL1  H18B16501   0.685   3.184  11.009  0.2025 -0.1930  0.0784
  139CHL1  H18C16502   0.585   3.268  11.142 -1.4746 -0.0278 -2.7119
  139CHL1   C1216503   0.664   2.927  11.058  0.3080 -0.6110  1.6762
  139CHL1  H12A16504   0.757   2.918  11.119  1.3442  0.0774  0.2692
  139CHL1  H12B16505   0.604   2.834  11.059  1.6414 -1.5855 -0.6752
  139CHL1   C1116506   0.698   2.961  10.911  0.6836 -0.3679  0.0126
  139CHL1  H11A16507   0.776   3.040  10.909  1.3933 -1.0332  0.9888
  139CHL1  H11B16508   0.748   2.873  10.867 -0.3255 -1.7578  1.5317
  139CHL1    C916509   0.567   2.991  10.819 -0.4052  0.8637  0.0712
  139CHL1    H916510   0.502   2.901  10.813 -0.5878  0.9771  0.3084
  139CHL1   C1016511   0.597   3.015  10.667  0.1230 -0.4460 -0.1698
  139CHL1   C1916512   0.714   3.120  10.652  0.2206 -0.0152 -0.3908
  139CHL1  H19A16513   0.812   3.078  10.682  0.5252  0.8657 -0.1328
  139CHL1  H19B16514   0.722   3.155  10.547 -0.9323 -1.1409 -0.8743
  139CHL1  H19C16515   0.688   3.202  10.723  1.8346 -0.0379  0.2558
  139CHL1    C116516   0.634   2.888  10.598 -0.5745  0.0881  0.0283
  139CHL1   H1A16517   0.727   2.837  10.633 -0.1098  0.4959 -0.6029
  139CHL1   H1B16518   0.550   2.819  10.623  0.4665 -0.4757  2.3278
  139CHL1    C216519   0.637   2.893  10.443 -0.1729 -0.1225  0.1398
  139CHL1   H2A16520   0.660   2.791  10.403  1.9384 -0.2047  1.4021
  139CHL1   H2B16521   0.718   2.966  10.420  0.3949  0.2426  2.9550
  139CHL1   C2016522   0.587   2.994  11.366 -0.1814  0.2319 -0.0686
  139CHL1   H2016523   0.684   3.044  11.345 -0.2068 -1.0718 -4.1230
  139CHL1   C2116524   0.609   2.839  11.379  0.2128  0.1681 -0.2936
  139CHL1  H21A16525   0.516   2.785  11.406  2.5926 -4.3088 -0.0598
  139CHL1  H21B16526   0.692   2.824  11.451  0.7941  2.9818 -0.2864
  139CHL1  H21C16527   0.632   2.812  11.273 -1.0746 -0.6613 -0.3930
  139CHL1   C2216528   0.526   3.045  11.497  0.0110  0.8907  0.1608
  139CHL1  H22A16529   0.416   3.059  11.502  0.1234  2.7835 -1.4508
  139CHL1  H22B16530   0.552   2.968  11.573 -0.6667 -1.3220 -1.7273
  139CHL1   C2316531   0.592   3.168  11.542 -0.0239 -0.0877 -0.4939
  139CHL1  H23A16532   0.698   3.162  11.573 -0.0255  2.6108  0.2531
  139CHL1  H23B16533   0.585   3.238  11.456  0.7481 -2.0708 -2.2604
  139CHL1   C2416534   0.524   3.212  11.672  0.3215  0.0181  0.2482
  139CHL1  H24A16535   0.416   3.228  11.651  0.7971  0.8799 -1.8578
  139CHL1  H24B16536   0.523   3.135  11.752  1.6273 -0.9665 -0.6270
  139CHL1   C2516537   0.573   3.340  11.747  0.3814  0.0731 -0.5617
  139CHL1   H2516538   0.587   3.420  11.671 -3.3234  1.6269  0.1735
  139CHL1   C2616539   0.477   3.394  11.859 -0.2439  0.3952  0.4535
  139CHL1  H26A16540   0.377   3.408  11.813  0.0318  2.8971  0.5055
  139CHL1  H26B16541   0.465   3.321  11.943 -0.0668  0.2869  0.3842
  139CHL1  H26C16542   0.522   3.487  11.899  1.0962 -0.2948  0.5963
  139CHL1   C2716543   0.707   3.314  11.813 -0.0816  0.6546 -0.3689
  139CHL1  H27A16544   0.706   3.227  11.882  0.0550  2.2886  1.8114
  139CHL1  H27B16545   0.795   3.305  11.747  1.3147  0.0812  1.4849
  139CHL1  H27C16546   0.725   3.407  11.871 -2.8129  1.8309 -1.2314
  140CHL1    C316547   6.673   3.426  10.722 -0.0550 -0.0380 -0.2758
  140CHL1    H316548   6.648   3.534  10.733 -0.2056 -0.2070  1.2503
  140CHL1    O316549   6.662   3.386  10.588  0.5257 -0.2732  0.3329
  140CHL1   H3'16550   6.572   3.411  10.563  1.2337  0.3379 -1.8675
  140CHL1    C416551   6.812   3.390  10.780  0.8486 -0.0058 -0.1929
  140CHL1   H4A16552   6.826   3.281  10.766 -1.2715 -0.4608  0.8867
  140CHL1   H4B16553   6.889   3.435  10.713  1.3362  1.0177  1.0028
  140CHL1    C516554   6.826   3.432  10.928  0.8206  0.1441  0.0951
  140CHL1    C616555   6.921   3.517  10.964 -0.3026 -0.3348  0.7554
  140CHL1    H616556   6.990   3.540  10.881  0.5378  0.4113  1.6495
  140CHL1    C716557   6.941   3.556  11.106 -0.4668  0.0686  0.4094
  140CHL1   H7A16558   7.040   3.544  11.154 -0.4674  0.2282  0.4523
  140CHL1   H7B16559   6.909   3.661  11.124  0.0126  0.1190  0.9984
  140CHL1    C816560   6.849   3.473  11.207  0.3684  0.2517  0.0468
  140CHL1    H816561   6.893   3.371  11.209 -0.6091 -0.3012 -2.6000
  140CHL1   C1416562   6.850   3.521  11.349  0.2898 -0.3951  0.1757
  140CHL1   H1416563   6.809   3.624  11.344 -1.5173 -0.8989  2.8358
  140CHL1   C1516564   6.995   3.542  11.407  0.5170  0.2876  0.2259
  140CHL1  H15A16565   7.058   3.456  11.375  1.2989  0.6220  0.8288
  140CHL1  H15B16566   7.029   3.641  11.369 -1.5925  0.4379 -1.4254
  140CHL1   C1616567   6.973   3.536  11.551 -0.6530  0.6979 -0.4518
  140CHL1  H16A16568   7.029   3.449  11.592 -0.3222  0.9081 -0.4495
  140CHL1  H16B16569   7.015   3.627  11.599 -1.0172  0.3234  0.6158
  140CHL1   C1716570   6.820   3.515  11.577 -0.3927 -0.5140 -0.3294
  140CHL1   H1716571   6.773   3.614  11.565 -1.6762 -1.1895 -1.0284
  140CHL1   C1316572   6.765   3.445  11.451 -0.6892 -0.1912  0.1093
  140CHL1   C1816573   6.813   3.300  11.456  0.1603 -0.0566 -0.1752
  140CHL1  H18A16574   6.801   3.244  11.360  2.6770 -0.9251 -0.0584
  140CHL1  H18B16575   6.919   3.278  11.483  0.3479 -0.7915 -1.4217
  140CHL1  H18C16576   6.761   3.240  11.533 -2.0268  1.4791 -0.3546
  140CHL1   C1216577   6.618   3.462  11.403 -0.0148  0.1259  0.2957
  140CHL1  H12A16578   6.557   3.395  11.467  1.3301 -0.5167  0.9483
  140CHL1  H12B16579   6.585   3.568  11.417 -0.1690  0.1048  0.1008
  140CHL1   C1116580   6.602   3.401  11.266  0.7016 -1.2242  0.6676
  140CHL1  H11A16581   6.612   3.290  11.270 -2.3319 -1.6672 -0.8344
  140CHL1  H11B16582   6.505   3.427  11.217  1.5414  2.7896  0.8174
  140CHL1    C916583   6.704   3.458  11.160 -0.0188  0.5956  0.3510
  140CHL1    H916584   6.673   3.563  11.140 -1.1518  0.0322 -1.0689
  140CHL1   C1016585   6.703   3.390  11.016  0.5381  0.5049 -0.1634
  140CHL1   C1916586   6.714   3.237  11.035 -0.3617  0.0422 -0.1125
  140CHL1  H19A16587   6.717   3.188  10.935  2.4716  0.4462 -0.3072
  140CHL1  H19B16588   6.799   3.205  11.099  0.5535  2.4842 -0.0184
  140CHL1  H19C16589   6.616   3.211  11.081 -3.4844  1.6179 -5.1214
  140CHL1    C116590   6.564   3.413  10.945 -0.0211 -0.5212  0.0449
  140CHL1   H1A16591   6.482   3.367  11.004 -0.3349 -1.0766 -0.7960
  140CHL1   H1B16592   6.541   3.521  10.937 -0.9174 -0.7828 -1.3886
  140CHL1    C216593   6.564   3.360  10.804 -0.1108 -0.2558 -0.8285
  140CHL1   H2A16594   6.466   3.384  10.757 -0.4427 -0.1477 -0.0868
  140CHL1   H2B16595   6.584   3.252  10.784  1.2634 -0.1146 -0.3633
  140CHL1   C2016596   6.792   3.461  11.714 -0.0664  0.3517 -0.2540
  140CHL1   H2016597   6.822   3.354  11.719  0.6563  0.5921  1.1695
  140CHL1   C2116598   6.643   3.459  11.740 -1.1096 -0.7235  0.3319
  140CHL1  H21A16599   6.614   3.566  11.742  3.0233  0.5366  2.2958
  140CHL1  H21B16600   6.615   3.428  11.843 -1.5604 -0.3632  0.3223
  140CHL1  H21C16601   6.589   3.387  11.675 -1.3656 -0.6202  0.4300
  140CHL1   C2216602   6.855   3.539  11.830 -0.2347 -0.1761 -0.1652
  140CHL1  H22A16603   6.960   3.561  11.802  0.0593  0.2084  1.1781
  140CHL1  H22B16604   6.804   3.638  11.840  0.7597  0.1805  1.7301
  140CHL1   C2316605   6.860   3.470  11.964 -0.3805 -0.4700 -0.1990
  140CHL1  H23A16606   6.764   3.418  11.984 -0.9184  0.2625 -0.8162
  140CHL1  H23B16607   6.941   3.394  11.970  0.1532  0.1689  1.1924
  140CHL1   C2416608   6.883   3.574  12.075 -0.3227  0.3132  0.2883
  140CHL1  H24A16609   6.987   3.611  12.061 -0.2890  0.0114 -0.2491
  140CHL1  H24B16610   6.812   3.659  12.062 -3.0431 -1.5153  2.0419
  140CHL1   C2516611   6.891   3.519  12.224 -0.2208 -0.2551  0.4173
  140CHL1   H2516612   6.793   3.469  12.237 -0.4435  0.1929  0.4698
  140CHL1   C2616613   6.912   3.640  12.320 -0.1473  0.5322 -0.5011
  140CHL1  H26A16614   6.818   3.699  12.313 -1.2369 -1.1131 -0.4688
  140CHL1  H26B16615   6.930   3.600  12.423 -0.8133  0.5134 -0.3867
  140CHL1  H26C16616   6.994   3.700  12.277  0.3925 -0.0423 -0.2953
  140CHL1   C2716617   7.006   3.419  12.240 -0.1865 -0.5033  0.2312
  140CHL1  H27A16618   7.016   3.358  12.147  1.0130  1.2889 -0.8903
  140CHL1  H27B16619   7.109   3.460  12.253  0.0457 -1.8188  3.3186
  140CHL1  H27C16620   6.989   3.354  12.328  1.7800  0.3936  1.3490
  141DOPC     N16621   2.467   3.967  15.132 -0.3426 -0.6375  0.4865
  141DOPC   C1216622   2.338   4.003  15.050 -0.7413  0.4349 -0.7449
  141DOPC  H12A16623   2.314   4.101  15.089  2.1531  0.8500  0.2581
  141DOPC  H12B16624   2.246   3.954  15.080 -0.6361 -0.1765 -1.4145
  141DOPC   C1316625   2.499   3.826  15.095  0.1768 -0.2337 -0.2176
  141DOPC  H13A16626   2.582   3.788  15.153 -0.3170  0.1394  0.7496
  141DOPC  H13B16627   2.407   3.772  15.106 -0.7670  0.7824 -2.4676
  141DOPC  H13C16628   2.522   3.821  14.989  2.6673 -0.0886  0.2536
  141DOPC   C1416629   2.441   3.967  15.283  0.1911 -0.7782 -0.2415
  141DOPC  H14A16630   2.522   3.920  15.337 -0.4892  0.3499  1.9111
  141DOPC  H14B16631   2.411   4.064  15.320  0.5066 -1.4330  1.8630
  141DOPC  H14C16632   2.357   3.902  15.302 -0.8821  0.1169 -1.7800
  141DOPC   C1516633   2.581   4.062  15.091  0.1606  0.1903 -0.2929
  141DOPC  H15A16634   2.564   4.168  15.099 -1.1864 -0.0398  0.3039
  141DOPC  H15B16635   2.611   4.045  14.989  0.9773  4.6788 -0.9862
  141DOPC  H15C16636   2.666   4.044  15.154 -0.0369  0.7333  0.1336
  141DOPC   C1116637   2.349   4.001  14.901  0.4598  0.4868  0.4011
  141DOPC  H11A16638   2.378   3.900  14.866  0.8604  1.1822 -1.3692
  141DOPC  H11B16639   2.245   4.005  14.861  0.6591 -2.1296 -0.5198
  141DOPC     P16640   2.358   4.258  14.852  0.2073  0.0721  0.0334
  141DOPC   O1316641   2.468   4.356  14.893  0.5964 -0.5334 -0.2100
  141DOPC   O1416642   2.234   4.262  14.934 -0.2839  0.6788 -0.0180
  141DOPC   O1216643   2.423   4.116  14.860  0.3323  0.0243  0.3414
  141DOPC   O1116644   2.323   4.273  14.693  0.7786  0.8680 -0.2490
  141DOPC    C116645   2.382   4.187  14.586  0.6267  0.0055 -0.8070
  141DOPC    HA16646   2.352   4.082  14.606  0.9114  0.4296  2.3553
  141DOPC    HB16647   2.492   4.197  14.601  0.6203  2.4483 -1.8882
  141DOPC    C216648   2.339   4.223  14.444  0.4785 -0.5280  0.3097
  141DOPC    HS16649   2.418   4.199  14.369  2.5166  0.7541  1.9434
  141DOPC   O2116650   2.292   4.358  14.428  0.5599  0.0070  0.0608
  141DOPC   C2116651   2.402   4.438  14.432  0.1051 -0.1705  0.5796
  141DOPC   O2216652   2.518   4.405  14.442 -0.2436  0.0028 -0.0913
  141DOPC   C2216653   2.350   4.578  14.425  0.8930  0.1178  0.1226
  141DOPC   H2R16654   2.331   4.614  14.528 -0.5318  3.4815 -1.1769
  141DOPC   H2S16655   2.247   4.576  14.383  0.5797 -0.3699  0.8888
  141DOPC    C316656   2.209   4.145  14.398  0.1302 -0.7306 -0.4670
  141DOPC    HX16657   2.126   4.152  14.471  1.0342  1.2919  0.4205
  141DOPC    HY16658   2.239   4.038  14.404  1.7981 -0.2312  1.2206
  141DOPC   O3116659   2.180   4.176  14.261 -0.5216 -0.2883  0.2388
  141DOPC   C3116660   2.083   4.255  14.232  0.3692  0.0314 -0.0648
  141DOPC   O3216661   2.008   4.319  14.310 -0.0636 -0.4443  0.1962
  141DOPC   C3216662   2.062   4.270  14.077 -0.1181 -0.6831  0.1734
  141DOPC   H2X16663   2.036   4.171  14.036 -1.5019 -0.3602  0.2365
  141DOPC   H2Y16664   1.972   4.334  14.064  0.3979 -0.0103 -0.1652
  141DOPC   C2316665   2.441   4.679  14.350  0.0924 -0.0230  0.1125
  141DOPC   H3R16666   2.540   4.680  14.400 -0.0577 -0.8492  0.4404
  141DOPC   H3S16667   2.388   4.773  14.377 -1.1438 -0.8976  0.8830
  141DOPC   C2416668   2.436   4.663  14.195 -0.0827 -0.4017  0.7252
  141DOPC   H4R16669   2.339   4.656  14.141  0.1535  1.7365 -0.0708
  141DOPC   H4S16670   2.494   4.571  14.177 -0.2403 -0.2778 -0.4526
  141DOPC   C2516671   2.513   4.783  14.125 -0.7389  0.2421 -0.5627
  141DOPC   H5R16672   2.594   4.804  14.197 -2.0599 -0.4007  1.1772
  141DOPC   H5S16673   2.440   4.867  14.122 -1.3240 -0.2238  0.2173
  141DOPC   C2616674   2.562   4.744  13.991  0.3737 -0.3980 -0.1697
  141DOPC   H6R16675   2.480   4.731  13.917 -2.7589 -2.6597  3.3235
  141DOPC   H6S16676   2.614   4.646  13.995 -0.2577 -0.7162  1.3564
  141DOPC   C2716677   2.654   4.855  13.925 -0.0310  0.3286 -0.0719
  141DOPC   H7R16678   2.744   4.887  13.982 -2.5447  2.8948  2.8662
  141DOPC   H7S16679   2.605   4.955  13.928  1.9925  1.3895 -0.6235
  141DOPC   C2816680   2.693   4.810  13.786 -0.5362  0.7068 -0.6478
  141DOPC   H8R16681   2.765   4.883  13.746  3.3117 -3.1327 -1.4878
  141DOPC   H8S16682   2.607   4.799  13.716 -0.9047 -3.0518  0.1312
  141DOPC   C2916683   2.761   4.673  13.782 -0.5672 -0.0032 -0.2773
  141DOPC   H9R16684   2.689   4.591  13.800 -1.2196  1.0578  2.5521
  141DOPC  C21016685   2.890   4.647  13.786  0.0029  0.4764 -0.3136
  141DOPC  H10R16686   2.921   4.541  13.783  2.3316  1.0178  1.7506
  141DOPC  C21116687   2.999   4.753  13.790 -0.3598 -0.0711 -0.4451
  141DOPC  H11R16688   3.064   4.744  13.880 -0.6608 -1.9921 -0.3772
  141DOPC  H11S16689   2.957   4.854  13.807  0.9915  0.0911  2.4510
  141DOPC  C21216690   3.093   4.758  13.671  0.2794  0.1226 -0.3529
  141DOPC  H12R16691   3.162   4.671  13.675  2.9459  2.1150 -0.6171
  141DOPC  H12S16692   3.164   4.843  13.675  2.1437 -1.3385 -1.1468
  141DOPC  C21316693   3.024   4.765  13.533  0.2202  0.4487  0.4655
  141DOPC  H13R16694   2.950   4.848  13.534 -0.3252  0.0803  4.1269
  141DOPC  H13S16695   2.978   4.665  13.518  1.8829  0.0312 -2.6467
  141DOPC  C21416696   3.131   4.784  13.421  0.4179  0.5437  0.3435
  141DOPC  H14R16697   3.181   4.685  13.409 -0.7066  0.2374 -3.3387
  141DOPC  H14S16698   3.209   4.857  13.447  1.6013 -0.7373  0.4978
  141DOPC  C21516699   3.070   4.827  13.283 -0.1994  0.7079 -0.0809
  141DOPC  H15R16700   2.987   4.896  13.308 -1.0744 -0.8247  1.4867
  141DOPC  H15S16701   3.020   4.744  13.229  0.3129 -0.5132  1.2434
  141DOPC  C21616702   3.173   4.906  13.205 -1.3395 -0.6345  0.2086
  141DOPC  H16R16703   3.255   4.831  13.207  1.8903  2.5867 -0.4503
  141DOPC  H16S16704   3.197   4.998  13.262  0.4294  0.2228 -1.7939
  141DOPC  C21716705   3.143   4.939  13.060 -0.4467 -0.2576 -0.3624
  141DOPC  H17R16706   3.229   4.984  13.007 -0.3757  1.6215  1.2582
  141DOPC  H17S16707   3.072   5.024  13.067 -0.9062 -0.5033 -1.7442
  141DOPC  C21816708   3.073   4.827  12.991  0.0993 -0.4921  0.1629
  141DOPC  H18R16709   2.966   4.819  13.019 -0.4496 -0.8744 -1.8550
  141DOPC  H18S16710   3.117   4.727  13.012 -1.2101 -1.0266  0.4740
  141DOPC  H18T16711   3.082   4.844  12.882 -0.1383  0.6872  0.3157
  141DOPC   C3316712   2.187   4.331  14.010 -0.0339  0.0903 -0.1124
  141DOPC   H3X16713   2.275   4.266  13.994  0.1156  0.1117  0.5907
  141DOPC   H3Y16714   2.225   4.422  14.061  1.0793  1.6290 -3.4094
  141DOPC   C3416715   2.140   4.394  13.874  0.0244 -0.1639 -0.0565
  141DOPC   H4X16716   2.219   4.470  13.855 -0.5075  0.9033  1.8102
  141DOPC   H4Y16717   2.063   4.466  13.910  1.5308  2.2201 -1.3422
  141DOPC   C3516718   2.095   4.300  13.762  0.0981  0.5780  0.0309
  141DOPC   H5X16719   1.993   4.260  13.779 -1.3425  3.7053 -0.5573
  141DOPC   H5Y16720   2.159   4.209  13.761 -0.4895  0.0915  1.8950
  141DOPC   C3616721   2.104   4.363  13.618  0.2333  0.1671  0.4493
  141DOPC   H6X16722   2.042   4.297  13.554  0.7836 -0.0096  0.0849
  141DOPC   H6Y16723   2.066   4.467  13.626 -2.5935 -0.8368  1.0549
  141DOPC   C3716724   2.250   4.365  13.564 -0.1596  0.1409 -0.6114
  141DOPC   H7X16725   2.308   4.405  13.650 -0.4529 -1.3047  0.3004
  141DOPC   H7Y16726   2.291   4.262  13.553 -2.0831 -0.7928  0.4346
  141DOPC   C3816727   2.264   4.462  13.450  0.1709  0.7671  0.1028
  141DOPC   H8X16728   2.374   4.464  13.435  0.1607 -0.6215 -0.3013
  141DOPC   H8Y16729   2.227   4.558  13.493  0.4794  1.7542 -1.7223
  141DOPC   C3916730   2.181   4.434  13.323 -0.4693 -1.3990  0.4486
  141DOPC   H9X16731   2.077   4.412  13.351 -0.3370 -2.2095  0.3108
  141DOPC  C31016732   2.223   4.414  13.197 -0.2865  0.7639  0.6952
  141DOPC  H10X16733   2.153   4.379  13.120  1.3501  1.4896 -1.2172
  141DOPC  C31116734   2.370   4.398  13.169  0.2427 -0.5469 -0.1867
  141DOPC  H11X16735   2.403   4.304  13.218  0.6890 -0.2471  0.0947
  141DOPC  H11Y16736   2.422   4.488  13.209 -3.4726  1.1012  1.5076
  141DOPC  C31216737   2.429   4.365  13.025 -0.1543  0.0517  0.0471
  141DOPC  H12X16738   2.366   4.281  12.990 -2.6193  1.1196  1.6643
  141DOPC  H12Y16739   2.534   4.331  13.042 -0.5872 -0.7294  1.2892
  141DOPC  C31316740   2.414   4.481  12.923 -0.2284  0.2804 -0.2942
  141DOPC  H13X16741   2.305   4.498  12.918 -0.2256 -0.1514 -3.2558
  141DOPC  H13Y16742   2.466   4.570  12.965  0.8053 -0.3633 -0.1719
  141DOPC  C31416743   2.456   4.440  12.783 -0.0331 -0.2970  0.0476
  141DOPC  H14X16744   2.395   4.352  12.752 -0.6988  0.3890 -0.6257
  141DOPC  H14Y16745   2.438   4.528  12.718  0.3145  0.1909  0.6068
  141DOPC  C31516746   2.607   4.402  12.768 -0.5749 -0.3338  0.2240
  141DOPC  H15X16747   2.626   4.314  12.834 -1.8941 -1.4372 -0.7786
  141DOPC  H15Y16748   2.657   4.496  12.798  0.3349 -0.7716  0.1254
  141DOPC  C31616749   2.628   4.344  12.628  0.8796 -0.0690  0.3319
  141DOPC  H16X16750   2.728   4.296  12.634  0.8703 -0.1774 -0.3217
  141DOPC  H16Y16751   2.552   4.266  12.608  1.1359 -0.1747 -0.2515
  141DOPC  C31716752   2.633   4.438  12.502 -0.1064  0.1058 -0.4414
  141DOPC  H17X16753   2.542   4.502  12.513 -1.9324 -2.3038 -0.5557
  141DOPC  H17Y16754   2.718   4.508  12.505 -1.4175  1.8042 -1.0938
  141DOPC  C31816755   2.623   4.364  12.367 -0.0301  0.6175 -0.7682
  141DOPC  H18X16756   2.625   4.428  12.276 -2.9345  2.0331  0.0398
  141DOPC  H18Y16757   2.711   4.296  12.368 -0.4984  0.0021 -0.0230
  141DOPC  H18Z16758   2.527   4.309  12.377  0.9468 -1.0193  0.1030
  142DOPC     N16759   3.470   4.870  15.040 -0.3596 -0.8699 -0.1294
  142DOPC   C1216760   3.492   4.785  14.913 -1.3250 -0.4921  0.2203
  142DOPC  H12A16761   3.464   4.683  14.936  1.4134 -1.4866 -0.5584
  142DOPC  H12B16762   3.598   4.797  14.899 -1.4557 -0.0088 -0.3761
  142DOPC   C1316763   3.329   4.867  15.087 -0.3332  0.1428  0.2961
  142DOPC  H13A16764   3.316   4.948  15.158  2.7140 -0.5012  1.7786
  142DOPC  H13B16765   3.258   4.888  15.009  0.4755 -0.9885 -0.7717
  142DOPC  H13C16766   3.313   4.771  15.134  3.0228  0.5765  2.7307
  142DOPC   C1416767   3.519   5.011  15.019 -0.3172 -0.3696  0.2383
  142DOPC  H14A16768   3.444   5.064  14.962 -0.6673 -0.8192  0.2720
  142DOPC  H14B16769   3.524   5.067  15.112 -1.9677 -0.2359  0.2884
  142DOPC  H14C16770   3.619   5.018  14.979 -0.6517 -2.4887 -1.1220
  142DOPC   C1516771   3.559   4.810  15.146  0.5672 -0.5494 -0.2350
  142DOPC  H15A16772   3.509   4.726  15.193 -0.0051  1.1254  2.3602
  142DOPC  H15B16773   3.575   4.874  15.232  0.2536 -1.4218  0.4898
  142DOPC  H15C16774   3.653   4.777  15.106  1.8264  0.5852  1.6073
  142DOPC   C1116775   3.419   4.829  14.783 -0.0331  0.4654  0.4935
  142DOPC  H11A16776   3.416   4.940  14.781 -1.2917  0.4274 -0.4655
  142DOPC  H11B16777   3.470   4.795  14.691 -1.5810 -2.4703  0.6035
  142DOPC     P16778   3.254   4.626  14.761  0.5287  0.0159  0.0479
  142DOPC   O1316779   3.112   4.604  14.737 -0.1193 -0.0207  0.4386
  142DOPC   O1416780   3.316   4.553  14.866 -0.9718 -0.0799  0.1508
  142DOPC   O1216781   3.286   4.780  14.779 -0.7517  0.3393 -0.5238
  142DOPC   O1116782   3.326   4.575  14.629 -0.6366 -0.5139  0.0328
  142DOPC    C116783   3.304   4.646  14.509 -0.0198  1.0006  0.0030
  142DOPC    HA16784   3.336   4.753  14.514 -2.2124  1.6767  1.1658
  142DOPC    HB16785   3.194   4.654  14.491 -0.2572  0.7468  1.2588
  142DOPC    C216786   3.367   4.576  14.386 -0.6314  0.6560 -0.1444
  142DOPC    HS16787   3.477   4.583  14.401 -0.8134  0.1228  1.7251
  142DOPC   O2116788   3.321   4.631  14.257 -0.3724 -0.0002 -0.5471
  142DOPC   C2116789   3.385   4.733  14.208  0.4854  0.6900  0.1244
  142DOPC   O2216790   3.474   4.793  14.263  0.5288 -0.0542  0.1514
  142DOPC   C2216791   3.340   4.755  14.063 -0.3306 -0.4050  0.0179
  142DOPC   H2R16792   3.246   4.814  14.064 -0.6390 -0.8915  1.2167
  142DOPC   H2S16793   3.309   4.655  14.025  1.7144 -1.8552  1.9097
  142DOPC    C316794   3.332   4.422  14.384 -0.1219 -0.3285  0.0606
  142DOPC    HX16795   3.221   4.414  14.373  0.1128 -2.0663 -1.7651
  142DOPC    HY16796   3.370   4.365  14.471 -1.6902 -0.0022  0.9923
  142DOPC   O3116797   3.382   4.351  14.268  0.0324  0.1949 -0.1131
  142DOPC   C3116798   3.513   4.362  14.249 -0.7914 -0.4478 -0.1855
  142DOPC   O3216799   3.592   4.402  14.333 -0.0095  0.0047  0.3455
  142DOPC   C3216800   3.537   4.338  14.101 -0.0654 -0.4252 -0.6220
  142DOPC   H2X16801   3.523   4.231  14.076  0.6356 -0.4875 -0.7679
  142DOPC   H2Y16802   3.459   4.398  14.050 -1.0902 -1.7440 -0.6701
  142DOPC   C2316803   3.441   4.815  13.971 -0.0946 -0.3853  0.4210
  142DOPC   H3R16804   3.537   4.760  13.985 -1.3665 -2.4550  1.4259
  142DOPC   H3S16805   3.445   4.925  13.989 -1.7755 -0.1047 -0.6923
  142DOPC   C2416806   3.428   4.787  13.819 -0.6712 -0.1704 -0.0148
  142DOPC   H4R16807   3.320   4.796  13.794 -0.1045  2.6056 -1.8771
  142DOPC   H4S16808   3.461   4.682  13.804  0.4568  0.2506 -0.5592
  142DOPC   C2516809   3.517   4.877  13.731 -0.3908  0.1942  0.3607
  142DOPC   H5R16810   3.622   4.864  13.765  0.5771  2.2559 -1.5184
  142DOPC   H5S16811   3.499   4.982  13.764  1.9154  0.9684 -0.6141
  142DOPC   C2616812   3.520   4.865  13.574 -0.5926 -0.0754 -1.0507
  142DOPC   H6R16813   3.606   4.921  13.532 -0.2983  0.5045  0.2723
  142DOPC   H6S16814   3.427   4.918  13.542 -1.1046 -0.2088  0.1772
  142DOPC   C2716815   3.528   4.719  13.518  0.6218 -0.1587 -0.0465
  142DOPC   H7R16816   3.456   4.653  13.571  0.1438  0.4916  0.1358
  142DOPC   H7S16817   3.626   4.679  13.552  1.0866  1.9832  1.3816
  142DOPC   C2816818   3.501   4.711  13.363 -0.1984  0.0219  0.9735
  142DOPC   H8R16819   3.550   4.800  13.318 -2.2254  0.0950 -1.2847
  142DOPC   H8S16820   3.393   4.726  13.342 -0.0864 -1.2959 -0.7243
  142DOPC   C2916821   3.550   4.589  13.308  0.1546  0.1049  0.5516
  142DOPC   H9R16822   3.651   4.558  13.339  0.5663  0.4524 -0.3922
  142DOPC  C21016823   3.484   4.508  13.219 -0.4218 -0.2930  0.0101
  142DOPC  H10R16824   3.536   4.412  13.205 -1.4615 -1.1103  1.4781
  142DOPC  C21116825   3.341   4.518  13.160 -0.4953 -0.1430 -0.5930
  142DOPC  H11R16826   3.296   4.620  13.164 -2.7535 -1.0932 -0.4147
  142DOPC  H11S16827   3.288   4.437  13.214  0.7045 -0.4717  0.1309
  142DOPC  C21216828   3.326   4.473  13.014  0.0391 -0.2174  0.4287
  142DOPC  H12R16829   3.224   4.471  12.971 -0.0285  0.6236  0.5231
  142DOPC  H12S16830   3.370   4.372  12.997  3.7449  1.3667 -0.3398
  142DOPC  C21316831   3.395   4.579  12.920  0.2449  0.3551  0.0292
  142DOPC  H13R16832   3.505   4.576  12.935  0.5132 -1.9732 -1.8100
  142DOPC  H13S16833   3.361   4.677  12.959  1.8399  0.6264  0.7997
  142DOPC  C21416834   3.371   4.552  12.772  0.0204 -0.5904  1.0851
  142DOPC  H14R16835   3.263   4.544  12.749  0.3867 -1.3672 -0.5295
  142DOPC  H14S16836   3.421   4.457  12.742  2.0779  0.6842  0.2832
  142DOPC  C21516837   3.418   4.674  12.693  0.4060 -0.6343  0.6289
  142DOPC  H15R16838   3.529   4.671  12.700  0.5920 -0.0594 -1.5671
  142DOPC  H15S16839   3.383   4.765  12.746  0.9720  0.6782 -1.1562
  142DOPC  C21616840   3.369   4.685  12.551  0.2592  0.2552  0.8905
  142DOPC  H16R16841   3.258   4.677  12.551  0.1583  1.5128  1.3478
  142DOPC  H16S16842   3.405   4.602  12.486 -1.9484  0.9071 -1.3229
  142DOPC  C21716843   3.431   4.812  12.493 -0.1528  0.0045 -0.6059
  142DOPC  H17R16844   3.430   4.893  12.569  1.8259  0.3258 -0.8734
  142DOPC  H17S16845   3.377   4.831  12.398  1.7021 -1.0928 -1.9371
  142DOPC  C21816846   3.577   4.803  12.448  0.2739  0.1058  0.3414
  142DOPC  H18R16847   3.608   4.903  12.411 -1.4923  1.0729  1.3571
  142DOPC  H18S16848   3.591   4.723  12.372  1.3833  0.4643  0.1446
  142DOPC  H18T16849   3.639   4.784  12.539  0.3859  1.9729  0.6890
  142DOPC   C3316850   3.677   4.380  14.064 -0.8337  0.1290  1.1486
  142DOPC   H3X16851   3.754   4.333  14.129  0.3552  0.7425  0.2158
  142DOPC   H3Y16852   3.686   4.490  14.064  0.0515  0.0592  0.9509
  142DOPC   C3416853   3.723   4.336  13.915  0.5387  0.2102 -1.0337
  142DOPC   H4X16854   3.738   4.226  13.912 -1.8455 -0.1514 -2.6426
  142DOPC   H4Y16855   3.816   4.393  13.893  0.0137  1.1810 -0.8027
  142DOPC   C3516856   3.608   4.360  13.813  0.6615  0.1079 -0.3783
  142DOPC   H5X16857   3.597   4.470  13.805  1.2891  0.1206 -1.1660
  142DOPC   H5Y16858   3.517   4.310  13.852  1.9820 -1.9651  0.2072
  142DOPC   C3616859   3.619   4.300  13.677  0.7080  0.6736  0.5004
  142DOPC   H6X16860   3.711   4.322  13.619  0.2488  1.7152  0.1395
  142DOPC   H6Y16861   3.604   4.191  13.691 -2.0622  1.1623  2.1593
  142DOPC   C3716862   3.498   4.337  13.588 -0.8298  1.0137  0.4111
  142DOPC   H7X16863   3.516   4.440  13.551  1.9102  0.4334 -0.1196
  142DOPC   H7Y16864   3.498   4.276  13.495  2.0701  0.9277  0.3812
  142DOPC   C3816865   3.357   4.331  13.641 -0.3039 -0.3393 -0.2724
  142DOPC   H8X16866   3.357   4.395  13.732  1.0425 -1.1425  0.3203
  142DOPC   H8Y16867   3.329   4.230  13.679  0.1416 -0.3834 -0.0634
  142DOPC   C3916868   3.259   4.392  13.542 -0.0962  0.2436 -0.5469
  142DOPC   H9X16869   3.290   4.491  13.505 -1.7087  0.7001 -0.7635
  142DOPC  C31016870   3.151   4.336  13.484  0.4521  0.1219 -0.0646
  142DOPC  H10X16871   3.084   4.391  13.417 -0.0372 -0.6880 -0.2447
  142DOPC  C31116872   3.104   4.196  13.500  0.3071  0.1836  0.4316
  142DOPC  H11X16873   3.189   4.124  13.513  1.6424  1.5445 -0.4363
  142DOPC  H11Y16874   3.051   4.168  13.407  1.1612 -0.9590  0.2582
  142DOPC  C31216875   3.011   4.162  13.617  0.1049 -0.1695 -0.5360
  142DOPC  H12X16876   3.061   4.208  13.705  0.5316 -0.7596 -0.4641
  142DOPC  H12Y16877   3.006   4.054  13.644 -2.8306  0.1159  0.4302
  142DOPC  C31316878   2.870   4.209  13.596  0.2520  0.5727 -0.1150
  142DOPC  H13X16879   2.871   4.320  13.602 -0.1738  0.6671 -1.4610
  142DOPC  H13Y16880   2.836   4.187  13.492  1.3895 -3.2462  0.1914
  142DOPC  C31416881   2.766   4.151  13.686  0.0449 -0.0323 -0.0343
  142DOPC  H14X16882   2.662   4.179  13.659  0.4543  1.9503  0.2683
  142DOPC  H14Y16883   2.773   4.042  13.665 -1.0277  0.0353 -0.8337
  142DOPC  C31516884   2.787   4.176  13.837  0.2879  0.4329 -0.7338
  142DOPC  H15X16885   2.827   4.279  13.851  0.8802  0.1405 -0.2620
  142DOPC  H15Y16886   2.852   4.102  13.889 -1.6582  0.2320  1.5880
  142DOPC  C31616887   2.660   4.166  13.923  0.2908  0.5475 -0.5331
  142DOPC  H16X16888   2.577   4.232  13.890 -1.2397 -0.4079  1.2464
  142DOPC  H16Y16889   2.618   4.064  13.930 -0.3258  0.4940 -3.5349
  142DOPC  C31716890   2.671   4.214  14.072 -0.1509 -0.1715 -0.3670
  142DOPC  H17X16891   2.687   4.324  14.068  0.8273 -0.2582  0.8224
  142DOPC  H17Y16892   2.564   4.215  14.102 -0.0143  2.4336  0.2780
  142DOPC  C31816893   2.752   4.131  14.167 -0.5434  0.2403 -0.4144
  142DOPC  H18X16894   2.769   4.025  14.140 -0.3699 -0.1173  1.0103
  142DOPC  H18Y16895   2.851   4.179  14.181 -0.2752 -0.4153 -0.0233
  142DOPC  H18Z16896   2.699   4.127  14.265  2.7626 -0.3130  1.5021
  143DOPC     N16897   1.033   5.532  15.103 -0.7985 -0.1332  0.0087
  143DOPC   C1216898   1.141   5.445  15.169  0.0741  0.1982  0.3514
  143DOPC  H12A16899   1.091   5.356  15.204  1.7155 -0.4666  1.1025
  143DOPC  H12B16900   1.196   5.493  15.248  0.9235  0.9440 -0.6665
  143DOPC   C1316901   0.940   5.453  15.028 -0.0712 -0.4393  0.0695
  143DOPC  H13A16902   0.987   5.417  14.937 -0.6354 -0.5213 -0.1955
  143DOPC  H13B16903   0.907   5.363  15.079 -2.6459  1.4189  1.9277
  143DOPC  H13C16904   0.848   5.499  14.994 -0.2893 -1.2273 -0.4382
  143DOPC   C1416905   1.089   5.639  15.010  0.2336 -0.1788 -0.7224
  143DOPC  H14A16906   1.157   5.605  14.933  2.5742 -0.6003  1.4136
  143DOPC  H14B16907   1.006   5.695  14.969  0.5061  2.2102  1.7294
  143DOPC  H14C16908   1.140   5.701  15.081 -1.3406 -1.5150  1.7044
  143DOPC   C1516909   0.957   5.591  15.220 -0.4241  0.1435  0.3650
  143DOPC  H15A16910   0.910   5.518  15.285 -1.0729 -0.2745 -0.5562
  143DOPC  H15B16911   0.883   5.659  15.179 -0.4266  1.9932  3.1780
  143DOPC  H15C16912   1.018   5.652  15.284  0.0241  0.6427 -0.5248
  143DOPC   C1116913   1.252   5.397  15.072  0.6011 -0.0204 -0.0102
  143DOPC  H11A16914   1.321   5.473  15.029  2.2914 -1.7163 -0.4329
  143DOPC  H11B16915   1.314   5.337  15.141 -1.5347 -1.4329  0.7705
  143DOPC     P16916   1.225   5.352  14.816 -0.3428  0.3706  0.4915
  143DOPC   O1316917   1.098   5.341  14.744 -0.4852 -0.0765 -0.0932
  143DOPC   O1416918   1.335   5.261  14.765  0.2609  0.1670  0.4411
  143DOPC   O1216919   1.213   5.313  14.965  0.1746 -0.6957 -0.4709
  143DOPC   O1116920   1.264   5.500  14.804 -0.8588 -0.5215  0.4514
  143DOPC    C116921   1.379   5.543  14.730 -0.1514  0.4256 -0.7267
  143DOPC    HA16922   1.462   5.470  14.747 -0.3221  0.3105 -0.3738
  143DOPC    HB16923   1.423   5.631  14.782 -1.5237  0.7811 -0.1213
  143DOPC    C216924   1.347   5.573  14.582 -0.2732  0.2770  0.8227
  143DOPC    HS16925   1.255   5.636  14.585 -1.6646 -1.6875  1.0023
  143DOPC   O2116926   1.318   5.447  14.517 -0.1546 -0.0197 -0.2919
  143DOPC   C2116927   1.224   5.436  14.430 -0.5142 -0.3369  1.2191
  143DOPC   O2216928   1.154   5.520  14.384 -0.1536 -0.0328  0.3346
  143DOPC   C2216929   1.240   5.295  14.371 -0.7506 -0.0693 -0.6195
  143DOPC   H2R16930   1.178   5.226  14.433  0.3924 -0.8538 -0.3314
  143DOPC   H2S16931   1.345   5.262  14.367  0.0730  2.4217 -1.4290
  143DOPC    C316932   1.458   5.653  14.508  0.4767 -0.3521  1.2538
  143DOPC    HX16933   1.543   5.582  14.521 -2.4454 -3.8233  3.1453
  143DOPC    HY16934   1.483   5.753  14.550 -0.4631 -0.7509  2.8100
  143DOPC   O3116935   1.426   5.669  14.368  0.4056  0.0590  0.0963
  143DOPC   C3116936   1.381   5.793  14.326 -0.5733 -1.0415  0.6167
  143DOPC   O3216937   1.341   5.883  14.397  0.3471 -0.7655  0.0777
  143DOPC   C3216938   1.390   5.801  14.171 -0.2314  0.0017 -0.3455
  143DOPC   H2X16939   1.493   5.819  14.133 -0.3837 -0.0306 -0.7906
  143DOPC   H2Y16940   1.354   5.702  14.136 -0.6328 -0.6909  1.8870
  143DOPC   C2316941   1.191   5.289  14.222  0.2656 -0.0290 -0.4379
  143DOPC   H3R16942   1.096   5.346  14.216  0.5382  0.4706 -0.1087
  143DOPC   H3S16943   1.173   5.183  14.195 -2.0072  0.0947  0.4570
  143DOPC   C2416944   1.295   5.362  14.132 -0.3381 -0.4779 -0.3647
  143DOPC   H4R16945   1.388   5.300  14.140 -0.7822 -0.9929  1.1627
  143DOPC   H4S16946   1.319   5.458  14.183  0.6795 -1.4839  1.1534
  143DOPC   C2516947   1.267   5.376  13.985 -0.6218  0.0830  0.1617
  143DOPC   H5R16948   1.187   5.452  13.971 -1.3031 -1.0699 -2.9363
  143DOPC   H5S16949   1.224   5.279  13.953  0.5652 -0.1878 -0.7075
  143DOPC   C2616950   1.381   5.419  13.891  0.1793  0.2084  0.1316
  143DOPC   H6R16951   1.341   5.427  13.787 -0.9481 -1.3234  0.4211
  143DOPC   H6S16952   1.461   5.343  13.886  0.1897  0.2867 -1.4158
  143DOPC   C2716953   1.448   5.557  13.929  0.3976 -0.6640  0.4966
  143DOPC   H7R16954   1.478   5.569  14.035 -2.2085 -1.0777  1.3607
  143DOPC   H7S16955   1.375   5.638  13.905  0.3515 -1.0693 -0.8040
  143DOPC   C2816956   1.577   5.582  13.845  0.5669  0.2284  0.6641
  143DOPC   H8R16957   1.556   5.517  13.757  0.9456  0.2639  0.5460
  143DOPC   H8S16958   1.666   5.537  13.894 -0.0426 -3.6172 -1.3248
  143DOPC   C2916959   1.610   5.724  13.800  0.7800 -0.1043 -0.4410
  143DOPC   H9R16960   1.638   5.790  13.884  0.1863 -1.4944  0.9087
  143DOPC  C21016961   1.610   5.777  13.674  0.1944 -0.1005 -0.7918
  143DOPC  H10R16962   1.646   5.881  13.667  0.2013  0.1954  2.1779
  143DOPC  C21116963   1.576   5.713  13.543 -0.3470  0.1662 -0.3072
  143DOPC  H11R16964   1.492   5.642  13.553 -0.2107 -0.0139 -0.4427
  143DOPC  H11S16965   1.663   5.652  13.512 -0.4066 -0.6446  1.0242
  143DOPC  C21216966   1.545   5.808  13.433 -0.0079 -0.0917 -0.5064
  143DOPC  H12R16967   1.608   5.898  13.415 -4.6054  2.9334 -3.3744
  143DOPC  H12S16968   1.445   5.853  13.444 -0.0262  0.1649 -1.5974
  143DOPC  C21316969   1.547   5.730  13.298 -0.0072  0.3998 -0.5137
  143DOPC  H13R16970   1.498   5.631  13.313 -0.5551  0.5812 -1.0533
  143DOPC  H13S16971   1.653   5.719  13.266 -0.2745 -1.3752 -0.9022
  143DOPC  C21416972   1.481   5.815  13.185 -0.5376 -0.2920 -0.4483
  143DOPC  H14R16973   1.520   5.919  13.179  0.2784 -0.6384 -1.4701
  143DOPC  H14S16974   1.375   5.814  13.218 -0.4534  1.6896  0.0084
  143DOPC  C21516975   1.506   5.738  13.055  0.3761 -0.1016  0.1576
  143DOPC  H15R16976   1.461   5.637  13.052 -1.0672  0.5255 -2.5343
  143DOPC  H15S16977   1.614   5.732  13.030  0.6347 -0.0978  1.2385
  143DOPC  C21616978   1.448   5.818  12.937  0.1439 -0.2871  0.1640
  143DOPC  H16R16979   1.512   5.908  12.930 -1.2584  0.8189  1.0473
  143DOPC  H16S16980   1.340   5.843  12.944  0.2777 -0.0577  1.5833
  143DOPC  C21716981   1.452   5.748  12.792 -0.4346 -0.6269  0.0216
  143DOPC  H17R16982   1.387   5.659  12.803  0.1497 -1.3388 -1.9999
  143DOPC  H17S16983   1.554   5.710  12.770 -0.2767 -0.0013 -0.3688
  143DOPC  C21816984   1.419   5.848  12.685 -0.5771  0.2449  1.3199
  143DOPC  H18R16985   1.316   5.890  12.695 -1.1795 -0.7986 -0.1361
  143DOPC  H18S16986   1.415   5.792  12.589 -2.9432 -1.8386  2.5066
  143DOPC  H18T16987   1.495   5.927  12.670 -0.3994 -0.0537  0.5985
  143DOPC   C3316988   1.303   5.914  14.119  0.4749 -0.3946  0.5155
  143DOPC   H3X16989   1.343   6.011  14.156 -0.6479  0.6548 -0.9039
  143DOPC   H3Y16990   1.203   5.920  14.168  0.8318 -0.9551  1.3425
  143DOPC   C3416991   1.304   5.929  13.968  0.2589 -0.0927 -0.2065
  143DOPC   H4X16992   1.264   5.841  13.913  0.0755  0.0630 -0.3237
  143DOPC   H4Y16993   1.413   5.937  13.947  0.7944 -0.4534  2.1996
  143DOPC   C3516994   1.217   6.046  13.911 -0.0710  0.0137  0.4618
  143DOPC   H5X16995   1.237   6.146  13.956  2.4575 -0.1584 -0.1337
  143DOPC   H5Y16996   1.108   6.027  13.908 -0.1626  0.6286 -0.5185
  143DOPC   C3616997   1.255   6.061  13.765 -0.0579 -0.6196 -0.2081
  143DOPC   H6X16998   1.362   6.035  13.754  0.0894  0.0070 -0.2818
  143DOPC   H6Y16999   1.197   5.982  13.713  1.2085 -1.8902  0.2352
  143DOPC   C3717000   1.218   6.200  13.697  0.0754  0.5135  0.4756
  143DOPC   H7X17001   1.107   6.204  13.701  0.0086 -0.1771 -0.4922
  143DOPC   H7Y17002   1.258   6.288  13.752  1.7515  1.1828 -1.6576
  143DOPC   C3817003   1.275   6.213  13.552  0.9085  0.4068 -0.8013
  143DOPC   H8X17004   1.386   6.221  13.560  0.8459  1.2230 -0.7551
  143DOPC   H8Y17005   1.240   6.313  13.520  0.2172  0.2776 -0.4565
  143DOPC   C3917006   1.229   6.124  13.445  0.7634  0.2275  0.0042
  143DOPC   H9X17007   1.190   6.031  13.490  0.4948  0.8295  1.0722
  143DOPC  C31017008   1.227   6.141  13.316 -0.2854  0.0577  0.0591
  143DOPC  H10X17009   1.177   6.072  13.247 -0.2738  1.5168 -1.4639
  143DOPC  C31117010   1.286   6.260  13.246  0.1871 -0.6830 -0.3215
  143DOPC  H11X17011   1.373   6.290  13.309 -1.9544  1.1849  1.9627
  143DOPC  H11Y17012   1.229   6.355  13.251 -0.0482 -0.8871  2.7206
  143DOPC  C31217013   1.328   6.233  13.100 -0.4691 -0.4458 -0.0329
  143DOPC  H12X17014   1.367   6.129  13.102  0.5279 -0.0753  1.9938
  143DOPC  H12Y17015   1.405   6.310  13.079 -0.5510 -0.8104 -1.8713
  143DOPC  C31317016   1.211   6.241  12.995 -0.4381 -0.7077 -0.1330
  143DOPC  H13X17017   1.150   6.153  13.024  0.0333 -0.8338  0.5046
  143DOPC  H13Y17018   1.149   6.330  13.019  0.3744  0.1128 -1.0099
  143DOPC  C31417019   1.263   6.230  12.853 -0.4163  0.2468  0.1086
  143DOPC  H14X17020   1.327   6.319  12.839  1.7789 -1.2309  0.2142
  143DOPC  H14Y17021   1.340   6.150  12.847  0.7816  1.2048  1.8362
  143DOPC  C31517022   1.154   6.217  12.751  0.2084  0.7597  0.1044
  143DOPC  H15X17023   1.084   6.303  12.767  0.1052  1.0120 -1.5387
  143DOPC  H15Y17024   1.104   6.120  12.770  2.7782 -0.3971  1.3227
  143DOPC  C31617025   1.187   6.234  12.604  0.2331  0.2868 -0.3650
  143DOPC  H16X17026   1.091   6.245  12.549  1.2857  0.5757 -2.2448
  143DOPC  H16Y17027   1.237   6.333  12.594  1.3674  0.1632  2.8593
  143DOPC  C31717028   1.262   6.124  12.531  0.4445 -0.5873  0.0404
  143DOPC  H17X17029   1.364   6.115  12.573  0.8697  2.7503 -0.0367
  143DOPC  H17Y17030   1.204   6.034  12.563  0.4337 -1.3288 -1.9661
  143DOPC  C31817031   1.281   6.154  12.386 -0.7215  0.2213 -0.6838
  143DOPC  H18X17032   1.307   6.058  12.337 -0.8722  0.6952 -1.7299
  143DOPC  H18Y17033   1.185   6.187  12.339  0.2439  1.3677 -1.9433
  143DOPC  H18Z17034   1.360   6.227  12.360 -1.0771  0.8148 -0.1523
  144DOPC     N17035   1.983   6.237  15.053  0.2430 -0.1577  0.2181
  144DOPC   C1217036   1.945   6.105  14.983 -0.2008  0.4226  0.1944
  144DOPC  H12A17037   1.929   6.023  15.051  0.0109 -0.9964 -1.3947
  144DOPC  H12B17038   2.029   6.060  14.931 -0.5322 -1.4499  1.2298
  144DOPC   C1317039   1.862   6.307  15.118 -0.1974  0.3032  0.1750
  144DOPC  H13A17040   1.779   6.327  15.052 -0.8594 -1.9802  0.2548
  144DOPC  H13B17041   1.828   6.246  15.200  1.3836 -1.2691 -0.2946
  144DOPC  H13C17042   1.895   6.399  15.165 -2.5694  1.4557 -0.2268
  144DOPC   C1417043   2.047   6.325  14.949 -0.1579  0.1253 -0.0680
  144DOPC  H14A17044   1.977   6.348  14.870 -0.7203 -1.4111 -0.0515
  144DOPC  H14B17045   2.055   6.427  14.983  2.3405 -0.4166  1.1934
  144DOPC  H14C17046   2.144   6.290  14.915 -0.0597  1.1278 -0.8501
  144DOPC   C1517047   2.091   6.212  15.160  0.7329 -0.1837  0.2736
  144DOPC  H15A17048   2.166   6.144  15.122  0.3664 -0.7088  0.4725
  144DOPC  H15B17049   2.042   6.167  15.245  1.8710 -0.3157  0.8696
  144DOPC  H15C17050   2.147   6.299  15.191  0.8908  0.4441 -1.5994
  144DOPC   C1117051   1.828   6.119  14.877 -0.8930 -0.0017  0.6119
  144DOPC  H11A17052   1.733   6.152  14.922 -1.3509  0.5308 -0.6933
  144DOPC  H11B17053   1.854   6.197  14.802 -1.4380 -0.0490  0.3727
  144DOPC     P17054   1.704   5.947  14.718 -0.1686 -0.2835  0.4120
  144DOPC   O1317055   1.658   6.058  14.639  0.1076 -0.5706  0.2096
  144DOPC   O1417056   1.610   5.883  14.812  0.0643 -0.7853 -0.3198
  144DOPC   O1217057   1.832   5.996  14.803  0.5425 -0.1784 -0.0023
  144DOPC   O1117058   1.774   5.837  14.638 -0.5417 -0.0990  0.5380
  144DOPC    C117059   1.893   5.850  14.559  0.0629  0.0906  0.1331
  144DOPC    HA17060   1.966   5.785  14.611  1.1703  0.6072 -0.7326
  144DOPC    HB17061   1.936   5.953  14.559 -0.0635  0.1654  1.7405
  144DOPC    C217062   1.890   5.797  14.406  0.6373 -0.0295 -0.5218
  144DOPC    HS17063   1.831   5.869  14.347  0.1766 -0.0904 -0.1424
  144DOPC   O2117064   1.825   5.668  14.396 -0.1721 -0.3613  0.4317
  144DOPC   C2117065   1.767   5.635  14.285 -0.2339  0.3070 -0.1589
  144DOPC   O2217066   1.743   5.711  14.194  0.0306 -0.0179  0.3956
  144DOPC   C2217067   1.739   5.483  14.280  0.5369 -0.0999 -0.3120
  144DOPC   H2R17068   1.639   5.470  14.327  1.0090 -2.4709  0.1832
  144DOPC   H2S17069   1.816   5.438  14.346  0.1250  0.1041  0.3222
  144DOPC    C317070   2.036   5.790  14.352  0.2134 -0.0061 -0.5272
  144DOPC    HX17071   2.087   5.728  14.428  0.9086  1.6590  0.4117
  144DOPC    HY17072   2.063   5.896  14.366 -2.7664  0.6985  0.6632
  144DOPC   O3117073   2.058   5.733  14.215  0.1931 -0.6483 -0.2573
  144DOPC   C3117074   2.062   5.818  14.119 -0.1045 -0.5043  0.9625
  144DOPC   O3217075   2.072   5.939  14.128 -0.2077  0.2447  0.1059
  144DOPC   C3217076   2.040   5.742  13.988  0.1348 -0.4964 -0.5424
  144DOPC   H2X17077   2.109   5.655  13.989  1.6477  0.6203  2.2868
  144DOPC   H2Y17078   1.938   5.697  13.990 -0.4498  0.8065 -0.1191
  144DOPC   C2317079   1.738   5.410  14.141 -0.1641 -0.2729  0.1658
  144DOPC   H3R17080   1.832   5.432  14.084  0.9115 -1.3452  1.4696
  144DOPC   H3S17081   1.649   5.439  14.081 -0.1848 -1.8859 -0.6223
  144DOPC   C2417082   1.731   5.259  14.157  0.0173 -0.2592 -0.2164
  144DOPC   H4R17083   1.665   5.236  14.243  1.9240  2.4651  2.1647
  144DOPC   H4S17084   1.832   5.218  14.179  1.2029  2.4771 -0.1565
  144DOPC   C2517085   1.688   5.182  14.032  0.1461  0.2692 -0.6210
  144DOPC   H5R17086   1.581   5.197  14.008  0.0801  2.3970  0.6806
  144DOPC   H5S17087   1.702   5.075  14.056 -2.5265 -0.1979 -0.9154
  144DOPC   C2617088   1.780   5.210  13.917 -0.4843 -0.1864 -0.5127
  144DOPC   H6R17089   1.886   5.183  13.934 -0.2438 -0.8739 -2.7798
  144DOPC   H6S17090   1.773   5.318  13.893 -0.6807 -0.0577  0.1039
  144DOPC   C2717091   1.741   5.125  13.799  0.2868  0.0209  0.3841
  144DOPC   H7R17092   1.720   5.027  13.848  0.0887  0.5547  1.3851
  144DOPC   H7S17093   1.825   5.115  13.727  1.2379 -0.2588  1.5129
  144DOPC   C2817094   1.619   5.172  13.717  0.3563 -0.7020  0.0504
  144DOPC   H8R17095   1.525   5.174  13.777  1.1068 -2.2545  1.3619
  144DOPC   H8S17096   1.610   5.085  13.649 -0.6768 -2.4033  2.2249
  144DOPC   C2917097   1.653   5.294  13.634  0.6886 -0.6240  1.1017
  144DOPC   H9R17098   1.752   5.336  13.662  0.1666  0.3651  1.5211
  144DOPC  C21017099   1.593   5.352  13.523 -0.1499  0.5118 -0.2155
  144DOPC  H10R17100   1.628   5.450  13.491  1.7879 -0.3496 -0.8477
  144DOPC  C21117101   1.458   5.305  13.479 -0.7133  0.2450  0.1212
  144DOPC  H11R17102   1.390   5.393  13.477 -1.3028 -0.1586  1.3837
  144DOPC  H11S17103   1.410   5.231  13.546 -0.1153  0.3586  0.6776
  144DOPC  C21217104   1.455   5.245  13.334 -0.1755 -0.2618 -0.3232
  144DOPC  H12R17105   1.350   5.250  13.299  0.4583  0.8505 -2.2362
  144DOPC  H12S17106   1.480   5.136  13.332 -1.2611 -0.5299 -0.1605
  144DOPC  C21317107   1.530   5.328  13.241 -0.0028  0.2752  0.2138
  144DOPC  H13R17108   1.637   5.303  13.255 -0.0564 -1.8404 -2.2875
  144DOPC  H13S17109   1.513   5.438  13.241 -3.0645 -0.0254 -2.5384
  144DOPC  C21417110   1.489   5.297  13.096  0.4542 -0.2256 -0.0553
  144DOPC  H14R17111   1.396   5.356  13.084  0.2588 -0.3199  0.8805
  144DOPC  H14S17112   1.471   5.188  13.085  0.5430 -0.2115 -0.3651
  144DOPC  C21517113   1.602   5.339  13.004 -0.2672 -0.3094  0.5045
  144DOPC  H15R17114   1.675   5.255  13.006 -1.1593 -1.3330 -2.8200
  144DOPC  H15S17115   1.641   5.437  13.038 -1.4933  0.2691  0.2997
  144DOPC  C21617116   1.553   5.341  12.862  0.2983 -0.0226 -0.7738
  144DOPC  H16R17117   1.463   5.406  12.858 -0.5820 -0.9815  1.8411
  144DOPC  H16S17118   1.514   5.242  12.830 -2.2556  1.3183 -2.1356
  144DOPC  C21717119   1.663   5.388  12.766 -0.4706  0.5743 -0.0451
  144DOPC  H17R17120   1.754   5.324  12.771 -1.1406 -0.4452 -0.4505
  144DOPC  H17S17121   1.701   5.487  12.797 -0.7094  0.8933 -0.7402
  144DOPC  C21817122   1.631   5.387  12.616  0.3926 -0.0390  0.3175
  144DOPC  H18R17123   1.606   5.284  12.584  0.4338  1.0562 -3.7234
  144DOPC  H18S17124   1.710   5.426  12.549  0.5491  0.3490  0.7208
  144DOPC  H18T17125   1.544   5.450  12.587 -0.4953 -0.2162  2.4246
  144DOPC   C3317126   2.052   5.825  13.860 -0.1475  0.1143  0.4807
  144DOPC   H3X17127   2.162   5.839  13.848 -0.0036 -2.1079 -1.6846
  144DOPC   H3Y17128   2.013   5.928  13.863  1.6652  0.8398  0.7810
  144DOPC   C3417129   2.017   5.745  13.732 -0.2474 -0.3427  0.2975
  144DOPC   H4X17130   1.912   5.716  13.753  0.4018 -0.3359  4.4925
  144DOPC   H4Y17131   2.074   5.650  13.727 -0.1988 -0.2478 -2.5369
  144DOPC   C3517132   2.043   5.826  13.603  0.1372  0.0383 -0.2129
  144DOPC   H5X17133   2.154   5.829  13.605  0.1508 -0.6502  1.0796
  144DOPC   H5Y17134   1.993   5.925  13.607  2.6035  1.4700 -1.9123
  144DOPC   C3617135   2.001   5.751  13.479  0.5337  0.0172 -0.4757
  144DOPC   H6X17136   2.040   5.647  13.479  1.7693  0.4594  0.4425
  144DOPC   H6Y17137   1.890   5.739  13.475  0.5760 -0.4363 -0.4267
  144DOPC   C3717138   2.051   5.832  13.358 -0.4148 -0.0834  0.9806
  144DOPC   H7X17139   2.006   5.932  13.375 -0.0232 -0.1027  2.2289
  144DOPC   H7Y17140   2.162   5.834  13.353 -0.4198 -1.8569 -2.9850
  144DOPC   C3817141   1.999   5.774  13.221 -0.0902  0.4072  0.3935
  144DOPC   H8X17142   1.888   5.778  13.213 -0.2588  1.3554  2.4530
  144DOPC   H8Y17143   2.025   5.666  13.216 -0.7746  0.2546  0.0512
  144DOPC   C3917144   2.069   5.847  13.111 -0.0130 -0.8924  0.0508
  144DOPC   H9X17145   2.176   5.864  13.132 -0.0943 -1.0471  0.6048
  144DOPC  C31017146   2.017   5.895  12.996  0.4056 -0.0464  0.0714
  144DOPC  H10X17147   2.089   5.947  12.932 -0.6826 -0.5601 -1.6323
  144DOPC  C31117148   1.888   5.854  12.925  0.9624  0.4910 -0.4333
  144DOPC  H11X17149   1.810   5.932  12.934 -0.0193 -0.6482  1.9084
  144DOPC  H11Y17150   1.832   5.769  12.970  1.1251 -0.5502 -2.1224
  144DOPC  C31217151   1.917   5.832  12.778 -0.2083  0.1570  0.1416
  144DOPC  H12X17152   1.945   5.924  12.724  0.1208  0.1581  0.3093
  144DOPC  H12Y17153   1.827   5.796  12.723  0.5078  0.8022 -1.4784
  144DOPC  C31317154   2.024   5.722  12.753 -0.4512  0.2079 -0.0840
  144DOPC  H13X17155   2.122   5.743  12.802 -0.7301 -0.7955  0.9498
  144DOPC  H13Y17156   1.988   5.631  12.806 -2.7877  1.4978  0.6971
  144DOPC  C31417157   2.052   5.707  12.605 -0.1082  0.1510  0.3880
  144DOPC  H14X17158   2.072   5.806  12.560 -2.4301  0.3246 -0.4365
  144DOPC  H14Y17159   2.145   5.647  12.602 -0.8028 -0.9527 -0.4037
  144DOPC  C31517160   1.938   5.658  12.517  0.7952  0.4418  0.0703
  144DOPC  H15X17161   1.863   5.737  12.499 -0.7050 -0.6219  1.3102
  144DOPC  H15Y17162   1.875   5.588  12.576 -1.4948  3.0701  0.9722
  144DOPC  C31617163   1.982   5.610  12.381  0.0580  0.3821 -1.2307
  144DOPC  H16X17164   2.038   5.700  12.350 -0.4137  1.0734 -0.1470
  144DOPC  H16Y17165   2.049   5.523  12.396 -1.1212 -0.2874  0.5625
  144DOPC  C31717166   1.872   5.580  12.281 -1.1416  0.2820 -0.1932
  144DOPC  H17X17167   1.821   5.484  12.302 -0.0177 -0.6490 -1.5104
  144DOPC  H17Y17168   1.800   5.665  12.280  0.6056  1.8220 -0.5020
  144DOPC  C31817169   1.925   5.573  12.137  0.2375  0.4586  0.4452
  144DOPC  H18X17170   1.950   5.672  12.093  0.4426  0.4075  0.4453
  144DOPC  H18Y17171   2.023   5.520  12.141  0.8242  1.5989  1.5313
  144DOPC  H18Z17172   1.851   5.518  12.074  2.4245 -1.0886 -0.9428
  145DOPC     N17173   2.513   0.816  14.391  0.1978 -0.4092  0.4065
  145DOPC   C1217174   2.389   0.768  14.459  0.3648  0.1514  0.3417
  145DOPC  H12A17175   2.402   0.671  14.505  0.3152  1.1559  2.6040
  145DOPC  H12B17176   2.325   0.764  14.372  1.7091  2.6292 -0.8629
  145DOPC   C1317177   2.632   0.794  14.479 -0.3997 -0.3671 -0.1477
  145DOPC  H13A17178   2.617   0.845  14.572 -1.8146 -1.3817  0.2131
  145DOPC  H13B17179   2.664   0.692  14.497  0.2004 -0.1537  0.0086
  145DOPC  H13C17180   2.725   0.829  14.437 -1.3903 -1.5167 -3.6977
  145DOPC   C1417181   2.495   0.961  14.350  0.2155 -0.0151 -0.0976
  145DOPC  H14A17182   2.464   1.011  14.441  0.0842 -1.2577  0.5617
  145DOPC  H14B17183   2.582   1.006  14.304  2.6012 -3.4522  0.6046
  145DOPC  H14C17184   2.415   0.969  14.279  1.0142 -2.2630 -1.3755
  145DOPC   C1517185   2.544   0.741  14.267  0.1205  0.5241 -0.1205
  145DOPC  H15A17186   2.627   0.792  14.220 -0.5757  2.3198  0.5163
  145DOPC  H15B17187   2.460   0.747  14.200 -0.1832  0.2835  0.2390
  145DOPC  H15C17188   2.568   0.637  14.280  2.1859  0.7740 -1.3946
  145DOPC   C1117189   2.315   0.860  14.555 -0.1406 -0.2157 -0.6990
  145DOPC  H11A17190   2.250   0.795  14.617  0.1375 -0.9724 -1.1832
  145DOPC  H11B17191   2.392   0.907  14.620  1.3503 -2.0298 -1.0876
  145DOPC     P17192   2.092   0.919  14.436  0.2210 -0.0289  0.5574
  145DOPC   O1317193   2.031   1.023  14.347 -0.5508  0.0093 -0.3059
  145DOPC   O1417194   2.004   0.874  14.545 -0.4063  0.1457 -0.4105
  145DOPC   O1217195   2.233   0.967  14.491  0.5108  0.3035  0.2832
  145DOPC   O1117196   2.132   0.796  14.347  0.1814  0.1439  0.0046
  145DOPC    C117197   2.030   0.737  14.270  0.8218  0.1698 -0.4549
  145DOPC    HA17198   1.934   0.793  14.274 -0.5408 -2.1134  0.5125
  145DOPC    HB17199   1.994   0.642  14.314 -0.4541  0.4900 -0.7616
  145DOPC    C217200   2.076   0.714  14.129  0.1670  0.1904 -0.6871
  145DOPC    HS17201   2.175   0.664  14.131  0.7180  1.2525 -0.2373
  145DOPC   O2117202   2.076   0.843  14.065  0.4274 -0.4085 -0.1462
  145DOPC   C2117203   2.193   0.908  14.071  0.2642  0.4220  0.2053
  145DOPC   O2217204   2.296   0.857  14.098 -0.2606 -0.2703  0.0465
  145DOPC   C2217205   2.162   1.059  14.035  0.6148  0.4295  0.3817
  145DOPC   H2R17206   2.212   1.111  14.120  1.7280 -1.5251  0.9870
  145DOPC   H2S17207   2.052   1.064  14.045  0.4333 -2.3201  0.5527
  145DOPC    C317208   1.972   0.623  14.045 -0.5259  1.1080 -0.5182
  145DOPC    HX17209   1.864   0.634  14.064 -1.2081 -1.9684 -1.8706
  145DOPC    HY17210   1.997   0.525  14.093  1.9191  1.2396 -1.3624
  145DOPC   O3117211   1.999   0.625  13.901 -0.9946 -0.3114 -0.1012
  145DOPC   C3117212   2.093   0.537  13.858 -0.3853 -0.3959 -0.4548
  145DOPC   O3217213   2.155   0.471  13.939  0.2333  0.0522 -0.1430
  145DOPC   C3217214   2.094   0.519  13.703 -0.6844 -1.1899 -0.0155
  145DOPC   H2X17215   2.180   0.459  13.669 -2.7545 -2.4842 -3.5140
  145DOPC   H2Y17216   2.008   0.454  13.675  1.4820 -2.7800 -3.5905
  145DOPC   C2317217   2.204   1.098  13.886  0.4449 -0.0349 -0.2611
  145DOPC   H3R17218   2.310   1.063  13.878  0.5788  0.6822 -1.9013
  145DOPC   H3S17219   2.188   1.206  13.870  0.7263 -0.1674 -1.5783
  145DOPC   C2417220   2.116   1.025  13.779 -0.8292  0.4345  0.8377
  145DOPC   H4R17221   2.090   0.929  13.830  1.8176  0.0506  1.6273
  145DOPC   H4S17222   2.187   0.994  13.699  2.3255  0.8646  3.2634
  145DOPC   C2517223   2.000   1.102  13.713 -0.0064  0.2628 -0.1929
  145DOPC   H5R17224   1.961   1.166  13.795 -0.5840 -0.7532  0.3428
  145DOPC   H5S17225   1.923   1.023  13.702 -0.4943  0.6755  0.1783
  145DOPC   C2617226   2.028   1.173  13.581 -0.0783 -0.1022 -0.8912
  145DOPC   H6R17227   1.933   1.182  13.524 -1.0220 -0.5253  0.5589
  145DOPC   H6S17228   2.107   1.111  13.532 -0.5645 -1.0851 -0.4524
  145DOPC   C2717229   2.084   1.314  13.588 -0.0985 -0.1523  0.0725
  145DOPC   H7R17230   2.180   1.314  13.643  0.7487  0.9707 -1.3521
  145DOPC   H7S17231   2.013   1.379  13.644 -1.7327 -1.5639 -0.2934
  145DOPC   C2817232   2.105   1.386  13.447 -0.6622  0.4535 -0.9212
  145DOPC   H8R17233   2.142   1.484  13.483 -0.2982  0.0355 -0.1324
  145DOPC   H8S17234   2.013   1.394  13.385  0.1321  0.7039 -2.1114
  145DOPC   C2917235   2.213   1.315  13.376 -0.5463  0.0872 -0.5862
  145DOPC   H9R17236   2.285   1.255  13.432 -1.9524 -0.3690  0.7873
  145DOPC  C21017237   2.228   1.311  13.239 -0.5988 -0.1101  0.6417
  145DOPC  H10R17238   2.297   1.241  13.188 -0.4660  1.8691 -2.1081
  145DOPC  C21117239   2.137   1.384  13.148  0.3749  0.1132  0.5196
  145DOPC  H11R17240   2.168   1.491  13.143 -1.0840  0.5305 -0.1438
  145DOPC  H11S17241   2.035   1.390  13.192  0.2624  1.9852  0.0977
  145DOPC  C21217242   2.121   1.334  13.000  0.2649  0.4113  0.0484
  145DOPC  H12R17243   2.030   1.379  12.955 -0.4449 -0.7703  0.2684
  145DOPC  H12S17244   2.100   1.225  13.006 -0.9102  0.6196  0.0226
  145DOPC  C21317245   2.238   1.358  12.900  0.0620 -0.0371 -1.0995
  145DOPC  H13R17246   2.329   1.311  12.943 -0.4110 -0.2543 -0.3159
  145DOPC  H13S17247   2.258   1.468  12.897  2.5666 -0.3284  1.0490
  145DOPC  C21417248   2.209   1.313  12.756  0.1239 -0.1388  0.1957
  145DOPC  H14R17249   2.148   1.220  12.761 -0.8468  0.4258 -0.6506
  145DOPC  H14S17250   2.307   1.277  12.719 -1.1055 -3.0854 -0.4508
  145DOPC  C21517251   2.159   1.416  12.653 -0.5784  0.7321  0.6247
  145DOPC  H15R17252   2.255   1.464  12.625 -0.4599  0.5178  0.6603
  145DOPC  H15S17253   2.089   1.485  12.705  0.2353  1.2219  1.0888
  145DOPC  C21617254   2.093   1.361  12.519 -0.7099  0.5627  0.2196
  145DOPC  H16R17255   2.057   1.443  12.453 -2.8710  1.8402  2.7987
  145DOPC  H16S17256   2.002   1.304  12.544  0.4180 -1.5285 -0.1851
  145DOPC  C21717257   2.180   1.261  12.444 -0.4757  0.0015  0.1216
  145DOPC  H17R17258   2.126   1.218  12.356  1.5523 -1.0884 -0.6605
  145DOPC  H17S17259   2.210   1.179  12.513 -0.5035 -0.2559 -0.1694
  145DOPC  C21817260   2.314   1.318  12.384  0.4115 -0.1046  0.5322
  145DOPC  H18R17261   2.293   1.401  12.312  1.3934 -0.3217 -0.0330
  145DOPC  H18S17262   2.370   1.241  12.327  1.7884  0.9818  0.3612
  145DOPC  H18T17263   2.373   1.366  12.464 -0.0038  0.5954  0.4254
  145DOPC   C3317264   2.071   0.647  13.627  0.1031 -0.6117 -0.2782
  145DOPC   H3X17265   2.154   0.719  13.648 -1.6884  2.0813 -1.8275
  145DOPC   H3Y17266   1.969   0.684  13.649  0.0564 -0.9356  0.0475
  145DOPC   C3417267   2.068   0.631  13.473 -0.3540 -0.5188  0.2333
  145DOPC   H4X17268   1.981   0.563  13.456  0.7132 -1.5696 -1.3025
  145DOPC   H4Y17269   2.153   0.580  13.422  2.0273  1.4319  1.9705
  145DOPC   C3517270   2.040   0.761  13.401  0.2962  0.1939  1.0411
  145DOPC   H5X17271   2.110   0.844  13.424  2.6440 -1.7737  1.3976
  145DOPC   H5Y17272   1.946   0.801  13.444 -0.7042  0.3372 -1.1719
  145DOPC   C3617273   2.014   0.754  13.245 -0.3972 -0.1489  0.1256
  145DOPC   H6X17274   2.109   0.735  13.191 -1.1465  0.2970 -1.4132
  145DOPC   H6Y17275   1.959   0.661  13.217 -1.0227  0.2313  0.0609
  145DOPC   C3717276   1.943   0.869  13.185 -0.6531 -0.4420  0.4137
  145DOPC   H7X17277   1.845   0.887  13.234 -0.6690 -1.3776  0.7354
  145DOPC   H7Y17278   2.001   0.963  13.196 -2.0170  0.5514 -0.5883
  145DOPC   C3817279   1.918   0.862  13.030 -1.0221 -0.1736  0.1460
  145DOPC   H8X17280   1.863   0.956  13.005  2.2937  1.7891 -0.3597
  145DOPC   H8Y17281   1.852   0.776  13.005 -1.5752 -0.9563  3.7915
  145DOPC   C3917282   2.049   0.859  12.947  0.1855  0.4773  0.2541
  145DOPC   H9X17283   2.141   0.857  13.008  0.7714 -0.2440 -0.6392
  145DOPC  C31017284   2.055   0.863  12.815  0.2460  0.1610  0.2421
  145DOPC  H10X17285   2.152   0.865  12.763  0.2170 -1.7122  0.0613
  145DOPC  C31117286   1.937   0.880  12.714 -0.1155 -0.5775  0.1018
  145DOPC  H11X17287   1.841   0.862  12.768  1.2164 -4.0381  1.6047
  145DOPC  H11Y17288   1.946   0.799  12.639  1.4801 -2.2696  2.0085
  145DOPC  C31217289   1.941   1.015  12.639  0.7532  0.3650 -0.3653
  145DOPC  H12X17290   2.045   1.026  12.601  0.9911  1.5877  0.5756
  145DOPC  H12Y17291   1.931   1.090  12.721 -0.3656 -2.6281  2.4597
  145DOPC  C31317292   1.834   1.026  12.535 -0.3589 -0.4965  0.0123
  145DOPC  H13X17293   1.735   1.016  12.584  0.9944  2.7480  3.8682
  145DOPC  H13Y17294   1.835   1.130  12.495  0.9430 -0.6303 -0.3352
  145DOPC  C31417295   1.839   0.923  12.422  0.1041  0.5373  0.7614
  145DOPC  H14X17296   1.832   0.819  12.459 -0.2265  0.3002  0.0479
  145DOPC  H14Y17297   1.758   0.942  12.349  1.0809 -0.3128 -0.5780
  145DOPC  C31517298   1.965   0.941  12.340  0.4874  0.2004 -0.3209
  145DOPC  H15X17299   2.056   0.914  12.398 -0.6745 -1.1319  0.9761
  145DOPC  H15Y17300   1.981   1.050  12.330 -0.4936  0.2133 -1.9946
  145DOPC  C31617301   1.957   0.886  12.201 -0.3749  0.5244  0.8137
  145DOPC  H16X17302   1.971   0.777  12.218 -2.2092  0.5351  2.8661
  145DOPC  H16Y17303   1.857   0.900  12.155 -0.8345 -0.5573  1.4311
  145DOPC  C31717304   2.072   0.941  12.106  0.7934  0.1100 -0.0447
  145DOPC  H17X17305   2.170   0.917  12.152  0.8931 -1.0695 -0.8497
  145DOPC  H17Y17306   2.062   0.872  12.020  0.7927 -0.2595  0.2483
  145DOPC  C31817307   2.042   1.087  12.059 -0.1500  0.2656  0.6777
  145DOPC  H18X17308   1.931   1.096  12.049 -0.3140  2.9875  3.4410
  145DOPC  H18Y17309   2.061   1.168  12.132  0.1504  1.6366 -0.8786
  145DOPC  H18Z17310   2.101   1.108  11.968 -1.2006  1.6232  0.2696
  146DOPC     N17311   4.016   4.246  14.936 -0.1217 -0.4070 -0.0066
  146DOPC   C1217312   3.936   4.206  14.813  0.2560 -1.0097 -0.0042
  146DOPC  H12A17313   3.991   4.228  14.723 -2.6071  0.0224 -1.6496
  146DOPC  H12B17314   3.845   4.264  14.806 -0.1395 -1.7783 -1.6191
  146DOPC   C1317315   4.046   4.396  14.927  0.0035 -0.0771 -0.1634
  146DOPC  H13A17316   4.113   4.418  14.845  0.6189 -1.5508 -0.0891
  146DOPC  H13B17317   3.957   4.455  14.916  0.8308  1.1260 -0.6025
  146DOPC  H13C17318   4.088   4.432  15.020 -0.0710 -0.5740  0.0654
  146DOPC   C1417319   4.139   4.162  14.947 -1.0732 -1.0853 -0.8756
  146DOPC  H14A17320   4.199   4.175  14.858 -1.1354 -3.4781 -1.3305
  146DOPC  H14B17321   4.198   4.208  15.025  0.6081 -2.3958 -1.3078
  146DOPC  H14C17322   4.114   4.059  14.966 -1.6474 -0.8490 -0.3052
  146DOPC   C1517323   3.935   4.222  15.067 -0.3607 -0.0145  0.4152
  146DOPC  H15A17324   3.852   4.290  15.069 -0.5581 -0.2545  0.3916
  146DOPC  H15B17325   3.990   4.251  15.156  0.4892 -0.7073  0.1355
  146DOPC  H15C17326   3.900   4.122  15.089  0.7424  0.0245  2.7366
  146DOPC   C1117327   3.890   4.063  14.796 -0.6428  0.1244  1.0504
  146DOPC  H11A17328   3.844   4.042  14.696 -2.6231 -1.2923  2.1935
  146DOPC  H11B17329   3.974   3.992  14.809 -0.9737 -0.7513 -1.0634
  146DOPC     P17330   3.639   4.082  14.876 -0.0058 -0.1177 -0.3328
  146DOPC   O1317331   3.645   4.226  14.882 -0.3423  0.1758 -0.4589
  146DOPC   O1417332   3.568   4.013  14.982  0.2107 -0.2819  0.4309
  146DOPC   O1217333   3.796   4.026  14.894  0.4133 -0.1456  0.2437
  146DOPC   O1117334   3.602   4.034  14.731  0.1127  0.4244  0.6563
  146DOPC    C117335   3.535   4.123  14.641 -0.7230 -0.3374 -0.0153
  146DOPC    HA17336   3.582   4.224  14.644 -1.4897  0.0264 -0.0629
  146DOPC    HB17337   3.430   4.144  14.669 -0.6172  0.7740 -0.3763
  146DOPC    C217338   3.552   4.061  14.503  0.0990  0.1922  0.3403
  146DOPC    HS17339   3.496   4.133  14.440 -2.0932 -0.4307  1.4624
  146DOPC   O2117340   3.480   3.934  14.486 -0.8657 -0.5042 -0.1520
  146DOPC   C2117341   3.352   3.950  14.487  0.3743 -0.4534  0.2969
  146DOPC   O2217342   3.287   4.051  14.468  0.0343 -0.8210 -0.2982
  146DOPC   C2217343   3.293   3.804  14.489  0.1897 -0.7828 -0.0025
  146DOPC   H2R17344   3.237   3.801  14.585 -1.8582 -2.0981 -1.1454
  146DOPC   H2S17345   3.378   3.734  14.505  1.3683  0.6015  0.0150
  146DOPC    C317346   3.700   4.038  14.461  0.6777  0.1755  0.4079
  146DOPC    HX17347   3.737   3.958  14.528  2.9603  2.6319  2.2884
  146DOPC    HY17348   3.757   4.130  14.484  2.4333 -0.8617  0.4035
  146DOPC   O3117349   3.703   3.996  14.321 -0.2876 -0.2597 -0.8318
  146DOPC   C3117350   3.763   3.879  14.294  0.5394 -0.8261 -0.1142
  146DOPC   O3217351   3.820   3.810  14.378 -0.0793 -0.4052 -0.0675
  146DOPC   C3217352   3.761   3.845  14.145 -0.2606 -0.2221  0.5152
  146DOPC   H2X17353   3.820   3.752  14.138  1.3419  0.8378 -0.9621
  146DOPC   H2Y17354   3.660   3.828  14.101  0.3285  1.5166 -1.7050
  146DOPC   C2317355   3.201   3.774  14.373 -0.3275  0.4430 -0.1086
  146DOPC   H3R17356   3.177   3.666  14.369 -2.4205  0.9124 -3.0065
  146DOPC   H3S17357   3.256   3.793  14.279 -0.7215  0.1772 -0.3925
  146DOPC   C2417358   3.069   3.847  14.385 -0.8613 -0.3521  0.1963
  146DOPC   H4R17359   3.064   3.954  14.358 -1.8215 -0.4253  0.0444
  146DOPC   H4S17360   3.046   3.843  14.493 -0.7504 -1.5649  0.1944
  146DOPC   C2517361   2.958   3.763  14.312 -0.2882 -0.2152 -0.2395
  146DOPC   H5R17362   2.859   3.813  14.319 -0.4299 -0.4556 -0.4740
  146DOPC   H5S17363   2.942   3.662  14.355  1.5036 -0.7183 -0.6945
  146DOPC   C2617364   2.990   3.729  14.162 -0.5742  0.3842 -0.1061
  146DOPC   H6R17365   3.078   3.663  14.145  0.9538  2.2977  0.0408
  146DOPC   H6S17366   3.015   3.826  14.114  3.5772 -1.4986 -2.2627
  146DOPC   C2717367   2.870   3.670  14.094 -0.3615  0.3764  0.8033
  146DOPC   H7R17368   2.792   3.746  14.072  0.8483  0.6018 -3.8319
  146DOPC   H7S17369   2.830   3.592  14.161 -0.2806 -0.0007  0.4196
  146DOPC   C2817370   2.910   3.591  13.964 -0.5475  0.1545  0.3914
  146DOPC   H8R17371   2.822   3.530  13.932  0.6182 -1.3409 -0.0684
  146DOPC   H8S17372   2.988   3.519  13.995 -0.8654  0.0311  0.9149
  146DOPC   C2917373   2.951   3.679  13.849  0.2361 -0.5111  0.2216
  146DOPC   H9R17374   3.057   3.706  13.861  1.0072 -2.8958 -0.6033
  146DOPC  C21017375   2.879   3.739  13.757  0.4310  0.2463 -0.3157
  146DOPC  H10R17376   2.928   3.802  13.681  0.2531 -1.6448 -2.0877
  146DOPC  C21117377   2.731   3.712  13.732 -0.1847 -0.3305  1.0155
  146DOPC  H11R17378   2.665   3.785  13.782  1.2022  0.9967  0.9754
  146DOPC  H11S17379   2.699   3.611  13.764 -3.1607  0.6966  1.5351
  146DOPC  C21217380   2.694   3.725  13.579  0.2697 -0.2871 -0.1258
  146DOPC  H12R17381   2.697   3.831  13.546 -2.9926 -0.5582 -1.6570
  146DOPC  H12S17382   2.588   3.702  13.556 -0.1790  0.3377  1.2335
  146DOPC  C21317383   2.778   3.635  13.490 -0.2556 -0.9426  0.2387
  146DOPC  H13R17384   2.744   3.531  13.506 -1.0640 -0.5375  1.2249
  146DOPC  H13S17385   2.884   3.642  13.522 -0.9496  0.4080  2.4259
  146DOPC  C21417386   2.765   3.679  13.335 -0.6684  0.2776 -0.5452
  146DOPC  H14R17387   2.825   3.771  13.321  0.4109  0.1306  2.5145
  146DOPC  H14S17388   2.657   3.702  13.324 -0.2348  3.2377  0.6036
  146DOPC  C21517389   2.817   3.561  13.256 -0.8103 -0.3275 -0.3674
  146DOPC  H15R17390   2.756   3.472  13.285 -2.8991  1.6023  1.5181
  146DOPC  H15S17391   2.923   3.538  13.278 -1.1800 -1.1918  0.5927
  146DOPC  C21617392   2.800   3.587  13.102  0.8257 -0.4309 -0.1714
  146DOPC  H16R17393   2.820   3.695  13.085 -0.9533  0.2641  1.7378
  146DOPC  H16S17394   2.695   3.555  13.085  0.5511  0.1635  0.3589
  146DOPC  C21717395   2.887   3.497  13.014  0.5884  0.3976  0.1314
  146DOPC  H17R17396   2.876   3.390  13.043 -0.7178  0.8079  1.2459
  146DOPC  H17S17397   2.994   3.502  13.041  0.9490 -1.0682 -0.8691
  146DOPC  C21817398   2.859   3.497  12.864 -0.1086 -0.3618  0.1324
  146DOPC  H18R17399   2.752   3.500  12.832  0.7570  1.3074 -2.9746
  146DOPC  H18S17400   2.918   3.417  12.816  0.0103 -2.0262  2.8462
  146DOPC  H18T17401   2.894   3.594  12.823 -1.2930 -0.0894 -0.2833
  146DOPC   C3317402   3.834   3.961  14.068 -0.1361 -0.1605 -0.0425
  146DOPC   H3X17403   3.932   3.957  14.120 -0.6283  1.3196  1.0913
  146DOPC   H3Y17404   3.790   4.062  14.085 -0.7360 -0.8792  3.4590
  146DOPC   C3417405   3.834   3.925  13.921 -0.6615 -0.0302 -0.2848
  146DOPC   H4X17406   3.727   3.930  13.892 -0.6581 -0.8951 -0.4759
  146DOPC   H4Y17407   3.878   3.823  13.920  1.8683  0.9881 -0.5918
  146DOPC   C3517408   3.916   4.016  13.819  0.9259 -0.5568 -0.5344
  146DOPC   H5X17409   4.021   4.022  13.855  0.2450  1.8049  1.3748
  146DOPC   H5Y17410   3.892   4.125  13.823  2.1417 -0.3040  1.5959
  146DOPC   C3617411   3.899   3.976  13.672 -0.2680 -0.8182 -0.3680
  146DOPC   H6X17412   3.943   3.875  13.660  1.4047 -0.0093 -1.4330
  146DOPC   H6Y17413   3.792   3.974  13.641 -0.4119 -1.5788  0.1401
  146DOPC   C3717414   3.960   4.067  13.575 -0.5181  0.0356  0.6597
  146DOPC   H7X17415   3.919   4.169  13.590 -1.8787 -0.1294 -1.5258
  146DOPC   H7Y17416   4.069   4.068  13.594 -0.6669 -0.0698  1.5810
  146DOPC   C3817417   3.926   4.030  13.427  0.1962  0.2574 -0.3850
  146DOPC   H8X17418   3.817   4.046  13.411  0.5314  3.3947 -0.0755
  146DOPC   H8Y17419   3.940   3.921  13.410 -0.4360  0.1273 -0.1156
  146DOPC   C3917420   3.987   4.121  13.326 -0.2248 -0.6070  0.5988
  146DOPC   H9X17421   4.096   4.138  13.327 -0.7006  3.8980 -0.7304
  146DOPC  C31017422   3.915   4.177  13.223  0.2324  0.3292  0.2672
  146DOPC  H10X17423   3.958   4.250  13.153  0.2047 -0.2254 -0.3480
  146DOPC  C31117424   3.770   4.145  13.182 -0.2913 -0.1728  0.2202
  146DOPC  H11X17425   3.712   4.217  13.243  1.3411  1.4254 -0.0161
  146DOPC  H11Y17426   3.737   4.041  13.203 -0.6527 -0.1146 -0.0414
  146DOPC  C31217427   3.738   4.183  13.039  0.3894 -0.5051  0.5194
  146DOPC  H12X17428   3.760   4.289  13.017  2.2153 -1.4332 -3.0197
  146DOPC  H12Y17429   3.631   4.160  13.022 -0.7805  4.6434 -0.7031
  146DOPC  C31317430   3.816   4.106  12.938  0.2333  0.3452  0.6854
  146DOPC  H13X17431   3.924   4.134  12.942 -0.2935  2.9279 -0.8213
  146DOPC  H13Y17432   3.811   3.998  12.963 -1.0476  0.5907  1.5617
  146DOPC  C31417433   3.764   4.115  12.790  0.3634 -0.3380 -0.3011
  146DOPC  H14X17434   3.657   4.093  12.809  0.9240 -0.9017  2.7371
  146DOPC  H14Y17435   3.777   4.221  12.759 -0.5049  0.0313  0.5313
  146DOPC  C31517436   3.818   4.006  12.695 -0.3626 -0.2336 -0.8010
  146DOPC  H15X17437   3.765   4.009  12.597 -1.5339 -0.8518 -0.1932
  146DOPC  H15Y17438   3.781   3.906  12.724  0.0396 -0.2567 -0.3530
  146DOPC  C31617439   3.962   4.012  12.663 -0.1384  0.6157  0.0381
  146DOPC  H16X17440   4.018   3.958  12.742 -0.7227 -0.9572 -0.5744
  146DOPC  H16Y17441   3.985   3.965  12.565  0.9976  1.0402  0.0840
  146DOPC  C31717442   4.018   4.151  12.641  0.3569  0.0389 -0.1353
  146DOPC  H17X17443   3.968   4.186  12.548  1.1066 -0.1194 -0.6026
  146DOPC  H17Y17444   3.995   4.237  12.708 -2.3777 -0.2254 -0.6082
  146DOPC  C31817445   4.170   4.150  12.640  0.4647 -0.6508  0.3265
  146DOPC  H18X17446   4.215   4.249  12.618  1.7767 -1.6720 -1.9671
  146DOPC  H18Y17447   4.212   4.106  12.734  0.0260 -0.6558  0.5192
  146DOPC  H18Z17448   4.209   4.080  12.563 -1.3553 -2.7754  1.2442
  147DOPC     N17449   0.928   4.846  14.738 -0.0380 -0.1483  0.8022
  147DOPC   C1217450   0.807   4.892  14.669  0.9719  0.0804  0.3825
  147DOPC  H12A17451   0.792   4.996  14.692  2.3961 -0.0755  2.2669
  147DOPC  H12B17452   0.722   4.840  14.712  0.9316  1.1237  1.6282
  147DOPC   C1317453   0.892   4.850  14.878 -0.1666 -0.1452  0.0533
  147DOPC  H13A17454   0.832   4.768  14.915 -0.8931  1.3802  2.5196
  147DOPC  H13B17455   0.979   4.831  14.939  0.7190 -1.2053 -1.4660
  147DOPC  H13C17456   0.832   4.931  14.915 -0.3139 -0.0346 -0.4157
  147DOPC   C1417457   1.049   4.932  14.711 -0.0482 -0.3022  0.2712
  147DOPC  H14A17458   1.034   5.036  14.738  0.9020 -0.1124  0.0908
  147DOPC  H14B17459   1.136   4.900  14.767 -2.1058  0.4982  4.3048
  147DOPC  H14C17460   1.079   4.934  14.607  0.8677  0.0856  0.5378
  147DOPC   C1517461   0.971   4.707  14.700  0.1066  0.3867 -0.1704
  147DOPC  H15A17462   1.058   4.678  14.757 -1.7501 -0.2638  2.5469
  147DOPC  H15B17463   1.005   4.708  14.598 -0.3290  0.3927 -0.3149
  147DOPC  H15C17464   0.898   4.629  14.716  1.6858 -1.3210 -0.8867
  147DOPC   C1117465   0.799   4.867  14.518  0.4182 -0.7932 -0.2044
  147DOPC  H11A17466   0.722   4.931  14.472  0.3163 -1.3776 -0.8626
  147DOPC  H11B17467   0.895   4.901  14.476  0.7967 -0.2543  1.0373
  147DOPC     P17468   0.629   4.665  14.494 -0.0111 -0.1145 -0.7193
  147DOPC   O1317469   0.580   4.673  14.632  0.4580 -0.1100  0.6661
  147DOPC   O1417470   0.636   4.529  14.435  0.3238 -0.3166  0.2140
  147DOPC   O1217471   0.778   4.733  14.472  0.0847 -0.3000 -0.0018
  147DOPC   O1117472   0.533   4.751  14.411 -1.1111  0.6190  0.8254
  147DOPC    C117473   0.541   4.767  14.270 -0.0754 -0.2938 -0.0274
  147DOPC    HA17474   0.505   4.681  14.210 -1.3899  0.2219  0.0038
  147DOPC    HB17475   0.640   4.797  14.229 -0.5439  2.2305  0.4788
  147DOPC    C217476   0.453   4.891  14.249 -0.6242 -0.1288  1.0152
  147DOPC    HS17477   0.463   4.963  14.333 -0.6004  2.0597 -0.7607
  147DOPC   O2117478   0.315   4.851  14.218  0.4814  0.2902 -0.4125
  147DOPC   C2117479   0.236   4.865  14.330 -0.0730 -0.0958  0.4787
  147DOPC   O2217480   0.280   4.899  14.438 -0.0662  0.0005  0.2017
  147DOPC   C2217481   0.087   4.830  14.291  0.3504  0.1814 -0.4533
  147DOPC   H2R17482   0.058   4.893  14.204  0.6886  2.2889  0.9046
  147DOPC   H2S17483   0.021   4.866  14.372 -1.6580  0.4798 -2.1277
  147DOPC    C317484   0.504   4.973  14.123  0.3937  0.4011 -0.1726
  147DOPC    HX17485   0.436   5.060  14.110  0.9536  0.9662  0.6076
  147DOPC    HY17486   0.491   4.901  14.039  1.4847 -1.0342  0.8251
  147DOPC   O3117487   0.641   5.010  14.133 -0.1280  0.0165  0.6027
  147DOPC   C3117488   0.665   5.135  14.174 -0.6535  0.1926 -0.3980
  147DOPC   O3217489   0.582   5.216  14.197  0.2797  0.3269 -0.6917
  147DOPC   C3217490   0.811   5.167  14.178  0.1941 -0.8906  0.5778
  147DOPC   H2X17491   0.830   5.233  14.266 -1.7957 -1.0195  1.1438
  147DOPC   H2Y17492   0.874   5.075  14.181  0.5781 -0.6486  0.0614
  147DOPC   C2317493   0.068   4.678  14.267  0.3091 -0.2521  0.3341
  147DOPC   H3R17494   0.067   4.622  14.363  0.5632  0.7053  0.8989
  147DOPC   H3S17495   0.158   4.648  14.209 -1.1909 -0.7677 -1.8970
  147DOPC   C2417496  -0.052   4.645  14.166 -0.8923 -0.3405 -0.5418
  147DOPC   H4R17497  -0.142   4.694  14.208 -0.0344  1.1754 -0.3982
  147DOPC   H4S17498  -0.056   4.535  14.154  0.9174 -0.2467 -2.7076
  147DOPC   C2517499  -0.043   4.695  14.020  0.3845 -0.1798  0.7847
  147DOPC   H5R17500   0.051   4.650  13.981 -0.2259 -2.1823  1.5052
  147DOPC   H5S17501  -0.034   4.806  14.016 -0.1498 -0.1647 -0.1428
  147DOPC   C2617502  -0.160   4.664  13.921  0.5975 -0.3588 -1.0044
  147DOPC   H6R17503  -0.165   4.554  13.907 -0.6671 -0.2543 -1.4475
  147DOPC   H6S17504  -0.142   4.706  13.821  2.2539  0.3838 -0.4332
  147DOPC   C2717505  -0.296   4.709  13.970  0.0863 -0.5637  0.2174
  147DOPC   H7R17506  -0.285   4.811  14.012  1.5183 -1.4151  2.0137
  147DOPC   H7S17507  -0.335   4.645  14.052 -2.2947 -0.3268 -0.6554
  147DOPC   C2817508  -0.407   4.700  13.866  0.5396  0.5203 -0.0987
  147DOPC   H8R17509  -0.493   4.725  13.931  2.4079  1.1920  2.2401
  147DOPC   H8S17510  -0.414   4.599  13.819  0.0523  0.6882 -0.3907
  147DOPC   C2917511  -0.415   4.807  13.761 -0.1363  0.0995 -0.2036
  147DOPC   H9R17512  -0.441   4.907  13.799  1.2313  1.1971 -2.0223
  147DOPC  C21017513  -0.376   4.800  13.630 -0.0437  0.5835  0.0039
  147DOPC  H10R17514  -0.356   4.884  13.562  1.0443 -0.4113 -0.9589
  147DOPC  C21117515  -0.301   4.680  13.568  0.4773 -0.7131 -0.5168
  147DOPC  H11R17516  -0.307   4.601  13.646 -1.1675 -0.0923  0.0219
  147DOPC  H11S17517  -0.196   4.710  13.548 -0.0239  0.6799 -1.1620
  147DOPC  C21217518  -0.373   4.625  13.445 -0.1635 -0.1594  0.3143
  147DOPC  H12R17519  -0.480   4.602  13.464  0.2527 -1.5467  1.0973
  147DOPC  H12S17520  -0.327   4.524  13.430  0.0688  0.1396 -1.1306
  147DOPC  C21317521  -0.337   4.686  13.310  0.4354 -0.0032 -0.5050
  147DOPC  H13R17522  -0.236   4.730  13.314  0.4427 -0.0848  0.3074
  147DOPC  H13S17523  -0.409   4.769  13.294 -1.5089 -1.1949  1.3583
  147DOPC  C21417524  -0.344   4.591  13.196  0.5683  0.3432  0.5181
  147DOPC  H14R17525  -0.432   4.525  13.214 -1.8155  3.2546  0.2711
  147DOPC  H14S17526  -0.255   4.525  13.184 -0.4725 -0.6783 -2.5572
  147DOPC  C21517527  -0.359   4.658  13.061  0.2920  0.3611 -0.2103
  147DOPC  H15R17528  -0.269   4.720  13.043 -0.3274  1.2116 -0.4211
  147DOPC  H15S17529  -0.447   4.724  13.042 -1.3268 -0.4558  3.4469
  147DOPC  C21617530  -0.356   4.548  12.956  0.8227  0.1134  0.3098
  147DOPC  H16R17531  -0.453   4.495  12.969 -0.0001  1.0672 -1.5396
  147DOPC  H16S17532  -0.274   4.475  12.972 -0.7476 -1.9071 -0.2663
  147DOPC  C21717533  -0.342   4.602  12.821  0.1402  0.6163 -0.1842
  147DOPC  H17R17534  -0.246   4.656  12.825  0.2293  0.4183  2.8350
  147DOPC  H17S17535  -0.420   4.679  12.803  0.1665  1.2310  1.9781
  147DOPC  C21817536  -0.332   4.492  12.715  0.1393  0.3533 -0.0589
  147DOPC  H18R17537  -0.266   4.412  12.754  1.3341  1.5325  0.4272
  147DOPC  H18S17538  -0.296   4.527  12.616 -0.0361  2.2901  0.5135
  147DOPC  H18T17539  -0.434   4.452  12.698  0.6517  0.5159 -4.5072
  147DOPC   C3317540   0.845   5.256  14.059  0.8981  0.3430  0.1533
  147DOPC   H3X17541   0.948   5.290  14.079  0.0667  1.8926  2.1514
  147DOPC   H3Y17542   0.796   5.354  14.077  1.2234  0.6012 -0.3614
  147DOPC   C3417543   0.821   5.203  13.918 -0.1161  0.1524 -0.9272
  147DOPC   H4X17544   0.713   5.180  13.905 -1.0999  3.3223  0.4981
  147DOPC   H4Y17545   0.881   5.114  13.891  0.7205  0.2388  0.5159
  147DOPC   C3517546   0.867   5.298  13.803  0.4687  0.0262 -0.0453
  147DOPC   H5X17547   0.962   5.346  13.835  0.1038 -0.0302  1.1816
  147DOPC   H5Y17548   0.794   5.382  13.800  2.4524  2.1389  3.4117
  147DOPC   C3617549   0.885   5.229  13.670 -0.2753  0.1640  0.2749
  147DOPC   H6X17550   0.963   5.151  13.684  0.9150  1.0882 -0.9653
  147DOPC   H6Y17551   0.795   5.168  13.648 -0.0972  0.8755 -2.7598
  147DOPC   C3717552   0.925   5.317  13.551  0.3845 -0.2341 -1.1936
  147DOPC   H7X17553   0.872   5.412  13.576 -0.9313 -0.9268 -1.2638
  147DOPC   H7Y17554   1.036   5.326  13.549  0.4153 -0.2250  0.0005
  147DOPC   C3817555   0.862   5.260  13.421  0.1966  0.5704 -0.5392
  147DOPC   H8X17556   0.887   5.334  13.343 -0.0929  1.2412 -0.0140
  147DOPC   H8Y17557   0.751   5.264  13.432  0.0195 -3.0769  0.3818
  147DOPC   C3917558   0.909   5.124  13.384 -0.1175 -0.0413 -0.8544
  147DOPC   H9X17559   0.852   5.048  13.440  0.4330 -0.5939 -1.0342
  147DOPC  C31017560   1.013   5.080  13.312  0.8926 -0.8088  0.0793
  147DOPC  H10X17561   1.020   4.970  13.306 -1.8208 -0.9574 -2.7925
  147DOPC  C31117562   1.112   5.164  13.237 -0.2816  0.1717 -0.2045
  147DOPC  H11X17563   1.214   5.121  13.226  0.9504  1.8279  3.2931
  147DOPC  H11Y17564   1.125   5.266  13.279  1.5932  0.0373 -0.3585
  147DOPC  C31217565   1.056   5.190  13.096  0.6316 -0.2611 -0.3492
  147DOPC  H12X17566   1.121   5.261  13.041 -0.4723  1.5176  0.5819
  147DOPC  H12Y17567   0.957   5.239  13.106  1.0269  0.1525  2.0488
  147DOPC  C31317568   1.039   5.067  13.006  0.9056 -0.2680 -0.1154
  147DOPC  H13X17569   1.137   5.018  12.990  1.3852  0.5342  0.3066
  147DOPC  H13Y17570   0.971   4.997  13.060  3.1779 -1.3141  1.5817
  147DOPC  C31417571   0.981   5.113  12.870 -0.3167 -0.0279 -0.0019
  147DOPC  H14X17572   0.883   5.157  12.900 -1.9058 -1.0439 -3.2437
  147DOPC  H14Y17573   1.041   5.193  12.822  1.3829 -0.9897  0.4584
  147DOPC  C31517574   0.960   4.995  12.774  0.9822 -0.6447 -0.6987
  147DOPC  H15X17575   0.933   4.914  12.844 -0.9707  1.4952  1.2023
  147DOPC  H15Y17576   1.060   4.977  12.729  0.6316  0.1863 -1.8586
  147DOPC  C31617577   0.850   5.031  12.673  1.0658  0.4434 -0.2671
  147DOPC  H16X17578   0.749   5.020  12.718  0.9456  2.5272  0.0970
  147DOPC  H16Y17579   0.865   5.136  12.639  0.6807  0.4192 -0.5290
  147DOPC  C31717580   0.861   4.941  12.547 -0.3997  0.0950 -0.6414
  147DOPC  H17X17581   0.970   4.934  12.529 -0.8033  0.0316 -3.4676
  147DOPC  H17Y17582   0.817   4.842  12.571 -2.9941  0.3088 -3.6917
  147DOPC  C31817583   0.786   4.996  12.426  0.1880  0.1782 -0.5689
  147DOPC  H18X17584   0.683   5.021  12.459 -0.0475 -0.2881 -0.9398
  147DOPC  H18Y17585   0.846   5.085  12.397  0.6856 -0.2421 -0.8662
  147DOPC  H18Z17586   0.768   4.934  12.335  0.2161  0.0999 -0.5213
  148DOPC     N17587   1.762   1.277  14.576  0.1219 -0.5658  0.0272
  148DOPC   C1217588   1.804   1.138  14.523 -0.4857  0.1845 -0.8918
  148DOPC  H12A17589   1.868   1.105  14.604 -0.4357  1.4780 -0.3896
  148DOPC  H12B17590   1.876   1.143  14.443  0.5402 -0.3680 -0.0355
  148DOPC   C1317591   1.876   1.367  14.620 -0.2031  0.3179  0.0647
  148DOPC  H13A17592   1.843   1.467  14.641 -1.6032 -0.3865  1.4369
  148DOPC  H13B17593   1.926   1.327  14.707 -1.1860 -1.4083 -0.1128
  148DOPC  H13C17594   1.955   1.372  14.546  1.2920  0.3861  1.6207
  148DOPC   C1417595   1.657   1.260  14.677  0.5063  0.5659 -0.6084
  148DOPC  H14A17596   1.696   1.237  14.775 -1.5014 -0.5772 -0.0215
  148DOPC  H14B17597   1.591   1.344  14.690 -2.7293 -1.8431 -0.3508
  148DOPC  H14C17598   1.600   1.174  14.644 -0.6518  0.1669  2.1711
  148DOPC   C1517599   1.697   1.340  14.460 -0.5665 -0.0737 -0.4885
  148DOPC  H15A17600   1.670   1.443  14.479 -0.3146 -0.0947 -0.0077
  148DOPC  H15B17601   1.599   1.299  14.439 -1.5850  1.9395  0.0490
  148DOPC  H15C17602   1.766   1.333  14.377  1.2971 -0.5438  1.0254
  148DOPC   C1117603   1.695   1.038  14.491 -0.3937 -0.6890 -0.0655
  148DOPC  H11A17604   1.626   1.075  14.412  2.4443 -1.1970 -3.0026
  148DOPC  H11B17605   1.752   0.959  14.438 -1.3492  0.7596 -3.5354
  148DOPC     P17606   1.532   0.865  14.608  0.1448 -0.4027  0.0654
  148DOPC   O1317607   1.408   0.911  14.669 -0.0340 -0.1455 -0.9803
  148DOPC   O1417608   1.601   0.752  14.676  0.0561  0.5032  0.0704
  148DOPC   O1217609   1.624   0.995  14.606  0.3702  0.5863 -0.1618
  148DOPC   O1117610   1.512   0.836  14.457 -0.9178  0.0431  0.1702
  148DOPC    C117611   1.405   0.888  14.383  0.0458 -0.1365  0.7949
  148DOPC    HA17612   1.410   0.999  14.376 -0.8359 -0.1335 -0.0214
  148DOPC    HB17613   1.309   0.854  14.426  0.3556 -0.4975  1.2022
  148DOPC    C217614   1.404   0.838  14.235  0.0779 -0.4056  0.4856
  148DOPC    HS17615   1.426   0.729  14.234 -4.7375 -1.6218  0.4712
  148DOPC   O2117616   1.498   0.921  14.156 -0.1495  0.3475 -0.1171
  148DOPC   C2117617   1.627   0.870  14.163  0.7817  0.0574  0.0361
  148DOPC   O2217618   1.669   0.768  14.216  0.2153 -0.0189  0.3598
  148DOPC   C2217619   1.717   0.963  14.092 -0.3625  0.0560 -0.2579
  148DOPC   H2R17620   1.801   0.972  14.164  0.1728 -2.2966 -0.5169
  148DOPC   H2S17621   1.678   1.066  14.081  1.0285  0.6627  0.3942
  148DOPC    C317622   1.259   0.858  14.175 -0.5536 -0.4084  0.1011
  148DOPC    HX17623   1.228   0.959  14.210  1.0705 -0.1382  0.8750
  148DOPC    HY17624   1.190   0.779  14.211 -2.8076  0.8366 -1.2521
  148DOPC   O3117625   1.261   0.850  14.033 -0.3861 -0.1624 -0.3054
  148DOPC   C3117626   1.230   0.964  13.972  0.6189  0.4268 -0.2410
  148DOPC   O3217627   1.197   1.072  14.021 -0.6881  0.3140 -0.0700
  148DOPC   C3217628   1.228   0.942  13.832  0.3887 -0.3328  0.5700
  148DOPC   H2X17629   1.315   0.882  13.799 -0.2654 -2.2408  2.1304
  148DOPC   H2Y17630   1.133   0.888  13.811  0.5526 -0.8244  1.0864
  148DOPC   C2317631   1.771   0.913  13.955 -0.1549 -0.1862  0.0623
  148DOPC   H3R17632   1.828   0.817  13.960 -0.7217 -0.6952 -2.2195
  148DOPC   H3S17633   1.841   0.990  13.916 -1.2285  0.6006 -0.3501
  148DOPC   C2417634   1.656   0.901  13.847 -0.5059 -0.2787  0.0634
  148DOPC   H4R17635   1.618   1.002  13.819 -0.6786 -0.5279 -0.6372
  148DOPC   H4S17636   1.571   0.857  13.903  2.7692 -2.2860  3.9617
  148DOPC   C2517637   1.703   0.815  13.737  0.5276 -0.0913  0.1374
  148DOPC   H5R17638   1.734   0.713  13.768 -0.6594 -0.4114  0.3202
  148DOPC   H5S17639   1.790   0.863  13.686  0.3987  0.4853  0.4503
  148DOPC   C2617640   1.593   0.790  13.624 -0.4166 -0.7389  0.7229
  148DOPC   H6R17641   1.541   0.887  13.609  2.1725  0.6415 -0.0210
  148DOPC   H6S17642   1.513   0.725  13.666 -1.4059 -1.1488 -1.6521
  148DOPC   C2717643   1.649   0.730  13.493 -1.1229 -0.2738  0.0884
  148DOPC   H7R17644   1.688   0.628  13.516  0.8680  0.0536 -1.5379
  148DOPC   H7S17645   1.736   0.792  13.462 -0.9192  0.0985  1.3471
  148DOPC   C2817646   1.548   0.718  13.375 -0.3246  0.3270  0.1861
  148DOPC   H8R17647   1.462   0.651  13.397 -1.2482  1.8159  1.3587
  148DOPC   H8S17648   1.612   0.680  13.293  0.9963  0.7392  0.9950
  148DOPC   C2917649   1.506   0.859  13.335  0.6759  0.0833  0.7807
  148DOPC   H9R17650   1.509   0.938  13.411  0.2437  1.1512 -0.2721
  148DOPC  C21017651   1.445   0.887  13.216  0.0367 -0.5770 -0.4037
  148DOPC  H10R17652   1.437   0.995  13.194  1.3100 -0.5491 -0.8097
  148DOPC  C21117653   1.422   0.800  13.101  0.7941 -0.2878  0.4203
  148DOPC  H11R17654   1.313   0.788  13.085  1.1854 -0.7493 -2.6038
  148DOPC  H11S17655   1.457   0.695  13.108  0.6318 -0.5490 -1.7731
  148DOPC  C21217656   1.476   0.863  12.971 -0.3345 -0.1512  0.3059
  148DOPC  H12R17657   1.587   0.857  12.973 -0.3996 -1.5047  1.7724
  148DOPC  H12S17658   1.446   0.969  12.957  1.6368  0.5936  1.3739
  148DOPC  C21317659   1.437   0.788  12.842 -0.5266  0.6579  0.2626
  148DOPC  H13R17660   1.329   0.811  12.838 -0.6763  0.2908  1.5908
  148DOPC  H13S17661   1.453   0.679  12.853  2.3082  0.8192 -1.2871
  148DOPC  C21417662   1.505   0.833  12.720 -0.2781 -0.0741 -0.4810
  148DOPC  H14R17663   1.614   0.812  12.732 -0.5813 -0.9626  0.9880
  148DOPC  H14S17664   1.486   0.941  12.705 -1.0486 -0.4857 -2.8935
  148DOPC  C21517665   1.437   0.762  12.598 -0.5703 -1.1004 -0.0035
  148DOPC  H15R17666   1.340   0.803  12.564 -0.0716  0.8167  0.7708
  148DOPC  H15S17667   1.415   0.661  12.641  0.5733 -1.6027 -0.5441
  148DOPC  C21617668   1.524   0.749  12.470  0.1939 -0.1786 -0.7663
  148DOPC  H16R17669   1.617   0.690  12.491  0.5081  0.3754 -0.5682
  148DOPC  H16S17670   1.546   0.847  12.423  1.8320  0.0163  0.2994
  148DOPC  C21717671   1.462   0.660  12.360  0.8063 -0.0159  0.7434
  148DOPC  H17R17672   1.368   0.701  12.317  1.9880  0.5344 -1.5113
  148DOPC  H17S17673   1.423   0.571  12.414 -0.6385  1.5484  2.3864
  148DOPC  C21817674   1.563   0.623  12.252 -0.5843 -1.1302  0.1705
  148DOPC  H18R17675   1.624   0.710  12.221  0.1560 -2.3348 -1.9075
  148DOPC  H18S17676   1.518   0.581  12.159  1.4193  1.0580 -1.9091
  148DOPC  H18T17677   1.640   0.560  12.300  0.6269  0.3786  0.2726
  148DOPC   C3317678   1.219   1.079  13.744 -0.3615 -0.6051 -0.3862
  148DOPC   H3X17679   1.302   1.148  13.770 -0.6008  0.1932 -1.6209
  148DOPC   H3Y17680   1.127   1.131  13.780 -1.1712 -2.0266 -0.3222
  148DOPC   C3417681   1.214   1.057  13.596 -0.3990 -0.0596 -0.0288
  148DOPC   H4X17682   1.147   0.973  13.569 -1.1992 -0.1548  2.0860
  148DOPC   H4Y17683   1.313   1.027  13.557  0.5316  2.0888  0.5057
  148DOPC   C3517684   1.186   1.189  13.522  0.4610  0.5604 -0.8323
  148DOPC   H5X17685   1.250   1.272  13.560  0.1744  0.4166 -0.0175
  148DOPC   H5Y17686   1.084   1.228  13.545  1.5773  2.8853  0.5902
  148DOPC   C3617687   1.200   1.180  13.372 -0.4980  0.0486  0.1651
  148DOPC   H6X17688   1.182   1.280  13.326  1.5298  0.1055 -0.6019
  148DOPC   H6Y17689   1.306   1.150  13.355 -0.3256  1.0522 -0.6051
  148DOPC   C3717690   1.108   1.087  13.300 -0.0042  0.2703 -0.0162
  148DOPC   H7X17691   1.141   0.983  13.323 -1.4114  0.1819  1.8687
  148DOPC   H7Y17692   1.003   1.107  13.329 -0.5967  1.6981 -2.8433
  148DOPC   C3817693   1.116   1.110  13.144 -0.2890  0.9775  0.1340
  148DOPC   H8X17694   1.221   1.138  13.121 -0.0160 -0.4425 -0.4694
  148DOPC   H8Y17695   1.065   1.203  13.111 -0.0509  0.0628 -3.1038
  148DOPC   C3917696   1.076   0.990  13.065  0.2488 -0.0369 -0.3507
  148DOPC   H9X17697   1.063   0.901  13.129  0.6928  0.5234  0.5521
  148DOPC  C31017698   1.058   0.975  12.931 -0.0479 -0.0478 -0.3206
  148DOPC  H10X17699   1.006   0.889  12.885  0.0864  0.8860 -2.2839
  148DOPC  C31117700   1.095   1.076  12.826 -0.0808 -0.3764  0.4947
  148DOPC  H11X17701   1.194   1.050  12.785 -0.0991  0.0725  0.1545
  148DOPC  H11Y17702   1.092   1.183  12.858  0.1755 -0.5457  1.0940
  148DOPC  C31217703   1.013   1.067  12.692 -0.3418 -0.4981  0.3779
  148DOPC  H12X17704   1.035   1.158  12.632 -1.7056  0.8966  1.9051
  148DOPC  H12Y17705   0.905   1.081  12.715 -0.0278  2.8090  0.3270
  148DOPC  C31317706   1.047   0.933  12.614 -0.2580 -0.3589 -0.4703
  148DOPC  H13X17707   1.158   0.930  12.601 -0.2264 -0.8323 -0.1200
  148DOPC  H13Y17708   1.036   0.850  12.687 -0.3241 -0.9139 -1.1008
  148DOPC  C31417709   0.987   0.921  12.480 -0.2367  0.1454 -0.0553
  148DOPC  H14X17710   0.879   0.945  12.488 -0.6938 -1.7312 -0.2034
  148DOPC  H14Y17711   1.019   0.995  12.403  0.8910 -0.0853  0.1819
  148DOPC  C31517712   1.013   0.786  12.416 -0.1322  0.1623 -0.2091
  148DOPC  H15X17713   0.945   0.708  12.457 -2.3074  2.0899  0.0307
  148DOPC  H15Y17714   1.120   0.764  12.436 -0.0749  0.6664  0.0497
  148DOPC  C31617715   1.007   0.772  12.259  0.2711  0.1827  0.1815
  148DOPC  H16X17716   1.077   0.849  12.219 -1.2808  0.8534 -1.3651
  148DOPC  H16Y17717   1.045   0.671  12.232  0.9780  0.7960 -1.2901
  148DOPC  C31717718   0.863   0.799  12.199  0.2524  1.3611 -0.2532
  148DOPC  H17X17719   0.799   0.738  12.265 -0.3801  2.7548  0.4601
  148DOPC  H17Y17720   0.831   0.900  12.232  0.9771  1.5042  0.0520
  148DOPC  C31817721   0.841   0.772  12.057 -0.1334  0.4740 -0.2047
  148DOPC  H18X17722   0.833   0.663  12.034  0.0402 -0.6676  4.1449
  148DOPC  H18Y17723   0.745   0.817  12.024 -0.8385 -0.4105  0.5613
  148DOPC  H18Z17724   0.918   0.817  11.992 -0.0831 -0.9669 -1.2011
  149DOPC     N17725   0.379   6.224  14.885  0.3937 -0.1814 -0.1208
  149DOPC   C1217726   0.495   6.153  14.955 -0.4323  0.0727  0.4811
  149DOPC  H12A17727   0.494   6.175  15.061  0.7149 -2.4789  1.0935
  149DOPC  H12B17728   0.574   6.207  14.906 -2.8701  1.8546 -1.8147
  149DOPC   C1317729   0.375   6.364  14.932  0.0377  0.0979  0.1093
  149DOPC  H13A17730   0.292   6.420  14.892  2.6895  2.0965 -3.1854
  149DOPC  H13B17731   0.362   6.365  15.039 -2.1910  1.4423 -0.1212
  149DOPC  H13C17732   0.462   6.415  14.892 -0.8229  0.0379 -1.9725
  149DOPC   C1417733   0.251   6.167  14.943 -0.9732  0.0396 -0.0623
  149DOPC  H14A17734   0.244   6.060  14.926 -1.1062 -0.4371  2.5494
  149DOPC  H14B17735   0.256   6.180  15.050  1.6059 -2.5631  0.2789
  149DOPC  H14C17736   0.164   6.214  14.899  0.2939 -0.5605 -3.5045
  149DOPC   C1517737   0.377   6.216  14.735 -0.4002 -0.3999 -0.5280
  149DOPC  H15A17738   0.379   6.120  14.687  1.7075 -0.0445 -1.2772
  149DOPC  H15B17739   0.463   6.266  14.692  0.6370 -0.3130  1.5209
  149DOPC  H15C17740   0.289   6.266  14.697 -1.6744 -2.3025 -0.1928
  149DOPC   C1117741   0.508   6.000  14.924  0.0541 -0.3602 -0.1400
  149DOPC  H11A17742   0.589   5.958  14.987 -1.2866 -1.8529  0.6389
  149DOPC  H11B17743   0.423   5.936  14.953 -0.0783 -0.8120 -1.4319
  149DOPC     P17744   0.674   6.018  14.726 -0.1187  0.0510 -0.2639
  149DOPC   O1317745   0.778   6.011  14.827 -0.4950  0.0913  0.0931
  149DOPC   O1417746   0.646   6.145  14.659  0.0724 -0.3691  0.3065
  149DOPC   O1217747   0.535   5.978  14.788 -0.2025 -0.9562  0.1773
  149DOPC   O1117748   0.686   5.884  14.632 -0.0487  0.2433  0.4425
  149DOPC    C117749   0.634   5.880  14.495 -0.3003  0.2700 -0.5454
  149DOPC    HA17750   0.672   5.966  14.436 -0.7663  0.0339 -1.1960
  149DOPC    HB17751   0.523   5.884  14.491 -0.3489  0.8582  0.8950
  149DOPC    C217752   0.670   5.747  14.419 -0.5872 -0.8912  0.0808
  149DOPC    HS17753   0.757   5.708  14.476 -0.9157 -0.4737  0.8681
  149DOPC   O2117754   0.724   5.780  14.292  0.3183 -0.4533  0.2177
  149DOPC   C2117755   0.798   5.690  14.228 -0.7968  0.5177  0.9863
  149DOPC   O2217756   0.819   5.579  14.270 -0.4739 -0.9362 -0.1371
  149DOPC   C2217757   0.821   5.744  14.083 -0.6254 -0.0052  0.2229
  149DOPC   H2R17758   0.862   5.846  14.096  0.4956 -0.4743  0.5212
  149DOPC   H2S17759   0.719   5.760  14.041 -0.2621  0.2150 -0.5912
  149DOPC    C317760   0.559   5.650  14.410  0.3472  0.0108  0.2324
  149DOPC    HX17761   0.519   5.635  14.512 -1.1753 -0.1954 -0.3654
  149DOPC    HY17762   0.606   5.557  14.372  2.0913  2.1308 -3.3675
  149DOPC   O3117763   0.467   5.701  14.311  0.1511 -0.1394  0.6574
  149DOPC   C3117764   0.361   5.624  14.309 -0.6696  0.3533  0.9795
  149DOPC   O3217765   0.351   5.520  14.370 -0.7332  0.5505  0.2771
  149DOPC   C3217766   0.251   5.673  14.208 -0.2008 -0.0258  0.1184
  149DOPC   H2X17767   0.190   5.755  14.251 -1.4131 -0.3494 -0.9427
  149DOPC   H2Y17768   0.307   5.702  14.116  1.5158 -1.5560  0.6183
  149DOPC   C2317769   0.909   5.648  13.988 -0.1939  0.5957 -0.6607
  149DOPC   H3R17770   0.856   5.554  13.963  0.8533 -0.1494 -0.1422
  149DOPC   H3S17771   0.997   5.620  14.050 -1.4622  1.7709  1.8320
  149DOPC   C2417772   0.956   5.728  13.865 -0.8786 -0.3812 -0.0162
  149DOPC   H4R17773   1.027   5.808  13.895 -1.0003 -0.0299 -0.6303
  149DOPC   H4S17774   0.860   5.780  13.845 -1.2645 -0.8708  0.5396
  149DOPC   C2517775   1.015   5.645  13.747 -0.3472  0.4060  0.2162
  149DOPC   H5R17776   0.938   5.574  13.709 -1.4390  2.3256 -1.3109
  149DOPC   H5S17777   1.096   5.584  13.793  0.6151  1.6698  0.2525
  149DOPC   C2617778   1.048   5.728  13.627  0.2312  0.0826  0.0389
  149DOPC   H6R17779   1.151   5.768  13.643 -0.4145  1.6177  0.5727
  149DOPC   H6S17780   0.983   5.818  13.620  0.8691  0.5229 -0.3795
  149DOPC   C2717781   1.055   5.632  13.504 -0.3536  0.1093 -0.3774
  149DOPC   H7R17782   0.954   5.609  13.466 -1.1221 -0.8196  2.0091
  149DOPC   H7S17783   1.097   5.538  13.547 -0.6022  0.7193  1.2609
  149DOPC   C2817784   1.153   5.680  13.402 -0.2549 -0.0414  0.0404
  149DOPC   H8R17785   1.247   5.707  13.453  0.0558 -1.1039  0.0673
  149DOPC   H8S17786   1.113   5.771  13.353  1.4162  1.2996  1.0918
  149DOPC   C2917787   1.176   5.557  13.316  0.8748  0.2192  0.1444
  149DOPC   H9R17788   1.221   5.472  13.368  0.1242  0.0841  0.5923
  149DOPC  C21017789   1.132   5.545  13.188  0.0663  0.0597  0.2116
  149DOPC  H10R17790   1.137   5.446  13.141 -2.4845 -0.7560  1.4825
  149DOPC  C21117791   1.049   5.653  13.115 -0.3120  0.1480 -0.1642
  149DOPC  H11R17792   1.059   5.756  13.154 -2.8785  0.8445 -1.1408
  149DOPC  H11S17793   0.945   5.626  13.143  0.2613 -1.7235  0.3280
  149DOPC  C21217794   1.076   5.655  12.966 -0.1189 -0.6610 -0.5023
  149DOPC  H12R17795   1.176   5.698  12.940 -1.5253  1.0109 -3.7791
  149DOPC  H12S17796   0.999   5.711  12.909  0.5054  0.7169 -0.0406
  149DOPC  C21317797   1.064   5.521  12.893  0.0807 -0.3207  0.0078
  149DOPC  H13R17798   0.962   5.478  12.902 -0.3346  0.6361 -0.0438
  149DOPC  H13S17799   1.145   5.448  12.916 -0.2174  0.0457  2.4810
  149DOPC  C21417800   1.091   5.546  12.743  0.4036  0.8462 -0.1759
  149DOPC  H14R17801   1.189   5.597  12.730  1.1281 -0.0388  1.5796
  149DOPC  H14S17802   1.008   5.602  12.695  0.2069  0.2674 -0.5186
  149DOPC  C21517803   1.112   5.421  12.649  0.0464 -0.0222  0.1586
  149DOPC  H15R17804   1.008   5.387  12.630 -0.0672  1.1562 -1.6088
  149DOPC  H15S17805   1.155   5.342  12.714  0.6003 -1.1617 -1.5281
  149DOPC  C21617806   1.204   5.433  12.528 -0.4496 -0.6533 -0.0736
  149DOPC  H16R17807   1.308   5.433  12.566 -0.3609  0.6087 -0.2780
  149DOPC  H16S17808   1.198   5.529  12.472  0.8855 -1.1648 -1.1590
  149DOPC  C21717809   1.207   5.304  12.446 -0.1893  0.3741 -0.3847
  149DOPC  H17R17810   1.100   5.289  12.421  0.0716 -1.6987 -0.4165
  149DOPC  H17S17811   1.235   5.224  12.519  0.5692  0.7779 -0.2289
  149DOPC  C21817812   1.295   5.306  12.323  0.2495  0.0025 -0.1874
  149DOPC  H18R17813   1.308   5.206  12.277 -0.2441  0.0275 -0.3854
  149DOPC  H18S17814   1.393   5.350  12.351 -0.0482 -0.3578  1.5409
  149DOPC  H18T17815   1.255   5.378  12.249  0.4980 -0.1024 -0.4250
  149DOPC   C3317816   0.164   5.553  14.181  0.2601  0.0987 -0.9536
  149DOPC   H3X17817   0.102   5.533  14.271 -0.3801 -0.9572 -1.6028
  149DOPC   H3Y17818   0.217   5.462  14.145 -0.0312  0.9124 -3.6870
  149DOPC   C3417819   0.076   5.588  14.057  0.1898 -0.5353  0.1621
  149DOPC   H4X17820   0.138   5.622  13.971 -0.1095  1.6690  0.7773
  149DOPC   H4Y17821   0.007   5.670  14.083 -0.8319 -0.9845 -1.0175
  149DOPC   C3517822  -0.014   5.472  14.022  1.0007  0.2720 -0.3489
  149DOPC   H5X17823  -0.046   5.412  14.109 -0.0029 -1.3659 -1.7921
  149DOPC   H5Y17824   0.024   5.403  13.944  0.5584 -0.3692  0.0038
  149DOPC   C3617825  -0.148   5.515  13.954 -0.8442  0.3833 -0.2161
  149DOPC   H6X17826  -0.227   5.438  13.968 -0.5121  0.4687  2.7947
  149DOPC   H6Y17827  -0.175   5.600  14.021  1.6532 -0.2402  1.7156
  149DOPC   C3717828  -0.140   5.544  13.804 -0.4072 -1.2339 -0.2147
  149DOPC   H7X17829  -0.235   5.599  13.786  0.3056  0.8344  1.8168
  149DOPC   H7Y17830  -0.073   5.629  13.778 -1.0320 -1.0778 -1.3994
  149DOPC   C3817831  -0.102   5.425  13.712 -0.9768 -0.3711 -0.2847
  149DOPC   H8X17832  -0.183   5.350  13.726 -0.3505 -1.2095 -1.0901
  149DOPC   H8Y17833  -0.009   5.376  13.746 -0.5878  1.4411  1.4544
  149DOPC   C3917834  -0.091   5.465  13.561  0.0525 -0.2962  0.5554
  149DOPC   H9X17835   0.001   5.524  13.542 -0.2070 -0.4773 -1.5341
  149DOPC  C31017836  -0.175   5.437  13.464  0.2254 -0.2343 -0.8452
  149DOPC  H10X17837  -0.147   5.460  13.359  0.2652  2.5602 -0.2920
  149DOPC  C31117838  -0.301   5.364  13.484 -0.2328  0.0259 -0.7307
  149DOPC  H11X17839  -0.379   5.441  13.501 -1.3248 -1.4393  1.3224
  149DOPC  H11Y17840  -0.304   5.300  13.575 -1.8883 -0.3619 -1.0187
  149DOPC  C31217841  -0.329   5.263  13.370  0.7777  0.1716  0.3703
  149DOPC  H12X17842  -0.401   5.189  13.412  0.3777  1.3000  1.7163
  149DOPC  H12Y17843  -0.242   5.206  13.331  0.5810  1.5381 -2.2860
  149DOPC  C31317844  -0.402   5.325  13.249 -0.5714 -0.1487 -0.0720
  149DOPC  H13X17845  -0.493   5.386  13.267 -1.3085 -1.0704 -0.5671
  149DOPC  H13Y17846  -0.335   5.395  13.196 -2.2377  1.4833 -0.1027
  149DOPC  C31417847  -0.449   5.212  13.149 -0.0490  0.5051  0.3743
  149DOPC  H14X17848  -0.514   5.142  13.205  0.5934 -0.8759 -0.5327
  149DOPC  H14Y17849  -0.513   5.259  13.071  0.4727 -0.0582 -0.4063
  149DOPC  C31517850  -0.336   5.148  13.071  0.5365 -0.3289  0.2684
  149DOPC  H15X17851  -0.260   5.102  13.137  0.5593 -0.7998 -0.0744
  149DOPC  H15Y17852  -0.285   5.231  13.018 -2.0675 -0.0699 -2.0848
  149DOPC  C31617853  -0.382   5.050  12.957 -0.5049 -0.7294 -0.4896
  149DOPC  H16X17854  -0.432   4.966  13.011 -1.0515  0.5524  1.0770
  149DOPC  H16Y17855  -0.454   5.106  12.894 -2.7321 -1.4596  1.2906
  149DOPC  C31717856  -0.263   5.008  12.867  0.2214  0.3477  0.4192
  149DOPC  H17X17857  -0.189   5.089  12.848 -1.4591  1.8365  0.0067
  149DOPC  H17Y17858  -0.206   4.933  12.926  0.8034  0.7339  0.3527
  149DOPC  C31817859  -0.313   4.950  12.736  0.1316  0.5949  0.6155
  149DOPC  H18X17860  -0.227   4.932  12.667  0.7812  1.8808  1.0671
  149DOPC  H18Y17861  -0.381   4.862  12.740  0.2205  0.5253  0.5990
  149DOPC  H18Z17862  -0.380   5.028  12.694 -2.4282 -1.7437  0.0508
  150DOPC     N17863   2.463   0.192  14.998  0.5729 -0.1348  0.1462
  150DOPC   C1217864   2.513   0.272  14.882 -0.5099  0.0230  0.3763
  150DOPC  H12A17865   2.521   0.375  14.911 -1.1950 -0.1701  1.3072
  150DOPC  H12B17866   2.437   0.262  14.805 -1.9506  0.4223  1.6872
  150DOPC   C1317867   2.332   0.244  15.045 -0.2562  0.2196 -0.2662
  150DOPC  H13A17868   2.294   0.205  15.138  0.9974  0.2944  0.2980
  150DOPC  H13B17869   2.339   0.352  15.041  3.3924  0.0921 -1.1299
  150DOPC  H13C17870   2.265   0.227  14.962 -0.3104 -0.9576  0.0033
  150DOPC   C1417871   2.558   0.201  15.120 -0.1714 -0.1105 -0.0220
  150DOPC  H14A17872   2.535   0.130  15.199  0.1111  0.5616  0.6728
  150DOPC  H14B17873   2.662   0.188  15.096  0.9364  2.5081  2.7854
  150DOPC  H14C17874   2.550   0.302  15.156 -1.1282 -0.2548  0.2016
  150DOPC   C1517875   2.449   0.045  14.958  0.1621  0.0850  0.9052
  150DOPC  H15A17876   2.537   0.008  14.909  0.8364 -0.9583  2.7919
  150DOPC  H15B17877   2.372   0.032  14.883  1.0058 -0.5474  0.1363
  150DOPC  H15C17878   2.436  -0.028  15.036  1.2020 -1.3762 -0.2318
  150DOPC   C1117879   2.646   0.230  14.812  0.1121 -0.0510 -0.1189
  150DOPC  H11A17880   2.669   0.313  14.741 -1.5089  0.6181  0.1074
  150DOPC  H11B17881   2.729   0.213  14.884  0.8325 -0.1042 -0.9433
  150DOPC     P17882   2.747   0.005  14.728  0.0574 -0.0547  0.3354
  150DOPC   O1317883   2.716  -0.105  14.634 -0.0932  0.1921 -0.5244
  150DOPC   O1417884   2.782  -0.028  14.871 -0.0473 -0.2176  0.1268
  150DOPC   O1217885   2.625   0.106  14.738  0.4039  0.5306  0.4749
  150DOPC   O1117886   2.868   0.086  14.665 -0.4503  0.5190  0.4446
  150DOPC    C117887   2.855   0.174  14.548 -0.2556 -0.2138  0.0082
  150DOPC    HA17888   2.937   0.247  14.562 -1.3376  1.3313 -1.3935
  150DOPC    HB17889   2.769   0.239  14.573 -0.4786 -0.5905  0.2467
  150DOPC    C217890   2.845   0.108  14.411 -0.3161  0.0744 -0.1191
  150DOPC    HS17891   2.772   0.024  14.413 -3.0401  2.2364 -1.1512
  150DOPC   O2117892   2.981   0.070  14.385 -0.2739  0.7457 -0.0916
  150DOPC   C2117893   3.001  -0.040  14.309 -0.8269  0.3580 -0.8553
  150DOPC   O2217894   2.912  -0.116  14.273  0.1219 -0.4442  0.1379
  150DOPC   C2217895   3.150  -0.056  14.272  0.0240 -0.0010 -0.0632
  150DOPC   H2R17896   3.211  -0.091  14.358 -1.3623 -1.2094  0.4676
  150DOPC   H2S17897   3.184   0.045  14.241 -0.0914  0.0569  0.0025
  150DOPC    C317898   2.802   0.209  14.295  0.0443 -0.5205 -0.8439
  150DOPC    HX17899   2.861   0.302  14.308  1.3621 -1.2134 -1.5730
  150DOPC    HY17900   2.700   0.236  14.328  0.3361 -0.2880 -0.1072
  150DOPC   O3117901   2.820   0.164  14.158 -0.2240 -0.7801  0.4321
  150DOPC   C3117902   2.711   0.084  14.121 -0.5388 -0.8191  0.1696
  150DOPC   O3217903   2.629   0.053  14.205  0.4616  0.2738  0.2763
  150DOPC   C3217904   2.711   0.027  13.982 -0.5199  0.6002 -0.0856
  150DOPC   H2X17905   2.699   0.104  13.902  0.6327 -1.2862 -2.2005
  150DOPC   H2Y17906   2.811  -0.019  13.969 -2.1924 -2.9916 -1.6154
  150DOPC   C2317907   3.175  -0.156  14.159 -0.7953  0.2702 -0.3804
  150DOPC   H3R17908   3.155  -0.258  14.198  1.8894  0.6960  2.6141
  150DOPC   H3S17909   3.285  -0.160  14.148 -0.8763  0.7753 -1.5211
  150DOPC   C2417910   3.112  -0.127  14.025 -0.4032 -0.3330  0.3089
  150DOPC   H4R17911   3.157  -0.034  13.984 -1.9788  0.6453  0.6881
  150DOPC   H4S17912   3.003  -0.108  14.038 -0.3788  0.9468 -1.0252
  150DOPC   C2517913   3.148  -0.240  13.929  0.2713  0.2998  0.4975
  150DOPC   H5R17914   3.095  -0.336  13.945 -0.5945  0.6019 -0.4759
  150DOPC   H5S17915   3.256  -0.266  13.937  0.0562 -0.8232 -0.1874
  150DOPC   C2617916   3.125  -0.216  13.778 -0.5294  0.6831 -0.4683
  150DOPC   H6R17917   3.184  -0.283  13.711 -1.2489  0.9826 -1.4213
  150DOPC   H6S17918   3.154  -0.109  13.767 -1.7239  1.0443 -0.2709
  150DOPC   C2717919   2.988  -0.217  13.719  0.2871  0.0564 -1.0877
  150DOPC   H7R17920   2.925  -0.157  13.788  1.2555 -1.7518  1.5460
  150DOPC   H7S17921   2.931  -0.312  13.727  0.9849 -0.2285  1.1366
  150DOPC   C2817922   2.978  -0.159  13.576 -1.1775 -0.1516 -0.1938
  150DOPC   H8R17923   2.990  -0.049  13.586  0.7482 -0.3382 -0.2397
  150DOPC   H8S17924   2.880  -0.188  13.531  1.0353 -2.8219 -3.8449
  150DOPC   C2917925   3.072  -0.208  13.470 -0.0286  0.3973 -1.1484
  150DOPC   H9R17926   3.169  -0.242  13.511  0.7328  2.9825 -0.6407
  150DOPC  C21017927   3.067  -0.197  13.340  1.0227 -0.1326  0.2796
  150DOPC  H10R17928   3.142  -0.254  13.283  2.6303  2.2133 -0.0739
  150DOPC  C21117929   2.961  -0.123  13.268  0.1043  0.7788 -0.1556
  150DOPC  H11R17930   2.943  -0.017  13.296 -0.6546 -0.1869  3.5327
  150DOPC  H11S17931   2.870  -0.184  13.287  0.8048  0.0851  1.0756
  150DOPC  C21217932   2.968  -0.127  13.108  0.1594  0.3998 -0.3882
  150DOPC  H12R17933   3.055  -0.064  13.081  0.8407  0.8905  2.5599
  150DOPC  H12S17934   2.884  -0.066  13.068 -1.2533 -2.4996 -2.1871
  150DOPC  C21317935   2.977  -0.269  13.045 -0.9167 -0.2091 -0.9192
  150DOPC  H13R17936   2.904  -0.335  13.097 -1.5230  1.9846  1.2218
  150DOPC  H13S17937   3.082  -0.303  13.057 -0.5873  0.8614 -0.6222
  150DOPC  C21417938   2.937  -0.277  12.895  0.0229  0.1138  0.8095
  150DOPC  H14R17939   2.827  -0.265  12.884  0.1998  0.6306 -0.7069
  150DOPC  H14S17940   2.970  -0.375  12.855 -0.3447  0.0909  0.5513
  150DOPC  C21517941   3.009  -0.171  12.807  0.0747  0.1132 -0.1858
  150DOPC  H15R17942   3.118  -0.169  12.829  0.0915  0.8560 -0.3186
  150DOPC  H15S17943   2.959  -0.075  12.833 -0.2038 -0.5700  2.0175
  150DOPC  C21617944   2.995  -0.206  12.659 -0.4292  0.0531  0.0323
  150DOPC  H16R17945   3.032  -0.126  12.591 -0.8387 -0.8306 -1.2579
  150DOPC  H16S17946   2.887  -0.218  12.634 -0.1605 -1.5380 -0.4292
  150DOPC  C21717947   3.080  -0.323  12.618  0.7101 -0.1716 -1.0957
  150DOPC  H17R17948   3.044  -0.425  12.644 -0.4772  0.1219 -1.5217
  150DOPC  H17S17949   3.181  -0.314  12.663  1.2865 -0.8267 -2.2202
  150DOPC  C21817950   3.090  -0.319  12.469  0.0375  0.3691  0.4790
  150DOPC  H18R17951   3.148  -0.405  12.430  1.0362  1.0830  0.3253
  150DOPC  H18S17952   3.155  -0.232  12.441 -0.1184  1.1140  2.3334
  150DOPC  H18T17953   2.993  -0.314  12.416  0.3542 -1.4958 -0.3278
  150DOPC   C3317954   2.607  -0.084  13.966 -0.4031 -0.1975 -0.3689
  150DOPC   H3X17955   2.505  -0.049  13.996 -0.3169 -0.5428  0.3579
  150DOPC   H3Y17956   2.627  -0.161  14.044 -2.7251 -0.4782  0.0315
  150DOPC   C3417957   2.580  -0.127  13.818  0.1758  0.5945 -0.0312
  150DOPC   H4X17958   2.528  -0.226  13.820  0.6307  0.3438  2.0186
  150DOPC   H4Y17959   2.679  -0.145  13.770  0.3718  1.4167  0.0583
  150DOPC   C3517960   2.495  -0.033  13.735  0.0754 -0.3035 -0.7867
  150DOPC   H5X17961   2.542   0.067  13.729  0.5114 -0.3317  1.2632
  150DOPC   H5Y17962   2.399  -0.031  13.791  0.6630 -2.8362  0.4823
  150DOPC   C3617963   2.471  -0.083  13.593 -0.6861  0.5017  0.3637
  150DOPC   H6X17964   2.565  -0.090  13.535 -0.9100 -0.6300  0.1298
  150DOPC   H6Y17965   2.420  -0.181  13.590  0.7797 -0.3842  2.3583
  150DOPC   C3717966   2.390   0.014  13.506 -0.0758 -0.4691  0.3177
  150DOPC   H7X17967   2.284   0.014  13.541 -1.1693  1.7495 -2.6035
  150DOPC   H7Y17968   2.439   0.113  13.515  2.2686 -1.5899  0.7161
  150DOPC   C3817969   2.388  -0.020  13.356  0.5888  0.1824 -0.0062
  150DOPC   H8X17970   2.316   0.055  13.316  0.6314 -0.5505 -1.5235
  150DOPC   H8Y17971   2.340  -0.120  13.346 -0.0091  0.5232 -0.6558
  150DOPC   C3917972   2.512  -0.009  13.270 -0.4346  0.2239 -0.0040
  150DOPC   H9X17973   2.598   0.011  13.336  0.1336 -2.3153  0.1171
  150DOPC  C31017974   2.527  -0.026  13.131  0.1329 -0.6625  0.7352
  150DOPC  H10X17975   2.624  -0.006  13.083  0.2220 -1.4650  0.5705
  150DOPC  C31117976   2.421  -0.071  13.036  0.0871 -0.0347  0.5230
  150DOPC  H11X17977   2.381   0.010  12.972  0.7408 -0.7162 -0.7897
  150DOPC  H11Y17978   2.331  -0.094  13.097 -0.2153 -0.0331  0.0789
  150DOPC  C31217979   2.448  -0.185  12.933  0.1358 -0.1389 -0.2153
  150DOPC  H12X17980   2.354  -0.224  12.890  0.5411  1.0861 -2.3407
  150DOPC  H12Y17981   2.496  -0.264  12.995  0.7912  1.1636  1.0052
  150DOPC  C31317982   2.554  -0.139  12.825  0.3500  0.8760 -1.2544
  150DOPC  H13X17983   2.638  -0.089  12.877  1.9875 -0.8762 -2.1246
  150DOPC  H13Y17984   2.589  -0.227  12.767  0.8022  0.3658 -0.2308
  150DOPC  C31417985   2.478  -0.046  12.731  0.4799 -0.4967  1.2247
  150DOPC  H14X17986   2.399  -0.111  12.688 -1.5643  1.5750  1.6713
  150DOPC  H14Y17987   2.440   0.042  12.786  1.2667  0.5745  0.1096
  150DOPC  C31517988   2.574   0.016  12.627 -0.5561 -0.0658 -0.0470
  150DOPC  H15X17989   2.659   0.068  12.676  0.3955 -0.2125 -1.4961
  150DOPC  H15Y17990   2.515   0.091  12.571  0.0703  0.9559  0.6316
  150DOPC  C31617991   2.629  -0.084  12.527 -0.9451 -0.4985 -0.2099
  150DOPC  H16X17992   2.680  -0.165  12.582 -0.3825 -1.2819 -1.8322
  150DOPC  H16Y17993   2.548  -0.121  12.461 -1.0964  0.6231 -0.6874
  150DOPC  C31717994   2.724  -0.019  12.418 -0.5784  0.3457  0.3397
  150DOPC  H17X17995   2.682   0.077  12.382  1.4203  3.1636  4.7065
  150DOPC  H17Y17996   2.820   0.003  12.468 -0.5227 -2.3005  1.5795
  150DOPC  C31817997   2.749  -0.116  12.299  0.1442 -0.3777 -0.2929
  150DOPC  H18X17998   2.743  -0.221  12.335 -1.7744  0.1206  1.0008
  150DOPC  H18Y17999   2.657  -0.107  12.238  0.6371 -1.3497 -1.2123
  150DOPC  H18Z18000   2.843  -0.100  12.241  1.4868  0.2288  1.9168
  151DOPC     N18001   1.267   6.660  14.680 -0.2298  0.1151 -0.4950
  151DOPC   C1218002   1.143   6.625  14.611  0.8227 -0.1037 -0.3134
  151DOPC  H12A18003   1.091   6.701  14.555  0.4621  0.8156  1.2128
  151DOPC  H12B18004   1.070   6.592  14.684  0.9758 -0.6996 -0.4241
  151DOPC   C1318005   1.308   6.549  14.780  0.2068 -0.1692 -0.0744
  151DOPC  H13A18006   1.413   6.551  14.803  0.2720 -0.7167 -0.3153
  151DOPC  H13B18007   1.260   6.571  14.874  0.9275  0.6943  0.1035
  151DOPC  H13C18008   1.288   6.445  14.757  1.4655 -0.3973 -0.2067
  151DOPC   C1418009   1.249   6.782  14.759 -0.4540  0.4771 -0.0548
  151DOPC  H14A18010   1.210   6.864  14.702  2.0943 -0.2371 -3.1129
  151DOPC  H14B18011   1.166   6.772  14.827 -0.4759  0.9333 -0.0139
  151DOPC  H14C18012   1.335   6.808  14.818 -1.0546 -0.1450  1.1297
  151DOPC   C1518013   1.373   6.685  14.577  0.0723  0.3280  0.5897
  151DOPC  H15A18014   1.336   6.759  14.507  2.1121  1.1694  0.3127
  151DOPC  H15B18015   1.406   6.601  14.517 -0.9995 -0.7041  1.3988
  151DOPC  H15C18016   1.460   6.736  14.616 -0.4815  1.3443  0.5184
  151DOPC   C1118017   1.142   6.507  14.513  0.3568  0.4259  0.6912
  151DOPC  H11A18018   1.049   6.514  14.453  0.4012  0.1270  0.5888
  151DOPC  H11B18019   1.225   6.518  14.441  0.3351  0.9619  0.7466
  151DOPC     P18020   1.054   6.287  14.627  0.4143  0.2304 -0.1281
  151DOPC   O1318021   0.955   6.363  14.703  0.3218 -0.3233  0.0020
  151DOPC   O1418022   1.116   6.182  14.708  0.1412  0.2745  0.1627
  151DOPC   O1218023   1.159   6.388  14.587  0.5656 -0.3885 -0.2121
  151DOPC   O1118024   0.999   6.236  14.486  0.0641 -0.4641  0.0645
  151DOPC    C118025   1.095   6.204  14.386 -0.0857  0.3423  0.3013
  151DOPC    HA18026   1.129   6.100  14.407  1.3862  0.9836  1.2625
  151DOPC    HB18027   1.175   6.278  14.365 -1.6391  1.6963 -1.1062
  151DOPC    C218028   1.020   6.203  14.251 -1.0458  0.5251 -0.7253
  151DOPC    HS18029   1.091   6.166  14.173  0.8535  4.4621 -1.0972
  151DOPC   O2118030   0.967   6.337  14.226  0.5548  0.0540  0.3629
  151DOPC   C2118031   1.043   6.405  14.147  0.3981 -0.1929  0.3441
  151DOPC   O2218032   1.150   6.370  14.105 -0.1269 -0.1725  0.5984
  151DOPC   C2218033   0.979   6.543  14.122 -0.2875  0.0990  0.1594
  151DOPC   H2R18034   1.064   6.607  14.090 -0.9559  1.5980  1.2235
  151DOPC   H2S18035   0.939   6.571  14.222  0.8518 -0.2970  0.7366
  151DOPC    C318036   0.899   6.110  14.232  0.7921 -0.2173 -0.5192
  151DOPC    HX18037   0.822   6.135  14.308  2.5734 -0.8362  1.6022
  151DOPC    HY18038   0.931   6.007  14.257  2.1051  0.7729  2.3734
  151DOPC   O3118039   0.857   6.112  14.094  0.3179  0.1824  0.6170
  151DOPC   C3118040   0.748   6.192  14.063 -0.8905 -0.3347 -0.4971
  151DOPC   O3218041   0.677   6.247  14.138  0.6743  0.0882 -0.0215
  151DOPC   C3218042   0.738   6.189  13.911 -0.0828 -0.4204  0.7520
  151DOPC   H2X18043   0.636   6.231  13.896  0.6039  1.5154  1.3110
  151DOPC   H2Y18044   0.820   6.258  13.882 -1.2523  0.7550  0.1531
  151DOPC   C2318045   0.854   6.547  14.019  0.1736 -0.2356 -0.0168
  151DOPC   H3R18046   0.801   6.644  14.021 -0.7753 -0.7426  0.0220
  151DOPC   H3S18047   0.778   6.477  14.059 -1.1139  1.1327  0.0175
  151DOPC   C2418048   0.889   6.502  13.877 -0.0190  0.0508 -0.4075
  151DOPC   H4R18049   0.794   6.474  13.828  0.3027 -2.1304  0.1386
  151DOPC   H4S18050   0.957   6.416  13.897 -1.4881 -0.6823  1.6262
  151DOPC   C2518051   0.977   6.603  13.795  0.2556  0.4952 -0.1246
  151DOPC   H5R18052   1.069   6.600  13.856  0.2947 -2.0238 -0.2295
  151DOPC   H5S18053   0.931   6.704  13.806 -1.1833 -0.0172 -1.0910
  151DOPC   C2618054   1.012   6.566  13.652 -0.9572 -0.3775  0.2538
  151DOPC   H6R18055   1.074   6.475  13.666  0.6795  1.0133  2.7530
  151DOPC   H6S18056   1.067   6.648  13.601 -1.6941  2.4376  3.6149
  151DOPC   C2718057   0.886   6.540  13.569  0.3536  0.7457 -0.3143
  151DOPC   H7R18058   0.809   6.612  13.604  0.0417  0.8421 -1.1873
  151DOPC   H7S18059   0.856   6.434  13.583  2.5886 -0.0396 -1.0909
  151DOPC   C2818060   0.907   6.568  13.420 -0.2467  0.1135 -0.2849
  151DOPC   H8R18061   0.975   6.655  13.407  1.0214 -0.3239  2.6159
  151DOPC   H8S18062   0.806   6.594  13.381 -0.1007  0.6888 -0.2863
  151DOPC   C2918063   0.970   6.462  13.341 -0.6589  0.9361  0.2319
  151DOPC   H9R18064   1.052   6.410  13.392 -1.6976  0.0009  1.0066
  151DOPC  C21018065   0.943   6.413  13.219  0.3444  0.3955  0.0042
  151DOPC  H10R18066   1.014   6.342  13.173 -0.6910 -0.1771 -0.7353
  151DOPC  C21118067   0.842   6.468  13.122 -0.4277  0.3852 -0.7648
  151DOPC  H11R18068   0.819   6.573  13.150  3.4724  0.4821  3.2175
  151DOPC  H11S18069   0.749   6.408  13.137  0.5239 -0.9711 -0.1275
  151DOPC  C21218070   0.896   6.481  12.981  0.2517 -0.3320  0.3133
  151DOPC  H12R18071   0.813   6.515  12.916 -0.2982 -1.5732  0.3289
  151DOPC  H12S18072   0.943   6.387  12.946 -0.9847 -1.1120  0.6914
  151DOPC  C21318073   1.002   6.593  12.978 -0.7493  0.3913  0.2936
  151DOPC  H13R18074   1.087   6.563  13.043 -0.6977  0.1867  0.1310
  151DOPC  H13S18075   0.962   6.693  13.006  1.4123  1.4417 -0.1671
  151DOPC  C21418076   1.070   6.604  12.847  0.3014 -0.0479 -0.0716
  151DOPC  H14R18077   1.133   6.513  12.839 -0.9299 -1.0181  0.8619
  151DOPC  H14S18078   1.143   6.688  12.837  1.8293 -1.4303 -1.0203
  151DOPC  C21518079   0.974   6.618  12.732  0.9454  0.4604  0.3220
  151DOPC  H15R18080   0.921   6.714  12.749 -0.5398 -0.2761  0.0225
  151DOPC  H15S18081   0.898   6.537  12.728  2.2398 -0.8613  1.3452
  151DOPC  C21618082   1.054   6.625  12.602  0.3300  0.0102 -0.4192
  151DOPC  H16R18083   1.101   6.528  12.577  0.2769 -0.1070 -0.0632
  151DOPC  H16S18084   1.126   6.710  12.598 -0.8580  0.9893 -3.0562
  151DOPC  C21718085   0.954   6.661  12.489  0.3366  0.4138  0.3741
  151DOPC  H17R18086   0.905   6.760  12.505  0.4843  0.9092 -1.8770
  151DOPC  H17S18087   0.883   6.578  12.510  1.4952 -1.0193 -1.1061
  151DOPC  C21818088   1.013   6.652  12.350 -0.1405 -0.5760  0.5410
  151DOPC  H18R18089   1.065   6.560  12.318 -1.5114 -0.6471 -1.6924
  151DOPC  H18S18090   1.091   6.730  12.336 -2.0368  1.5197  0.9203
  151DOPC  H18T18091   0.930   6.672  12.279  0.6955  0.7639 -0.1043
  151DOPC   C3318092   0.744   6.053  13.848  0.4931 -0.1380  0.3267
  151DOPC   H3X18093   0.665   5.988  13.891  0.6205  0.3111  1.2578
  151DOPC   H3Y18094   0.842   6.002  13.862  0.1582 -1.9452 -2.9697
  151DOPC   C3418095   0.734   6.068  13.693  0.3283 -0.8839  0.0623
  151DOPC   H4X18096   0.658   6.145  13.668  0.8739 -0.9568 -1.9286
  151DOPC   H4Y18097   0.702   5.970  13.651 -0.5334 -1.0871  1.1363
  151DOPC   C3518098   0.866   6.120  13.626  0.4662  0.0010  0.3050
  151DOPC   H5X18099   0.949   6.049  13.644 -0.1010 -1.1015 -1.2835
  151DOPC   H5Y18100   0.888   6.217  13.677 -1.4641 -0.0392  1.3257
  151DOPC   C3618101   0.847   6.155  13.478 -1.0374  1.2716 -0.7394
  151DOPC   H6X18102   0.764   6.226  13.459  1.0013  3.4137 -2.2004
  151DOPC   H6Y18103   0.936   6.217  13.456 -0.5835  1.2557  0.8963
  151DOPC   C3718104   0.849   6.032  13.387  0.1338  0.2072 -0.2205
  151DOPC   H7X18105   0.940   5.974  13.414  0.5436  0.3169 -1.3170
  151DOPC   H7Y18106   0.755   5.976  13.409 -0.3312  1.0532 -0.0011
  151DOPC   C3818107   0.864   6.063  13.246  0.6331 -0.0071  0.0639
  151DOPC   H8X18108   0.934   6.006  13.182 -0.6857 -1.7422  0.0821
  151DOPC   H8Y18109   0.919   6.159  13.246 -0.5781  0.7706  2.5136
  151DOPC   C3918110   0.728   6.086  13.176  0.5715  0.7594  0.3776
  151DOPC   H9X18111   0.664   6.166  13.215 -2.5009  0.0345 -2.6631
  151DOPC  C31018112   0.705   6.041  13.050  0.6551  0.2327  0.1193
  151DOPC  H10X18113   0.617   6.074  12.994  1.7895 -0.5439 -2.2497
  151DOPC  C31118114   0.794   5.946  12.964  0.3249 -0.7256 -0.5585
  151DOPC  H11X18115   0.759   5.842  12.952  2.0320 -1.1162 -2.7047
  151DOPC  H11Y18116   0.897   5.945  13.006 -0.4051  0.9885  1.4825
  151DOPC  C31218117   0.808   6.009  12.821  0.2246  0.3880  0.5308
  151DOPC  H12X18118   0.857   6.109  12.821 -1.4108  1.4241 -3.7576
  151DOPC  H12Y18119   0.710   6.034  12.776  0.0919  2.2997  1.8049
  151DOPC  C31318120   0.891   5.914  12.731  0.6090  0.6353 -0.0882
  151DOPC  H13X18121   0.995   5.902  12.768  0.0121  1.5087  2.0525
  151DOPC  H13Y18122   0.836   5.818  12.743  2.8080 -0.6161  0.5331
  151DOPC  C31418123   0.896   5.959  12.586 -0.7928 -0.9557 -0.3145
  151DOPC  H14X18124   0.797   5.988  12.545 -0.2069  0.4670 -0.7694
  151DOPC  H14Y18125   0.963   6.048  12.589  2.1616 -3.0634  0.9155
  151DOPC  C31518126   0.965   5.852  12.508 -0.3412  0.1704  0.4460
  151DOPC  H15X18127   0.896   5.768  12.487 -0.4343  0.1122  0.9808
  151DOPC  H15Y18128   1.053   5.810  12.562 -1.6939 -2.8801  0.5139
  151DOPC  C31618129   0.998   5.901  12.365 -0.1404  1.0680 -1.1251
  151DOPC  H16X18130   0.901   5.942  12.331 -0.1659  1.1141 -0.9996
  151DOPC  H16Y18131   1.075   5.981  12.379  0.8204 -0.3103  2.9125
  151DOPC  C31718132   1.064   5.785  12.280 -0.1911  0.3550 -0.9791
  151DOPC  H17X18133   1.159   5.758  12.329 -1.7129 -2.1289  0.8500
  151DOPC  H17Y18134   0.999   5.696  12.291 -0.4078  0.6558  0.2919
  151DOPC  C31818135   1.086   5.822  12.134 -0.6074  0.0537 -0.6454
  151DOPC  H18X18136   0.987   5.823  12.084 -0.0732 -2.0551 -1.8762
  151DOPC  H18Y18137   1.137   5.920  12.146  1.5383 -1.2070  1.3092
  151DOPC  H18Z18138   1.159   5.761  12.077 -0.8353  1.2222 -2.2415
  152DOPC     N18139   2.010   4.458  14.686 -0.0366 -0.0680  0.1315
  152DOPC   C1218140   1.917   4.489  14.792  0.3507  0.1379  0.5119
  152DOPC  H12A18141   1.943   4.440  14.885 -0.2132  1.8007  1.6016
  152DOPC  H12B18142   1.828   4.432  14.773  1.1292 -0.4989 -1.4567
  152DOPC   C1318143   2.043   4.312  14.700 -0.7648 -0.6082  0.0828
  152DOPC  H13A18144   1.965   4.255  14.652 -1.1421  0.4981 -0.6760
  152DOPC  H13B18145   2.136   4.291  14.649 -0.6127  0.9490 -0.3390
  152DOPC  H13C18146   2.059   4.280  14.802  0.7998  0.4540  0.2020
  152DOPC   C1418147   2.137   4.529  14.715 -0.0949 -0.3636  0.0721
  152DOPC  H14A18148   2.139   4.637  14.704  1.1784 -0.0484  2.5851
  152DOPC  H14B18149   2.165   4.520  14.819 -0.8668  0.1697  0.3333
  152DOPC  H14C18150   2.221   4.487  14.661  0.5867  3.5666 -2.3465
  152DOPC   C1518151   1.957   4.487  14.550  0.2984  0.7273 -0.0696
  152DOPC  H15A18152   2.036   4.455  14.483  0.1352 -2.4311  1.1077
  152DOPC  H15B18153   1.954   4.595  14.544  1.3040  0.7052 -1.5258
  152DOPC  H15C18154   1.857   4.451  14.530 -0.6414  3.7405 -1.3507
  152DOPC   C1118155   1.885   4.640  14.808  0.9438  0.1044 -0.7578
  152DOPC  H11A18156   1.965   4.689  14.868 -1.3288  2.8934  0.1967
  152DOPC  H11B18157   1.877   4.693  14.710 -0.4291 -3.5917 -2.8615
  152DOPC     P18158   1.672   4.764  14.864  0.3361 -0.1387 -0.1906
  152DOPC   O1318159   1.739   4.897  14.895  0.4223 -0.1210  0.2005
  152DOPC   O1418160   1.543   4.737  14.933 -0.4194 -0.2039  0.0529
  152DOPC   O1218161   1.767   4.646  14.886 -0.0821  0.0143 -0.8392
  152DOPC   O1118162   1.640   4.752  14.716 -0.2172 -0.3741  0.0526
  152DOPC    C118163   1.678   4.849  14.617 -0.1798 -0.2873  1.1113
  152DOPC    HA18164   1.786   4.853  14.591 -0.5315 -0.3684 -0.4612
  152DOPC    HB18165   1.632   4.950  14.626  0.6958  0.1061  1.2829
  152DOPC    C218166   1.604   4.804  14.482 -0.0345  0.4515 -0.1413
  152DOPC    HS18167   1.495   4.807  14.501 -0.3388  1.3208 -1.8393
  152DOPC   O2118168   1.656   4.676  14.433 -0.1259  0.2967 -0.1635
  152DOPC   C2118169   1.561   4.593  14.382  0.0286  0.3666  0.1483
  152DOPC   O2218170   1.443   4.612  14.388  0.9205 -0.1379 -0.9786
  152DOPC   C2218171   1.627   4.476  14.309  0.2923 -1.1816 -0.7354
  152DOPC   H2R18172   1.537   4.418  14.276 -0.4048  0.8766 -2.7241
  152DOPC   H2S18173   1.689   4.415  14.379  0.1825 -1.9296 -1.2748
  152DOPC    C318174   1.618   4.922  14.375 -0.1673 -0.5310  0.7812
  152DOPC    HX18175   1.726   4.950  14.379 -0.0154 -0.5367 -1.8120
  152DOPC    HY18176   1.551   5.005  14.403 -1.4058  0.4938 -4.2883
  152DOPC   O3118177   1.589   4.875  14.239 -0.3253 -0.3071 -0.5398
  152DOPC   C3118178   1.467   4.889  14.195  0.6652  0.0065 -0.3626
  152DOPC   O3218179   1.379   4.944  14.254  0.4917  0.5912 -0.7018
  152DOPC   C3218180   1.451   4.867  14.046  0.6474  0.5322  0.0330
  152DOPC   H2X18181   1.551   4.885  14.001  0.2221 -0.3447 -1.3382
  152DOPC   H2Y18182   1.412   4.764  14.034 -1.5312  1.3315 -0.2384
  152DOPC   C2318183   1.711   4.535  14.192  0.0421  0.0865 -0.0654
  152DOPC   H3R18184   1.798   4.467  14.174 -1.0784 -1.4135 -0.0497
  152DOPC   H3S18185   1.746   4.637  14.216 -2.3033  0.8079  0.4815
  152DOPC   C2418186   1.630   4.547  14.063 -0.1966 -0.3921  0.1698
  152DOPC   H4R18187   1.574   4.643  14.066 -0.2765 -0.2164 -3.0983
  152DOPC   H4S18188   1.553   4.466  14.065 -0.1399 -0.4610 -0.3992
  152DOPC   C2518189   1.714   4.551  13.940  0.1276  0.1504  0.0645
  152DOPC   H5R18190   1.754   4.450  13.918  0.2961  0.0196  0.9352
  152DOPC   H5S18191   1.803   4.616  13.935 -0.8939  1.6797  0.8207
  152DOPC   C2618192   1.635   4.589  13.818  0.3638 -0.1151  0.6675
  152DOPC   H6R18193   1.606   4.696  13.826  0.1137 -0.1216 -0.0367
  152DOPC   H6S18194   1.542   4.538  13.785 -1.4000  3.6883 -0.8345
  152DOPC   C2718195   1.723   4.578  13.693 -0.2991 -0.1841 -0.2215
  152DOPC   H7R18196   1.764   4.475  13.690  0.6732  0.1317  1.2579
  152DOPC   H7S18197   1.813   4.643  13.697  0.6120 -1.4366  0.0608
  152DOPC   C2818198   1.645   4.615  13.567  0.0992  0.9165 -0.3163
  152DOPC   H8R18199   1.610   4.720  13.566 -1.5815  0.4385  1.6755
  152DOPC   H8S18200   1.550   4.557  13.562  0.7546 -0.2491  0.2681
  152DOPC   C2918201   1.718   4.588  13.441  0.1727 -0.1312  0.2695
  152DOPC   H9R18202   1.738   4.480  13.432  1.9014  0.0991  1.0615
  152DOPC  C21018203   1.772   4.679  13.357  0.2810 -0.5823  0.2228
  152DOPC  H10R18204   1.832   4.649  13.270  2.1903  0.8927  0.9419
  152DOPC  C21118205   1.759   4.833  13.356 -0.8261  0.8637 -0.0804
  152DOPC  H11R18206   1.825   4.865  13.440  1.1270 -2.2814 -0.2576
  152DOPC  H11S18207   1.659   4.874  13.381  0.0921  2.2611  1.4830
  152DOPC  C21218208   1.822   4.897  13.226 -0.2270 -0.2675  0.2627
  152DOPC  H12R18209   1.932   4.887  13.218 -0.1949 -0.1695  0.5734
  152DOPC  H12S18210   1.806   5.005  13.246 -1.0177  0.0289 -1.7301
  152DOPC  C21318211   1.755   4.850  13.092 -0.1879 -0.4638  0.3463
  152DOPC  H13R18212   1.657   4.901  13.076  0.9094  1.2420 -1.3717
  152DOPC  H13S18213   1.746   4.740  13.079 -0.6622 -0.4924  0.8891
  152DOPC  C21418214   1.846   4.896  12.977  0.4055  0.6191  0.0368
  152DOPC  H14R18215   1.951   4.874  13.004 -0.2161 -0.2653  1.9040
  152DOPC  H14S18216   1.837   5.007  12.979  0.9563  0.7468 -1.9388
  152DOPC  C21518217   1.799   4.850  12.845 -0.0102  0.4589  0.8090
  152DOPC  H15R18218   1.691   4.872  12.838 -0.1005 -0.4691 -1.4387
  152DOPC  H15S18219   1.811   4.740  12.839  3.4929  0.7936 -1.7329
  152DOPC  C21618220   1.877   4.911  12.726 -0.1293 -0.0147  0.3002
  152DOPC  H16R18221   1.986   4.890  12.734 -0.1116  0.7078  2.3709
  152DOPC  H16S18222   1.872   5.021  12.730 -0.6013  0.1156 -2.0909
  152DOPC  C21718223   1.817   4.876  12.596 -0.9278  0.4411 -0.7666
  152DOPC  H17R18224   1.709   4.899  12.600 -0.7957  0.8997  0.5418
  152DOPC  H17S18225   1.840   4.769  12.577 -0.6630  0.2058  0.7598
  152DOPC  C21818226   1.869   4.957  12.479  0.8515 -0.5253 -0.4000
  152DOPC  H18R18227   1.842   5.064  12.487 -0.0085 -0.5956 -1.9465
  152DOPC  H18S18228   1.822   4.922  12.385 -1.9831 -0.7215  0.9842
  152DOPC  H18T18229   1.980   4.951  12.476  0.7983 -1.2227 -1.6901
  152DOPC   C3318230   1.347   4.957  13.970  0.0401 -0.4602  0.9289
  152DOPC   H3X18231   1.372   5.063  13.992  0.8041 -0.7708  1.6324
  152DOPC   H3Y18232   1.245   4.946  14.012 -1.4089  3.3849 -1.1031
  152DOPC   C3418233   1.345   4.935  13.820  0.3348 -0.0194  0.3077
  152DOPC   H4X18234   1.401   4.843  13.792 -1.6778 -1.2848  0.2575
  152DOPC   H4Y18235   1.398   5.021  13.774  0.7524 -0.7635 -0.6296
  152DOPC   C3518236   1.208   4.923  13.755  0.2121 -0.5381  0.0757
  152DOPC   H5X18237   1.146   5.015  13.750  2.1658  0.8257 -0.1545
  152DOPC   H5Y18238   1.155   4.839  13.807  0.6993 -1.0248 -0.1996
  152DOPC   C3618239   1.216   4.862  13.612  0.4096  0.3255 -0.1724
  152DOPC   H6X18240   1.265   4.766  13.637  1.2335  0.8040  0.0990
  152DOPC   H6Y18241   1.112   4.842  13.578  0.0456  0.5034  0.7986
  152DOPC   C3718242   1.312   4.926  13.514  0.4940 -0.7163 -0.8276
  152DOPC   H7X18243   1.277   5.031  13.511  1.0729 -0.5295 -1.0611
  152DOPC   H7Y18244   1.412   4.914  13.561 -0.8741  0.6443  2.7805
  152DOPC   C3818245   1.294   4.867  13.373 -0.5320 -0.3964 -0.2361
  152DOPC   H8X18246   1.349   4.932  13.302  1.6512 -1.1693  0.6494
  152DOPC   H8Y18247   1.191   4.868  13.332 -0.5835  2.1154 -0.1782
  152DOPC   C3918248   1.361   4.731  13.365  1.2420  0.5796 -0.0330
  152DOPC   H9X18249   1.355   4.661  13.449 -0.1235  0.7444  0.0241
  152DOPC  C31018250   1.414   4.682  13.248 -0.8208 -0.0741 -0.1422
  152DOPC  H10X18251   1.465   4.585  13.252 -0.3333  0.2013  0.7391
  152DOPC  C31118252   1.420   4.758  13.120  1.2093  0.0260 -0.0943
  152DOPC  H11X18253   1.497   4.716  13.052  0.0511 -1.6095 -0.4686
  152DOPC  H11Y18254   1.455   4.861  13.140  0.3285  0.1595  0.8165
  152DOPC  C31218255   1.292   4.781  13.033  0.0342  0.3806 -0.1386
  152DOPC  H12X18256   1.234   4.850  13.098 -0.8473  1.2875 -1.8227
  152DOPC  H12Y18257   1.239   4.684  13.045 -0.6787  0.8974  1.1549
  152DOPC  C31318258   1.310   4.825  12.889  0.0698 -0.1386  0.3565
  152DOPC  H13X18259   1.363   4.742  12.838 -0.2186 -0.4663  0.5845
  152DOPC  H13Y18260   1.212   4.845  12.841  0.3111  3.1469  0.9765
  152DOPC  C31418261   1.395   4.945  12.870 -0.4221  0.3766  0.3260
  152DOPC  H14X18262   1.359   5.024  12.939  1.4825 -0.5337  2.4903
  152DOPC  H14Y18263   1.500   4.927  12.901 -0.9581 -1.8590  0.9980
  152DOPC  C31518264   1.390   5.002  12.720  0.7310 -0.3917 -0.3223
  152DOPC  H15X18265   1.483   5.059  12.702  1.4928 -1.7793 -0.9069
  152DOPC  H15Y18266   1.295   5.059  12.710  0.3889 -0.3173  2.4073
  152DOPC  C31618267   1.388   4.899  12.609  0.4417 -0.0823  0.6395
  152DOPC  H16X18268   1.483   4.844  12.592  1.2424  2.0299 -2.6162
  152DOPC  H16Y18269   1.301   4.832  12.624 -1.4247  2.4499  1.8609
  152DOPC  C31718270   1.361   4.969  12.475 -0.3163  0.0402 -0.0940
  152DOPC  H17X18271   1.261   5.013  12.490  0.0328  0.1885  2.0199
  152DOPC  H17Y18272   1.440   5.044  12.455 -1.9803  2.3393  1.4788
  152DOPC  C31818273   1.355   4.872  12.363  0.2486 -0.6980 -0.3742
  152DOPC  H18X18274   1.456   4.830  12.342  1.3803 -0.5354  3.7505
  152DOPC  H18Y18275   1.293   4.782  12.383 -1.3317  0.9349  3.0537
  152DOPC  H18Z18276   1.319   4.932  12.277 -0.6957  1.3731  1.3714
  153DOPC     N18277   2.376   1.379  14.976 -0.3933 -0.0675 -0.2375
  153DOPC   C1218278   2.473   1.498  14.968 -0.3069  0.1641  0.2915
  153DOPC  H12A18279   2.576   1.466  14.959  0.2747  1.3906  2.0911
  153DOPC  H12B18280   2.477   1.545  15.065  1.0544 -0.5826  0.6170
  153DOPC   C1318281   2.442   1.265  15.042  0.1328  0.0702 -0.6120
  153DOPC  H13A18282   2.381   1.176  15.034 -1.3768  1.1741 -2.2879
  153DOPC  H13B18283   2.539   1.248  14.999  0.6296  1.8886 -0.3246
  153DOPC  H13C18284   2.450   1.292  15.147 -1.5902 -1.0570 -0.1436
  153DOPC   C1418285   2.335   1.340  14.832  0.2108  0.9132 -0.1723
  153DOPC  H14A18286   2.281   1.420  14.782 -0.5670  0.6575  0.2493
  153DOPC  H14B18287   2.425   1.326  14.774 -0.2537 -0.1521 -0.6585
  153DOPC  H14C18288   2.277   1.249  14.822 -1.7585  2.2775 -2.2025
  153DOPC   C1518289   2.244   1.404  15.043 -0.2116 -0.2271 -0.1091
  153DOPC  H15A18290   2.198   1.497  15.016 -1.5526 -0.9815 -0.5346
  153DOPC  H15B18291   2.256   1.403  15.150 -0.7996  0.4884 -0.0287
  153DOPC  H15C18292   2.172   1.326  15.020 -0.8341  0.1808  0.4210
  153DOPC   C1118293   2.441   1.599  14.857 -0.1248  0.6854  0.6212
  153DOPC  H11A18294   2.335   1.629  14.843  0.6215  2.8961 -0.9853
  153DOPC  H11B18295   2.487   1.695  14.890  0.6927  0.8040 -0.7819
  153DOPC     P18296   2.644   1.574  14.691  0.3598  0.2763  0.1650
  153DOPC   O1318297   2.704   1.435  14.690  0.0418 -0.9806 -0.5894
  153DOPC   O1418298   2.711   1.671  14.787  0.4053 -0.0665  0.0291
  153DOPC   O1218299   2.490   1.570  14.723 -0.1553 -0.1601  0.0933
  153DOPC   O1118300   2.644   1.629  14.543 -0.2157 -0.3261 -0.0129
  153DOPC    C118301   2.564   1.584  14.439  0.2870 -0.2335 -0.2598
  153DOPC    HA18302   2.495   1.662  14.399 -0.0488  0.2441  1.1833
  153DOPC    HB18303   2.509   1.491  14.463  2.0934 -1.0838  0.7525
  153DOPC    C218304   2.651   1.563  14.318  0.2203 -0.7187 -0.1909
  153DOPC    HS18305   2.730   1.491  14.349 -1.1754 -2.2339 -0.0558
  153DOPC   O2118306   2.707   1.689  14.287 -0.2911  0.1338  0.0738
  153DOPC   C2118307   2.816   1.694  14.216 -0.1357  0.2644  0.3797
  153DOPC   O2218308   2.874   1.601  14.166 -0.6241  0.3858  0.0473
  153DOPC   C2218309   2.851   1.842  14.203 -0.3771 -0.3894  0.0349
  153DOPC   H2R18310   2.913   1.870  14.291 -0.5833 -0.0566  0.0756
  153DOPC   H2S18311   2.755   1.898  14.208 -0.5444 -0.6165 -0.5186
  153DOPC    C318312   2.569   1.504  14.202  0.1065  0.3802 -0.5803
  153DOPC    HX18313   2.543   1.397  14.218 -0.8186  0.6721 -0.0296
  153DOPC    HY18314   2.632   1.501  14.111  2.2687 -0.6877  0.8692
  153DOPC   O3118315   2.447   1.580  14.187  0.0001 -0.5104  0.3876
  153DOPC   C3118316   2.355   1.524  14.105 -0.9709  0.0831 -0.0304
  153DOPC   O3218317   2.380   1.434  14.026 -0.3195 -0.2832 -0.2164
  153DOPC   C3218318   2.221   1.582  14.137 -0.0247 -0.2552  0.3260
  153DOPC   H2X18319   2.185   1.533  14.230 -0.5941  0.1184  0.3061
  153DOPC   H2Y18320   2.224   1.690  14.161 -0.6716 -0.6408  2.4165
  153DOPC   C2318321   2.919   1.861  14.060  0.0657  0.5201 -0.1222
  153DOPC   H3R18322   2.997   1.783  14.054 -0.8445 -0.3679 -0.8812
  153DOPC   H3S18323   2.970   1.960  14.064 -0.4387  0.8091 -0.6257
  153DOPC   C2418324   2.817   1.855  13.948 -0.1467  0.1263  0.9046
  153DOPC   H4R18325   2.747   1.939  13.967 -0.4233  0.3868 -1.0450
  153DOPC   H4S18326   2.771   1.755  13.961  0.3665 -0.2021  0.2534
  153DOPC   C2518327   2.884   1.859  13.803  0.3959  0.2529 -0.1429
  153DOPC   H5R18328   2.907   1.753  13.775 -1.3931 -1.0229  2.7618
  153DOPC   H5S18329   2.980   1.914  13.795  1.6311 -1.7251  0.3142
  153DOPC   C2618330   2.787   1.918  13.703  0.1045  0.7273  0.6224
  153DOPC   H6R18331   2.783   2.028  13.717  1.9704  0.8233  0.6421
  153DOPC   H6S18332   2.684   1.875  13.696 -0.4167  2.1136 -1.0081
  153DOPC   C2718333   2.831   1.889  13.559  0.4969  0.1477  0.6974
  153DOPC   H7R18334   2.836   1.780  13.540  1.1311  0.7389 -3.4313
  153DOPC   H7S18335   2.939   1.912  13.546  0.9364 -1.9096  0.3947
  153DOPC   C2818336   2.744   1.962  13.447 -0.3828 -0.1840  0.4474
  153DOPC   H8R18337   2.633   1.950  13.449 -0.9468  3.0466 -2.6766
  153DOPC   H8S18338   2.766   1.914  13.349  0.7427  1.0052  0.0967
  153DOPC   C2918339   2.767   2.109  13.439  0.1406 -0.0776 -0.4450
  153DOPC   H9R18340   2.786   2.145  13.541 -0.0785 -1.1714 -0.0062
  153DOPC  C21018341   2.772   2.188  13.331  0.0595  0.3388  0.2916
  153DOPC  H10R18342   2.810   2.290  13.343  1.2527 -0.3020  2.8073
  153DOPC  C21118343   2.728   2.151  13.192  0.2603  0.0845  0.1099
  153DOPC  H11R18344   2.649   2.222  13.158 -0.0703 -0.9346 -1.3727
  153DOPC  H11S18345   2.673   2.054  13.197  2.4810 -1.1772  1.8103
  153DOPC  C21218346   2.831   2.138  13.077  0.6736 -0.3643 -1.5294
  153DOPC  H12R18347   2.898   2.060  13.120 -0.7467 -0.7782  0.0472
  153DOPC  H12S18348   2.874   2.239  13.061 -1.5285  1.3025  1.9452
  153DOPC  C21318349   2.762   2.096  12.953  0.3154  0.7340  0.4951
  153DOPC  H13R18350   2.698   2.170  12.900  2.4990  2.4704  0.1520
  153DOPC  H13S18351   2.699   2.010  12.985  1.9419 -0.1328  1.4405
  153DOPC  C21418352   2.860   2.030  12.854 -1.0621 -0.7711  0.2238
  153DOPC  H14R18353   2.938   1.973  12.909 -1.1217  0.8438  2.1100
  153DOPC  H14S18354   2.902   2.111  12.790 -1.7961  1.5435  2.4575
  153DOPC  C21518355   2.789   1.928  12.763 -0.1456  0.2326  0.0325
  153DOPC  H15R18356   2.761   1.847  12.834 -1.8462  0.6648 -0.0894
  153DOPC  H15S18357   2.863   1.892  12.689 -1.9434  1.2432 -2.4061
  153DOPC  C21618358   2.667   1.986  12.687  0.0303  0.6532 -0.0236
  153DOPC  H16R18359   2.704   2.073  12.628  1.8378 -0.6055 -0.8577
  153DOPC  H16S18360   2.591   2.028  12.756 -2.1124  0.4444 -2.1026
  153DOPC  C21718361   2.607   1.877  12.606 -0.4374  0.5117 -0.7502
  153DOPC  H17R18362   2.589   1.787  12.668  2.1453  0.0475 -0.5796
  153DOPC  H17S18363   2.685   1.842  12.535 -0.3257  0.0558 -0.4035
  153DOPC  C21818364   2.491   1.922  12.520 -0.2560 -0.3666 -0.5603
  153DOPC  H18R18365   2.400   1.953  12.575 -0.2894 -2.4395  0.6836
  153DOPC  H18S18366   2.459   1.843  12.449  1.4240 -0.6140 -1.0893
  153DOPC  H18T18367   2.531   2.003  12.456  0.0474 -0.6633 -0.7514
  153DOPC   C3318368   2.109   1.557  14.038  0.3910  0.3245 -0.0900
  153DOPC   H3X18369   2.011   1.591  14.078 -0.3606 -1.0302 -0.7251
  153DOPC   H3Y18370   2.085   1.451  14.015 -0.4356  0.0425  1.8659
  153DOPC   C3418371   2.120   1.631  13.906 -0.1477 -0.3806  0.9171
  153DOPC   H4X18372   2.034   1.613  13.838 -1.2305 -1.8552  2.6051
  153DOPC   H4Y18373   2.210   1.587  13.858  0.8123  1.8425  0.5209
  153DOPC   C3518374   2.149   1.780  13.919 -0.1363 -0.1880  0.0643
  153DOPC   H5X18375   2.252   1.795  13.957 -1.3937  0.3919  3.5892
  153DOPC   H5Y18376   2.079   1.835  13.984 -0.1017 -0.8612  0.6887
  153DOPC   C3618377   2.135   1.842  13.783 -0.4081 -1.0271  0.5682
  153DOPC   H6X18378   2.035   1.822  13.739  0.3841  0.0680 -1.9015
  153DOPC   H6Y18379   2.141   1.953  13.792 -1.6454 -0.8404 -0.7185
  153DOPC   C3718380   2.233   1.789  13.679 -0.6502 -0.2449  0.3454
  153DOPC   H7X18381   2.333   1.783  13.728 -1.2211 -2.7400  1.3338
  153DOPC   H7Y18382   2.218   1.684  13.647 -0.5585 -0.3484  0.6374
  153DOPC   C3818383   2.226   1.873  13.553 -0.2280 -0.0415 -0.3173
  153DOPC   H8X18384   2.328   1.881  13.511 -0.1488 -0.4991 -0.2209
  153DOPC   H8Y18385   2.195   1.967  13.604  0.7666 -1.6313  3.5347
  153DOPC   C3918386   2.136   1.816  13.452  0.1174  0.0971 -0.3962
  153DOPC   H9X18387   2.029   1.825  13.478  0.6601  0.7639  1.8371
  153DOPC  C31018388   2.176   1.766  13.335 -0.0734 -0.2209  0.8409
  153DOPC  H10X18389   2.106   1.739  13.255  0.2953 -0.4289  0.5877
  153DOPC  C31118390   2.319   1.739  13.291 -0.4766 -0.5343 -0.0508
  153DOPC  H11X18391   2.321   1.642  13.237 -1.6177  0.3654 -1.7746
  153DOPC  H11Y18392   2.384   1.725  13.381 -0.6477 -0.4924  0.0795
  153DOPC  C31218393   2.390   1.842  13.216 -1.5531 -0.6445  0.5859
  153DOPC  H12X18394   2.500   1.827  13.210 -1.4994  0.2493 -2.0011
  153DOPC  H12Y18395   2.380   1.946  13.254 -1.3460  0.1687 -1.4662
  153DOPC  C31318396   2.340   1.843  13.071 -0.5793 -0.2550  0.1182
  153DOPC  H13X18397   2.336   1.740  13.027  1.1184 -1.5788  2.8293
  153DOPC  H13Y18398   2.234   1.875  13.070 -0.6986 -0.6050 -1.5704
  153DOPC  C31418399   2.417   1.928  12.971  0.5616  0.3723 -0.0175
  153DOPC  H14X18400   2.524   1.911  12.997  0.1323  0.4441  1.9431
  153DOPC  H14Y18401   2.405   1.897  12.865 -0.9541  1.8973 -0.3401
  153DOPC  C31518402   2.377   2.073  12.976 -0.5346  0.0330 -0.6897
  153DOPC  H15X18403   2.477   2.120  12.990  1.1047 -3.3962  0.3527
  153DOPC  H15Y18404   2.328   2.086  13.075  2.4132 -0.0047  0.8884
  153DOPC  C31618405   2.292   2.126  12.857 -0.5766 -0.2491  0.5569
  153DOPC  H16X18406   2.330   2.228  12.836 -1.3470 -0.1913 -0.6298
  153DOPC  H16Y18407   2.299   2.067  12.763 -1.3057  0.7318 -0.1406
  153DOPC  C31718408   2.142   2.138  12.880 -0.4632 -0.0017  0.2992
  153DOPC  H17X18409   2.104   2.033  12.873 -1.0529  0.2392 -0.1617
  153DOPC  H17Y18410   2.124   2.180  12.981 -0.2500  0.0620  0.3114
  153DOPC  C31818411   2.073   2.212  12.773  0.3525 -0.5018  0.3956
  153DOPC  H18X18412   2.112   2.195  12.670 -0.4021  0.6642 -0.1124
  153DOPC  H18Y18413   1.962   2.207  12.781  0.2490  0.5932 -0.1864
  153DOPC  H18Z18414   2.088   2.322  12.781  1.8859 -0.4976 -1.8226
  154DOPC     N18415   3.782   6.307  14.920  0.4609 -0.4998 -0.1912
  154DOPC   C1218416   3.796   6.398  14.804 -0.3585  0.2739 -0.0994
  154DOPC  H12A18417   3.868   6.475  14.828 -0.2318  0.4536 -1.0341
  154DOPC  H12B18418   3.709   6.463  14.802  1.1897  2.5058  0.7083
  154DOPC   C1318419   3.901   6.223  14.944  0.2812 -0.0611  0.5933
  154DOPC  H13A18420   3.995   6.276  14.948  0.9064 -1.0434 -0.4629
  154DOPC  H13B18421   3.893   6.154  15.026 -1.3132  0.0839  0.5838
  154DOPC  H13C18422   3.908   6.159  14.857 -0.0469 -0.3545  0.7831
  154DOPC   C1418423   3.669   6.207  14.912  0.3783  0.4275 -0.0768
  154DOPC  H14A18424   3.685   6.154  14.819 -0.7586 -2.1787  1.1266
  154DOPC  H14B18425   3.682   6.145  14.999 -0.1756 -1.1163 -1.0627
  154DOPC  H14C18426   3.573   6.256  14.921  0.0124 -0.1444 -0.7537
  154DOPC   C1518427   3.762   6.384  15.049 -0.1163  0.3187  0.8066
  154DOPC  H15A18428   3.666   6.432  15.048 -0.5919 -0.5027 -1.9636
  154DOPC  H15B18429   3.840   6.459  15.049 -0.9792  1.2912 -1.1858
  154DOPC  H15C18430   3.768   6.319  15.135  1.4502 -0.4068  0.2008
  154DOPC   C1118431   3.828   6.336  14.661  0.5867  0.4046 -0.3860
  154DOPC  H11A18432   3.734   6.291  14.624  0.4425  1.8418 -1.8959
  154DOPC  H11B18433   3.840   6.429  14.601  2.1931 -0.7517 -1.9459
  154DOPC     P18434   3.935   6.114  14.591  0.0496 -0.1533  0.3116
  154DOPC   O1318435   3.820   6.042  14.652  1.3413 -0.0477  0.4089
  154DOPC   O1418436   4.068   6.053  14.604  0.1474 -0.3551 -0.0149
  154DOPC   O1218437   3.940   6.257  14.652 -0.5838 -0.1393  0.1362
  154DOPC   O1118438   3.899   6.133  14.437 -0.1939  0.3095 -0.1346
  154DOPC    C118439   3.936   6.250  14.365  0.4727  0.4062  0.1382
  154DOPC    HA18440   3.994   6.313  14.436 -0.4919 -1.5697  2.8945
  154DOPC    HB18441   3.843   6.300  14.331  0.3902 -0.7538 -1.4146
  154DOPC    C218442   4.019   6.217  14.238  0.3282 -0.5356 -0.3969
  154DOPC    HS18443   4.061   6.306  14.186 -0.4494 -0.7933 -1.5020
  154DOPC   O2118444   3.943   6.136  14.145 -0.7511 -0.4258  0.6661
  154DOPC   C2118445   3.852   6.206  14.078 -0.3098 -0.9439 -0.4750
  154DOPC   O2218446   3.844   6.328  14.079  0.5205  0.0520  0.0412
  154DOPC   C2218447   3.768   6.113  13.997  0.1476  0.4789  0.6361
  154DOPC   H2R18448   3.693   6.081  14.072 -0.8945  0.3982 -0.3972
  154DOPC   H2S18449   3.828   6.027  13.958 -0.0245 -0.1656  1.7473
  154DOPC    C318450   4.145   6.141  14.281  0.6107  0.4651  0.2345
  154DOPC    HX18451   4.111   6.052  14.337 -3.4416  2.2969  1.0642
  154DOPC    HY18452   4.203   6.191  14.362  0.7617  0.9847 -0.1884
  154DOPC   O3118453   4.226   6.109  14.168  0.0451  0.2357  0.2379
  154DOPC   C3118454   4.294   5.993  14.169  0.0550  0.4274  0.2290
  154DOPC   O3218455   4.286   5.900  14.250  0.1660 -0.1366 -0.4078
  154DOPC   C3218456   4.399   5.997  14.045 -0.2352 -0.0191 -0.2903
  154DOPC   H2X18457   4.479   6.055  14.095 -0.0288  0.4006 -1.0901
  154DOPC   H2Y18458   4.435   5.893  14.035  1.7790  0.6284 -0.1961
  154DOPC   C2318459   3.700   6.176  13.874 -0.1253 -0.0252 -0.4017
  154DOPC   H3R18460   3.625   6.246  13.916  0.4588 -0.2944  1.1196
  154DOPC   H3S18461   3.632   6.098  13.832 -2.5175 -0.5344  3.8380
  154DOPC   C2418462   3.789   6.248  13.768 -0.2683  0.2151  0.7416
  154DOPC   H4R18463   3.830   6.340  13.815 -0.0158 -0.4169  1.7866
  154DOPC   H4S18464   3.725   6.261  13.678 -0.4870 -1.2777  0.6516
  154DOPC   C2518465   3.904   6.163  13.715  0.0308 -0.0919 -0.1959
  154DOPC   H5R18466   3.881   6.057  13.692 -0.4091 -0.0259 -0.0530
  154DOPC   H5S18467   3.973   6.151  13.802 -1.3582 -1.5056  0.7678
  154DOPC   C2618468   3.977   6.244  13.604 -0.1239  0.1082  0.5093
  154DOPC   H6R18469   3.999   6.348  13.635  1.5337 -0.4151  1.2219
  154DOPC   H6S18470   3.916   6.243  13.511  1.5107  0.6758 -0.6322
  154DOPC   C2718471   4.111   6.179  13.557  0.0129 -0.1915  0.2842
  154DOPC   H7R18472   4.106   6.068  13.564  1.0674 -0.1928  1.2957
  154DOPC   H7S18473   4.184   6.195  13.639  1.4023 -0.8141 -0.7986
  154DOPC   C2818474   4.165   6.222  13.422  0.3996 -0.4675  0.6420
  154DOPC   H8R18475   4.113   6.176  13.336  0.7925  1.1822 -0.5147
  154DOPC   H8S18476   4.269   6.186  13.407  0.0308 -1.0010 -0.7085
  154DOPC   C2918477   4.152   6.368  13.401 -0.9136  0.1014  0.5365
  154DOPC   H9R18478   4.050   6.411  13.399 -0.2329  1.7977  0.5898
  154DOPC  C21018479   4.258   6.456  13.397  0.7436 -0.4274  0.2733
  154DOPC  H10R18480   4.233   6.560  13.372 -0.5080 -1.0488 -1.2416
  154DOPC  C21118481   4.404   6.431  13.415  1.1182 -0.7543  0.4238
  154DOPC  H11R18482   4.428   6.324  13.435 -1.0120 -1.1774  0.8866
  154DOPC  H11S18483   4.440   6.505  13.490  2.5204 -0.0577 -0.8794
  154DOPC  C21218484   4.487   6.481  13.292  0.0958  0.5930 -0.1141
  154DOPC  H12R18485   4.594   6.467  13.320 -0.0627  0.7070  0.5684
  154DOPC  H12S18486   4.472   6.589  13.274 -0.8713  1.2780  3.7697
  154DOPC  C21318487   4.464   6.386  13.168 -0.2381 -0.0143 -0.1217
  154DOPC  H13R18488   4.358   6.353  13.158 -0.3016  0.0558  0.2982
  154DOPC  H13S18489   4.506   6.287  13.197 -0.8907 -0.4095 -0.4752
  154DOPC  C21418490   4.519   6.455  13.042 -0.3703 -0.0484 -0.4940
  154DOPC  H14R18491   4.630   6.468  13.039 -0.5032  1.1852 -0.9119
  154DOPC  H14S18492   4.480   6.557  13.022 -0.7215 -0.2274 -0.7169
  154DOPC  C21518493   4.473   6.381  12.917  0.3420  0.3642  0.0176
  154DOPC  H15R18494   4.362   6.386  12.913  0.4024  1.6109 -0.3501
  154DOPC  H15S18495   4.495   6.272  12.925 -0.8078  0.1612  0.6017
  154DOPC  C21618496   4.532   6.428  12.783 -0.3847 -0.0673  0.0983
  154DOPC  H16R18497   4.643   6.429  12.784 -0.2525  0.8967 -3.1471
  154DOPC  H16S18498   4.496   6.533  12.775 -1.1485 -0.3233  0.0273
  154DOPC  C21718499   4.496   6.348  12.660  0.1532  0.7971 -0.0387
  154DOPC  H17R18500   4.386   6.337  12.653 -0.0357  3.0276 -2.0135
  154DOPC  H17S18501   4.539   6.245  12.656 -0.3957  0.5691 -3.8461
  154DOPC  C21818502   4.545   6.410  12.531  0.2112 -0.4781  0.0246
  154DOPC  H18R18503   4.656   6.422  12.537  0.3552 -2.1219  1.6641
  154DOPC  H18S18504   4.493   6.508  12.530  0.0514 -0.3912  3.7033
  154DOPC  H18T18505   4.525   6.354  12.438  1.4032  0.6186 -0.9304
  154DOPC   C3318506   4.345   6.060  13.924 -0.3369 -1.0289  0.0022
  154DOPC   H3X18507   4.321   6.166  13.948 -1.6470 -1.3198  0.0531
  154DOPC   H3Y18508   4.246   6.019  13.895 -0.9247  0.6823 -0.4968
  154DOPC   C3418509   4.439   6.060  13.799  0.1486 -0.2732 -0.5242
  154DOPC   H4X18510   4.542   6.057  13.839  0.3720 -0.8588 -1.1324
  154DOPC   H4Y18511   4.421   6.149  13.735 -0.3244  0.0249  0.0091
  154DOPC   C3518512   4.401   5.942  13.709  0.2825 -0.5553  0.1703
  154DOPC   H5X18513   4.294   5.915  13.713  0.3299 -0.9003 -0.6997
  154DOPC   H5Y18514   4.462   5.855  13.743  2.2786  0.5449 -0.3980
  154DOPC   C3618515   4.452   5.967  13.561  0.3854 -0.1102  0.2187
  154DOPC   H6X18516   4.388   6.033  13.500 -0.0034 -1.8947 -1.3771
  154DOPC   H6Y18517   4.558   6.002  13.559  1.0012 -1.8638 -0.4808
  154DOPC   C3718518   4.464   5.824  13.494  0.5570 -0.4085 -0.2182
  154DOPC   H7X18519   4.534   5.753  13.541  0.7198 -0.0611  0.0698
  154DOPC   H7Y18520   4.362   5.779  13.494 -0.1504  1.0330 -2.0600
  154DOPC   C3818521   4.508   5.822  13.349 -0.6604  0.4097  0.1049
  154DOPC   H8X18522   4.506   5.719  13.308 -3.7255  0.7742 -0.9634
  154DOPC   H8Y18523   4.612   5.859  13.349 -1.1689  1.9363 -0.5505
  154DOPC   C3918524   4.436   5.915  13.256 -0.0506  0.2489 -0.0009
  154DOPC   H9X18525   4.441   6.022  13.283  1.6570  0.1276  0.2594
  154DOPC  C31018526   4.363   5.880  13.150  1.1847  0.7230 -0.1435
  154DOPC  H10X18527   4.330   5.957  13.079  0.2855  0.5222  0.0458
  154DOPC  C31118528   4.351   5.738  13.102  0.5224  0.2570 -0.1753
  154DOPC  H11X18529   4.246   5.716  13.071  1.9907 -3.1079 -3.6267
  154DOPC  H11Y18530   4.371   5.660  13.178  0.3698 -1.5896 -1.9356
  154DOPC  C31218531   4.428   5.718  12.971 -0.1328  0.0877  0.0537
  154DOPC  H12X18532   4.538   5.727  12.985 -0.2560 -1.0928  2.1247
  154DOPC  H12Y18533   4.379   5.789  12.901 -0.9401  0.0978  0.6154
  154DOPC  C31318534   4.394   5.586  12.900  0.1662  0.1198  0.2061
  154DOPC  H13X18535   4.443   5.498  12.946 -0.3955 -0.5036 -0.3601
  154DOPC  H13Y18536   4.284   5.579  12.917  0.0705  1.8996  0.4461
  154DOPC  C31418537   4.420   5.588  12.751 -0.4439  0.0343 -0.1855
  154DOPC  H14X18538   4.330   5.639  12.710 -0.3568  0.3750  0.0355
  154DOPC  H14Y18539   4.508   5.649  12.723  0.5075 -2.1631 -2.3305
  154DOPC  C31518540   4.425   5.440  12.706  0.2468 -0.7198  0.1975
  154DOPC  H15X18541   4.335   5.395  12.752 -0.0687 -0.1070  0.1888
  154DOPC  H15Y18542   4.515   5.385  12.740  1.5543 -0.1895 -2.1420
  154DOPC  C31618543   4.423   5.424  12.549  0.0667  0.4786  0.7888
  154DOPC  H16X18544   4.345   5.492  12.509 -1.2566 -1.7271 -0.5867
  154DOPC  H16Y18545   4.518   5.460  12.505 -1.7837  1.1589 -3.0590
  154DOPC  C31718546   4.392   5.285  12.499 -0.4046  0.6715 -0.0555
  154DOPC  H17X18547   4.467   5.210  12.533 -1.5669 -0.9192 -0.8810
  154DOPC  H17Y18548   4.297   5.255  12.547 -0.3403  0.0811 -0.2801
  154DOPC  C31818549   4.392   5.261  12.351  0.4296  0.4620 -0.3979
  154DOPC  H18X18550   4.357   5.160  12.319 -0.0355  0.7860 -0.9483
  154DOPC  H18Y18551   4.322   5.342  12.318 -0.1508  0.9227  1.7850
  154DOPC  H18Z18552   4.483   5.279  12.291  1.1455 -0.8027  0.2754
  155DOPC     N18553   0.142   4.589  15.469  1.3029 -0.2881  0.7522
  155DOPC   C1218554   0.210   4.691  15.391 -0.1786 -0.6707  0.5241
  155DOPC  H12A18555   0.308   4.709  15.433 -0.8419  2.3196  1.0094
  155DOPC  H12B18556   0.168   4.789  15.405  0.0712 -0.3404 -0.8483
  155DOPC   C1318557   0.192   4.450  15.447  0.5690  0.4030 -0.0560
  155DOPC  H13A18558   0.182   4.437  15.341  1.2765  0.4971 -0.1395
  155DOPC  H13B18559   0.300   4.446  15.458  0.6734 -0.0939 -1.1398
  155DOPC  H13C18560   0.151   4.380  15.519  1.1519  1.4036  1.3037
  155DOPC   C1418561  -0.009   4.609  15.446  0.2642 -0.5004 -0.1234
  155DOPC  H14A18562  -0.032   4.591  15.343  1.6749  2.2741 -1.0398
  155DOPC  H14B18563  -0.057   4.531  15.503 -0.8872 -1.3120 -2.1391
  155DOPC  H14C18564  -0.047   4.700  15.489 -0.4413 -0.9393  0.1985
  155DOPC   C1518565   0.159   4.620  15.615  0.5159  0.0273 -0.3610
  155DOPC  H15A18566   0.137   4.721  15.645 -1.5365 -0.3484 -0.4672
  155DOPC  H15B18567   0.258   4.593  15.650  0.9016  1.1401 -0.5717
  155DOPC  H15C18568   0.095   4.555  15.673 -0.0146  0.4642 -0.4518
  155DOPC   C1118569   0.207   4.670  15.233 -0.0720 -0.0731 -0.7004
  155DOPC  H11A18570   0.281   4.734  15.180 -0.7732  0.1568 -1.4112
  155DOPC  H11B18571   0.257   4.572  15.216 -0.5559 -0.2069 -1.4189
  155DOPC     P18572   0.031   4.830  15.156  0.0648  0.0309  0.1723
  155DOPC   O1318573   0.119   4.911  15.064 -0.2469  0.1803 -0.1776
  155DOPC   O1418574   0.010   4.893  15.291 -0.2668 -0.1564 -0.1057
  155DOPC   O1218575   0.079   4.678  15.170 -0.0605  0.3670  0.5833
  155DOPC   O1118576  -0.113   4.803  15.087  0.2494  0.8619 -0.4530
  155DOPC    C118577  -0.137   4.716  14.975  0.6751  0.0185 -0.5292
  155DOPC    HA18578  -0.178   4.618  15.006 -0.0711 -0.0901 -1.8061
  155DOPC    HB18579  -0.037   4.694  14.931  0.9207 -3.0089  1.2884
  155DOPC    C218580  -0.213   4.781  14.863  0.6247 -1.2196  0.0823
  155DOPC    HS18581  -0.318   4.799  14.895  1.4907  2.9844  1.1470
  155DOPC   O2118582  -0.198   4.687  14.754 -0.0548 -0.0413 -0.7293
  155DOPC   C2118583  -0.287   4.703  14.657  0.7956  0.1787 -0.3610
  155DOPC   O2218584  -0.382   4.778  14.659  0.2004  0.2898  0.6821
  155DOPC   C2218585  -0.246   4.600  14.549  0.3794  0.0482  0.3888
  155DOPC   H2R18586  -0.213   4.503  14.591 -0.9196 -1.1162 -1.1113
  155DOPC   H2S18587  -0.156   4.640  14.498 -0.3605 -1.4119 -2.2986
  155DOPC    C318588  -0.164   4.928  14.827 -0.2471 -0.3848  0.4545
  155DOPC    HX18589  -0.053   4.933  14.817 -0.3081 -0.1067 -0.1141
  155DOPC    HY18590  -0.186   4.966  14.929  3.1046  0.1940  1.0961
  155DOPC   O3118591  -0.235   5.008  14.739  0.2759  0.1347  0.7070
  155DOPC   C3118592  -0.191   5.017  14.615  0.1989 -0.0699 -0.3354
  155DOPC   O3218593  -0.093   4.965  14.571 -0.1000 -0.1125 -0.1051
  155DOPC   C3218594  -0.277   5.122  14.544 -1.4368 -0.0883 -0.3084
  155DOPC   H2X18595  -0.379   5.086  14.570 -2.1954  1.0225 -1.5390
  155DOPC   H2Y18596  -0.274   5.222  14.593 -2.3942 -0.0795 -0.2387
  155DOPC   C2318597  -0.355   4.577  14.444  0.3603 -0.6345 -0.1824
  155DOPC   H3R18598  -0.300   4.532  14.358  0.8264 -2.1858  0.8860
  155DOPC   H3S18599  -0.398   4.676  14.417 -1.1438 -1.7658 -2.2477
  155DOPC   C2418600  -0.461   4.465  14.483  0.2099 -0.5348  0.6857
  155DOPC   H4R18601  -0.510   4.505  14.575  3.8878 -0.4046  2.7731
  155DOPC   H4S18602  -0.406   4.371  14.507  2.3063 -0.0012 -1.6474
  155DOPC   C2518603  -0.563   4.435  14.370 -0.6204 -0.0650  1.0892
  155DOPC   H5R18604  -0.629   4.524  14.353  0.2077  0.4217  0.3675
  155DOPC   H5S18605  -0.634   4.357  14.406  0.8174 -1.5863  0.7036
  155DOPC   C2618606  -0.507   4.392  14.238  0.8749 -0.4378 -0.0093
  155DOPC   H6R18607  -0.470   4.288  14.251 -2.1044 -1.7666 -1.3838
  155DOPC   H6S18608  -0.434   4.456  14.182 -1.2352  0.4992 -1.8493
  155DOPC   C2718609  -0.620   4.373  14.134 -0.0805 -0.1782 -0.1118
  155DOPC   H7R18610  -0.659   4.476  14.116  1.1992 -0.0711 -2.8331
  155DOPC   H7S18611  -0.697   4.310  14.182  0.0006 -1.2453 -1.3251
  155DOPC   C2818612  -0.581   4.315  13.997 -0.2570  0.5179 -0.6675
  155DOPC   H8R18613  -0.538   4.212  14.006 -0.4876  0.5797  2.3112
  155DOPC   H8S18614  -0.505   4.383  13.954  0.6465  1.5397  2.3042
  155DOPC   C2918615  -0.694   4.289  13.899  0.5814  0.0174 -0.4576
  155DOPC   H9R18616  -0.777   4.232  13.943  0.6720  0.0932 -0.1882
  155DOPC  C21018617  -0.710   4.333  13.772 -0.6243 -0.5829  0.0503
  155DOPC  H10R18618  -0.804   4.303  13.722 -0.0282 -0.9323 -0.8742
  155DOPC  C21118619  -0.620   4.410  13.687  0.3761 -0.2246  0.4033
  155DOPC  H11R18620  -0.517   4.405  13.728  1.2274  0.0237 -1.5802
  155DOPC  H11S18621  -0.642   4.519  13.685 -2.6664 -0.6648  2.7725
  155DOPC  C21218622  -0.615   4.371  13.531 -0.0194  0.2100 -0.1200
  155DOPC  H12R18623  -0.582   4.265  13.527 -0.2739  0.0656  1.1551
  155DOPC  H12S18624  -0.532   4.426  13.482  1.8863 -1.0695  1.4627
  155DOPC  C21318625  -0.752   4.383  13.464 -0.9322  0.0348 -0.5876
  155DOPC  H13R18626  -0.775   4.492  13.467 -2.5568 -0.2633  2.5218
  155DOPC  H13S18627  -0.824   4.312  13.510 -2.6586  1.1496 -1.4977
  155DOPC  C21418628  -0.736   4.341  13.316 -0.1985 -0.0181 -0.9939
  155DOPC  H14R18629  -0.728   4.231  13.307  1.3144  0.0071 -0.3623
  155DOPC  H14S18630  -0.642   4.386  13.278 -0.4883  1.6869  0.1733
  155DOPC  C21518631  -0.840   4.396  13.221  0.4652 -0.4242  0.2143
  155DOPC  H15R18632  -0.827   4.505  13.208 -1.6882 -0.2637 -1.1514
  155DOPC  H15S18633  -0.941   4.385  13.266  0.4135 -0.2249  0.1461
  155DOPC  C21618634  -0.833   4.321  13.087  0.0334 -0.3816 -0.3408
  155DOPC  H16R18635  -0.852   4.212  13.095  0.0117 -0.3582 -0.0399
  155DOPC  H16S18636  -0.735   4.323  13.036 -1.4165 -1.2738 -3.4535
  155DOPC  C21718637  -0.919   4.384  12.983 -0.6294 -0.5829  1.2787
  155DOPC  H17R18638  -0.905   4.490  12.954 -3.5224 -0.0504  1.5494
  155DOPC  H17S18639  -1.024   4.385  13.021 -1.4591 -1.9391 -0.7888
  155DOPC  C21818640  -0.924   4.300  12.856  0.1618  0.2306 -0.0892
  155DOPC  H18R18641  -0.828   4.315  12.801 -0.1795  0.3818 -0.6589
  155DOPC  H18S18642  -1.012   4.332  12.795  0.3167 -0.4880 -0.6988
  155DOPC  H18T18643  -0.943   4.193  12.878  2.5856 -0.6531 -1.8481
  155DOPC   C3318644  -0.255   5.114  14.395  0.0413  0.3503 -0.2598
  155DOPC   H3X18645  -0.247   5.014  14.347 -2.0506 -0.6108  1.2365
  155DOPC   H3Y18646  -0.151   5.151  14.379  0.4988 -1.0243 -0.6073
  155DOPC   C3418647  -0.351   5.205  14.314  0.4733  0.1236 -0.1701
  155DOPC   H4X18648  -0.348   5.300  14.371  1.5743  0.4626 -0.7464
  155DOPC   H4Y18649  -0.456   5.171  14.323 -0.0285  1.7665  0.4998
  155DOPC   C3518650  -0.321   5.232  14.166  0.7635  1.1300  0.4123
  155DOPC   H5X18651  -0.213   5.259  14.166  0.6984  1.4205  1.4975
  155DOPC   H5Y18652  -0.376   5.316  14.119 -0.7834 -0.7864 -1.3606
  155DOPC   C3618653  -0.322   5.105  14.073  0.2634 -0.2053  0.0287
  155DOPC   H6X18654  -0.252   5.030  14.115  0.2060  0.7716  2.0023
  155DOPC   H6Y18655  -0.417   5.047  14.077  1.1416 -1.6008  1.8371
  155DOPC   C3718656  -0.276   5.130  13.927  0.3350  0.3947 -0.3448
  155DOPC   H7X18657  -0.356   5.093  13.860 -0.5858  1.2596  0.2448
  155DOPC   H7Y18658  -0.266   5.240  13.912 -0.8247  0.7810  1.3729
  155DOPC   C3818659  -0.143   5.055  13.894  0.4377  0.3783 -0.2747
  155DOPC   H8X18660  -0.120   5.069  13.786  1.0292 -0.0149 -0.2043
  155DOPC   H8Y18661  -0.172   4.948  13.904  0.2226  0.2591 -1.9149
  155DOPC   C3918662  -0.018   5.078  13.980  0.5681 -0.0915 -0.5815
  155DOPC   H9X18663  -0.031   5.087  14.089 -0.1953 -1.2637 -0.5615
  155DOPC  C31018664   0.105   5.071  13.930 -0.5744 -0.2037  0.4746
  155DOPC  H10X18665   0.192   5.086  13.995  0.7854 -1.2522 -1.0371
  155DOPC  C31118666   0.141   5.052  13.784  0.3299 -0.2590  0.3495
  155DOPC  H11X18667   0.247   5.078  13.765  0.6764 -1.2419  0.9018
  155DOPC  H11Y18668   0.079   5.119  13.721  1.4479 -0.0445 -0.5475
  155DOPC  C31218669   0.121   4.906  13.738 -0.6494 -0.4930 -0.5375
  155DOPC  H12X18670   0.027   4.858  13.773 -1.0262  0.3773 -0.3085
  155DOPC  H12Y18671   0.196   4.848  13.795  0.5429  1.6611  0.2087
  155DOPC  C31318672   0.141   4.883  13.590  0.3182  0.0444  0.2140
  155DOPC  H13X18673   0.247   4.897  13.561  0.6149 -1.3868  0.5550
  155DOPC  H13Y18674   0.123   4.780  13.553 -0.9912  0.7559 -1.2316
  155DOPC  C31418675   0.057   4.971  13.486 -0.3614  0.2656  0.2453
  155DOPC  H14X18676  -0.049   4.944  13.500 -0.3633 -2.0917 -3.1170
  155DOPC  H14Y18677   0.069   5.076  13.520  4.4766 -0.6121  2.2124
  155DOPC  C31518678   0.085   4.950  13.347 -0.4425  0.1807  0.2591
  155DOPC  H15X18679   0.072   4.843  13.320 -1.3615  0.8005 -2.0258
  155DOPC  H15Y18680   0.190   4.985  13.335 -0.7297  1.5351  1.4000
  155DOPC  C31618681   0.001   5.034  13.253  0.1399 -0.1909 -0.5947
  155DOPC  H16X18682  -0.015   4.987  13.154 -0.2967  0.4114 -0.8166
  155DOPC  H16Y18683  -0.102   5.042  13.293 -0.6514 -1.2195 -2.3302
  155DOPC  C31718684   0.071   5.174  13.236  0.4555  0.6825  0.5237
  155DOPC  H17X18685   0.058   5.239  13.325 -0.8864  1.0726  0.0624
  155DOPC  H17Y18686   0.180   5.161  13.217  0.4776  0.7121  0.6299
  155DOPC  C31818687   0.009   5.256  13.121 -0.3742  0.2565  0.5268
  155DOPC  H18X18688   0.037   5.219  13.020 -1.1874  0.2693  0.2902
  155DOPC  H18Y18689  -0.102   5.246  13.128 -0.3100 -0.1995  0.9445
  155DOPC  H18Z18690   0.046   5.360  13.132 -3.2738  1.4139  0.3239
  156DOPC     N18691   4.181   0.615  15.012 -0.8564 -0.8185  0.5092
  156DOPC   C1218692   4.086   0.679  14.912  0.1141 -0.4853  0.2691
  156DOPC  H12A18693   4.071   0.778  14.953 -0.4966 -0.8908  1.0581
  156DOPC  H12B18694   3.994   0.622  14.912 -0.4279  0.3358  2.0131
  156DOPC   C1318695   4.198   0.469  14.999 -0.1809 -0.5818 -0.6650
  156DOPC  H13A18696   4.264   0.423  15.071  1.5570 -0.0831 -1.8741
  156DOPC  H13B18697   4.098   0.428  15.011 -0.3918  0.4922  1.6424
  156DOPC  H13C18698   4.228   0.441  14.899 -0.5416  2.2193 -1.6587
  156DOPC   C1418699   4.132   0.639  15.153  0.8834 -0.1428  0.0721
  156DOPC  H14A18700   4.130   0.741  15.189 -0.0714 -0.4973  1.0835
  156DOPC  H14B18701   4.030   0.608  15.170  0.5259  1.7470  1.6693
  156DOPC  H14C18702   4.180   0.571  15.221  0.9873 -0.5523 -0.4035
  156DOPC   C1518703   4.319   0.683  15.000  0.7897 -0.8641 -0.2784
  156DOPC  H15A18704   4.319   0.791  15.006  2.8685 -0.8857  0.9325
  156DOPC  H15B18705   4.365   0.660  14.905  0.5997 -2.3774 -0.0269
  156DOPC  H15C18706   4.386   0.641  15.073 -0.2357  0.9323  1.8188
  156DOPC   C1118707   4.136   0.709  14.764 -0.6452  0.0219  0.2046
  156DOPC  H11A18708   4.053   0.761  14.712  0.5096 -0.1225 -1.9122
  156DOPC  H11B18709   4.216   0.786  14.762 -1.6020  1.0217 -0.6429
  156DOPC     P18710   4.064   0.495  14.627 -0.0129  0.2234 -0.2282
  156DOPC   O1318711   3.929   0.521  14.686  0.7147 -0.4529 -0.8696
  156DOPC   O1418712   4.104   0.355  14.637 -0.8324  0.5250 -0.6927
  156DOPC   O1218713   4.173   0.590  14.693  0.0840 -0.2929  0.1994
  156DOPC   O1118714   4.072   0.532  14.470  0.2978  0.4039 -0.5057
  156DOPC    C118715   4.095   0.653  14.406 -0.1687  0.4250 -0.5393
  156DOPC    HA18716   4.194   0.667  14.357 -0.2134  0.1914 -0.7002
  156DOPC    HB18717   4.084   0.739  14.475  0.5879 -0.0965  0.2514
  156DOPC    C218718   3.985   0.678  14.301  0.0506 -0.2696  0.7575
  156DOPC    HS18719   3.895   0.667  14.366  0.9487 -0.7554  1.9612
  156DOPC   O2118720   4.003   0.584  14.193 -0.0278  0.1815  0.5135
  156DOPC   C2118721   3.890   0.522  14.150 -0.6740 -0.2913  0.0425
  156DOPC   O2218722   3.785   0.516  14.211  0.2284 -0.3474 -0.3276
  156DOPC   C2218723   3.910   0.465  14.004  0.0508 -0.1569  0.3395
  156DOPC   H2R18724   4.018   0.467  13.977  0.3837 -1.4570  1.4412
  156DOPC   H2S18725   3.854   0.530  13.934 -1.3126 -3.3619 -1.7835
  156DOPC    C318726   3.983   0.817  14.243  0.6424  0.4605  0.7384
  156DOPC    HX18727   4.087   0.838  14.207 -0.1858 -0.2554 -2.3717
  156DOPC    HY18728   3.942   0.894  14.312 -0.2545 -0.7452  1.5646
  156DOPC   O3118729   3.906   0.813  14.122  0.2821 -0.1501 -0.2156
  156DOPC   C3118730   3.778   0.837  14.134  0.1666  0.0226 -0.4336
  156DOPC   O3218731   3.724   0.867  14.235  0.2812 -0.4782 -0.2667
  156DOPC   C3218732   3.712   0.822  13.993 -0.4602  0.6589 -0.0021
  156DOPC   H2X18733   3.713   0.712  13.977 -2.7614  0.6403 -0.3004
  156DOPC   H2Y18734   3.602   0.837  14.001 -0.6741 -0.7084 -0.0691
  156DOPC   C2318735   3.852   0.322  13.992  0.1263 -0.5159 -0.0359
  156DOPC   H3R18736   3.743   0.312  14.010 -0.0518  1.0563 -0.0362
  156DOPC   H3S18737   3.904   0.266  14.073  0.2522 -0.8606 -0.3552
  156DOPC   C2418738   3.887   0.253  13.861 -0.0857 -0.0780 -0.7595
  156DOPC   H4R18739   3.852   0.148  13.869  1.3380 -0.6663 -1.7742
  156DOPC   H4S18740   3.996   0.256  13.840 -0.8671  1.4592 -6.0844
  156DOPC   C2518741   3.815   0.320  13.745  0.2888 -0.0176  0.2395
  156DOPC   H5R18742   3.851   0.424  13.732 -1.3260  0.6446  0.8323
  156DOPC   H5S18743   3.707   0.324  13.768  0.3597  0.0340  0.5599
  156DOPC   C2618744   3.832   0.236  13.614 -0.4489  0.1437  0.1128
  156DOPC   H6R18745   3.791   0.133  13.620  1.5658 -0.7105 -0.0353
  156DOPC   H6S18746   3.936   0.230  13.576 -0.0119 -0.0390  1.2912
  156DOPC   C2718747   3.748   0.307  13.506  0.1146  0.5864  0.0710
  156DOPC   H7R18748   3.790   0.409  13.492 -0.4433  0.8289  0.1691
  156DOPC   H7S18749   3.647   0.334  13.544  0.5385  2.1437  0.1795
  156DOPC   C2818750   3.753   0.226  13.373 -0.0271 -0.1146 -0.1471
  156DOPC   H8R18751   3.661   0.258  13.321 -1.1124 -0.4675  1.4861
  156DOPC   H8S18752   3.732   0.122  13.408  1.6550 -0.1195  0.9492
  156DOPC   C2918753   3.872   0.234  13.282 -0.2495  0.1273  0.1079
  156DOPC   H9R18754   3.963   0.193  13.329  1.3783  0.7035 -2.3892
  156DOPC  C21018755   3.892   0.292  13.160  0.5214 -0.0181 -0.2376
  156DOPC  H10R18756   3.990   0.313  13.115 -0.3012  1.7495 -1.3117
  156DOPC  C21118757   3.778   0.358  13.089  0.3092  0.2923 -0.4830
  156DOPC  H11R18758   3.781   0.467  13.113  0.2304  0.3820 -0.8602
  156DOPC  H11S18759   3.682   0.315  13.124  0.3856 -1.4035 -2.2013
  156DOPC  C21218760   3.800   0.331  12.934 -0.5185 -0.2956  0.0734
  156DOPC  H12R18761   3.903   0.362  12.905 -0.1794 -2.1668 -0.9050
  156DOPC  H12S18762   3.725   0.396  12.886 -0.1086  0.8073  0.8774
  156DOPC  C21318763   3.782   0.179  12.905  0.1960  0.1235  0.2408
  156DOPC  H13R18764   3.684   0.160  12.954 -0.8179 -0.4762 -1.9339
  156DOPC  H13S18765   3.865   0.120  12.951 -1.8528 -0.9955  2.8057
  156DOPC  C21418766   3.774   0.145  12.752 -0.0314 -1.0727  0.3318
  156DOPC  H14R18767   3.861   0.178  12.691 -0.4689 -0.1801  0.1768
  156DOPC  H14S18768   3.694   0.211  12.712  1.6581  0.8633  0.0545
  156DOPC  C21518769   3.736  -0.001  12.727 -1.0027  0.0702 -0.1603
  156DOPC  H15R18770   3.638  -0.013  12.777 -0.1596 -1.2178  1.2726
  156DOPC  H15S18771   3.803  -0.063  12.790  1.2270  2.8007  0.3503
  156DOPC  C21618772   3.740  -0.049  12.576  0.1559  1.0368 -0.5289
  156DOPC  H16R18773   3.724  -0.159  12.572  1.5617  0.7094  1.5096
  156DOPC  H16S18774   3.837  -0.019  12.532  0.3636  1.8608  0.4538
  156DOPC  C21718775   3.622   0.009  12.498  0.5381  0.1106  0.2551
  156DOPC  H17R18776   3.647   0.113  12.470 -1.0699  0.5546  0.3658
  156DOPC  H17S18777   3.523   0.007  12.549 -0.6248  0.4362 -1.8761
  156DOPC  C21818778   3.591  -0.062  12.368  0.0338 -0.4638  0.9136
  156DOPC  H18R18779   3.523   0.001  12.307  0.4212  0.7724  1.7063
  156DOPC  H18S18780   3.539  -0.157  12.389 -0.4849  0.0987  2.3533
  156DOPC  H18T18781   3.685  -0.072  12.309 -0.1256 -0.2811  0.6295
  156DOPC   C3318782   3.778   0.889  13.868  0.6817 -0.2964 -0.0966
  156DOPC   H3X18783   3.886   0.861  13.867  0.0420 -3.1245  0.7763
  156DOPC   H3Y18784   3.770   1.000  13.875  0.5149 -0.3118 -0.0365
  156DOPC   C3418785   3.709   0.846  13.736  0.1273  0.1366  0.1896
  156DOPC   H4X18786   3.603   0.850  13.769  0.1039 -0.1750  0.1551
  156DOPC   H4Y18787   3.735   0.742  13.711  0.1094 -0.1392  1.2644
  156DOPC   C3518788   3.728   0.941  13.623  0.3170  0.0998 -0.4509
  156DOPC   H5X18789   3.838   0.947  13.607  0.4291  1.6288  0.6886
  156DOPC   H5Y18790   3.707   1.043  13.662  0.5599  1.0521 -2.6647
  156DOPC   C3618791   3.652   0.902  13.495  0.7495  0.2287  0.4829
  156DOPC   H6X18792   3.665   0.792  13.487  3.1729  0.5488 -1.0945
  156DOPC   H6Y18793   3.543   0.918  13.508  0.7931  1.7130 -0.6778
  156DOPC   C3718794   3.704   0.977  13.380 -0.3880 -0.3467  0.9995
  156DOPC   H7X18795   3.684   1.085  13.394  1.0260  0.0900 -0.0818
  156DOPC   H7Y18796   3.814   0.960  13.372 -0.4801 -0.0924 -1.9259
  156DOPC   C3818797   3.636   0.943  13.241 -0.7357  0.1084 -0.2045
  156DOPC   H8X18798   3.688   1.005  13.164 -0.3090  2.6289  1.9711
  156DOPC   H8Y18799   3.537   0.993  13.255 -1.5769 -1.7550  0.7023
  156DOPC   C3918800   3.626   0.789  13.211 -0.2263  0.0693 -0.0549
  156DOPC   H9X18801   3.584   0.724  13.290 -0.9633 -0.3200 -0.7544
  156DOPC  C31018802   3.679   0.733  13.104  0.2898  0.0819  1.0487
  156DOPC  H10X18803   3.676   0.624  13.089  1.3202  0.2374 -0.5497
  156DOPC  C31118804   3.725   0.813  12.980 -0.0637 -0.4002  0.2302
  156DOPC  H11X18805   3.822   0.861  13.006  0.0972 -1.1465  1.0538
  156DOPC  H11Y18806   3.659   0.894  12.942 -0.9107 -0.4634  1.5120
  156DOPC  C31218807   3.749   0.717  12.863  0.4255 -0.4910 -0.4297
  156DOPC  H12X18808   3.809   0.628  12.892 -0.5906 -1.1418 -0.3194
  156DOPC  H12Y18809   3.832   0.766  12.807  0.8716 -0.2800  0.3874
  156DOPC  C31318810   3.634   0.689  12.772  0.0898 -0.0152  0.0314
  156DOPC  H13X18811   3.549   0.634  12.817 -0.3476  0.1570 -0.5739
  156DOPC  H13Y18812   3.582   0.781  12.739  1.5700  0.0452 -2.4096
  156DOPC  C31418813   3.670   0.607  12.646  0.1425 -0.0248  0.4591
  156DOPC  H14X18814   3.711   0.507  12.670  1.4952  0.3930 -0.0379
  156DOPC  H14Y18815   3.576   0.580  12.594 -0.0294  1.5443 -0.0944
  156DOPC  C31518816   3.757   0.687  12.542  0.0393  0.5149 -0.3765
  156DOPC  H15X18817   3.865   0.707  12.554  0.3955 -1.6388  0.3327
  156DOPC  H15Y18818   3.708   0.787  12.543  0.7058  0.8451  1.2086
  156DOPC  C31618819   3.732   0.635  12.397 -0.0302  0.2983 -0.3688
  156DOPC  H16X18820   3.816   0.674  12.336  0.3423  1.5420  0.8908
  156DOPC  H16Y18821   3.725   0.529  12.364 -1.6507  0.7906 -1.7554
  156DOPC  C31718822   3.602   0.694  12.343 -0.0983  0.0706 -0.2434
  156DOPC  H17X18823   3.523   0.691  12.421 -0.6417 -0.7512 -0.8077
  156DOPC  H17Y18824   3.614   0.802  12.323 -1.9079  0.4080  0.2992
  156DOPC  C31818825   3.549   0.624  12.217  0.2512 -0.4201 -0.0396
  156DOPC  H18X18826   3.451   0.664  12.182  1.5728  2.5641 -0.6059
  156DOPC  H18Y18827   3.617   0.645  12.132  0.4010  3.3738  0.8624
  156DOPC  H18Z18828   3.528   0.517  12.239 -2.5739  0.1732  0.5797
  157DOPC     N18829   4.464   2.992  15.247 -0.7888  0.1913  0.0109
  157DOPC   C1218830   4.334   2.919  15.289 -0.3458 -0.0730  0.1821
  157DOPC  H12A18831   4.262   2.984  15.337 -0.8603  1.8976 -3.0002
  157DOPC  H12B18832   4.356   2.848  15.368 -1.1699 -0.8022 -0.2233
  157DOPC   C1318833   4.516   3.062  15.372 -0.4825 -0.0464  0.3232
  157DOPC  H13A18834   4.615   3.101  15.354 -0.8862  0.7735 -0.2002
  157DOPC  H13B18835   4.448   3.145  15.381 -1.4919 -0.9378  1.1397
  157DOPC  H13C18836   4.516   2.997  15.458 -0.3535  0.0297  0.3816
  157DOPC   C1418837   4.440   3.090  15.135  0.0247  0.2161 -0.1213
  157DOPC  H14A18838   4.535   3.126  15.097  0.4738  0.6984  1.3680
  157DOPC  H14B18839   4.391   3.027  15.063  1.9246 -2.9237  1.1233
  157DOPC  H14C18840   4.389   3.175  15.179  1.4739  1.1752 -0.2201
  157DOPC   C1518841   4.565   2.893  15.215 -0.3146 -0.2190  0.2894
  157DOPC  H15A18842   4.558   2.818  15.293 -0.4144 -0.5354 -0.0231
  157DOPC  H15B18843   4.664   2.935  15.203 -0.5164 -0.4010 -2.5439
  157DOPC  H15C18844   4.536   2.847  15.122 -0.6565  0.7521 -0.0934
  157DOPC   C1118845   4.256   2.850  15.165  0.4235  0.3534  0.4953
  157DOPC  H11A18846   4.319   2.779  15.109 -0.7679 -1.3729  1.2677
  157DOPC  H11B18847   4.184   2.780  15.212  0.0422 -0.5961 -1.4258
  157DOPC     P18848   4.081   3.028  15.125  0.1809  0.3048  0.0563
  157DOPC   O1318849   4.082   3.163  15.073  0.0439 -0.0319  0.0975
  157DOPC   O1418850   4.065   3.021  15.274 -0.2504  0.7358  0.2888
  157DOPC   O1218851   4.203   2.940  15.066 -0.3185 -0.2455  0.3631
  157DOPC   O1118852   3.949   2.963  15.067  1.4838 -0.0598  0.0536
  157DOPC    C118853   3.958   2.867  14.953 -0.0676 -0.1832 -0.1650
  157DOPC    HA18854   3.855   2.840  14.921 -0.1373  0.7064 -0.7326
  157DOPC    HB18855   4.016   2.776  14.981  0.0083 -0.0368  0.1590
  157DOPC    C218856   4.010   2.928  14.813 -0.6989 -0.3798  1.0401
  157DOPC    HS18857   4.114   2.960  14.835 -0.5344 -0.9601  1.0992
  157DOPC   O2118858   3.920   3.033  14.767 -0.0356  0.5658 -0.3688
  157DOPC   C2118859   3.976   3.142  14.741  0.0692  0.0753 -1.0220
  157DOPC   O2218860   4.092   3.172  14.752 -0.9221  0.4450 -0.4743
  157DOPC   C2218861   3.870   3.237  14.699  0.6564 -0.9376  0.6602
  157DOPC   H2R18862   3.809   3.263  14.788  1.8584 -0.4768  1.3661
  157DOPC   H2S18863   3.812   3.180  14.622 -2.0604 -0.7265  2.3981
  157DOPC    C318864   4.031   2.818  14.694  0.0820  0.4431 -0.2372
  157DOPC    HX18865   3.935   2.762  14.694  0.7895 -0.8682  1.5942
  157DOPC    HY18866   4.116   2.756  14.729  0.2530 -0.3653 -1.9971
  157DOPC   O3118867   4.055   2.886  14.572  0.1484 -0.1067  0.1053
  157DOPC   C3118868   4.129   2.819  14.494  0.0314  1.0308  0.4530
  157DOPC   O3218869   4.170   2.701  14.510  0.0966 -0.1252 -0.1708
  157DOPC   C3218870   4.167   2.900  14.372 -0.7487  0.4114  0.0848
  157DOPC   H2X18871   4.071   2.916  14.318 -0.1344 -0.6390 -1.3562
  157DOPC   H2Y18872   4.214   2.994  14.407  1.7743 -1.2910  1.5846
  157DOPC   C2318873   3.928   3.369  14.632  0.0973  0.3659 -0.1735
  157DOPC   H3R18874   3.966   3.442  14.707 -0.5031  0.8033 -0.2890
  157DOPC   H3S18875   3.835   3.417  14.595 -0.2039  0.9872  1.2877
  157DOPC   C2418876   4.036   3.363  14.526  0.4054  0.4000 -0.4256
  157DOPC   H4R18877   4.121   3.301  14.562 -1.1447 -0.8144  1.3316
  157DOPC   H4S18878   4.066   3.467  14.500 -1.8786  1.1081 -0.4323
  157DOPC   C2518879   3.979   3.291  14.405  0.2852  0.0051  1.0341
  157DOPC   H5R18880   3.885   3.341  14.374  1.1181  0.3702 -1.1495
  157DOPC   H5S18881   3.950   3.185  14.420 -2.8587  0.3071 -1.6999
  157DOPC   C2618882   4.075   3.281  14.281  0.1314 -0.1490  0.2304
  157DOPC   H6R18883   4.168   3.229  14.311 -0.2398  0.2854  2.2752
  157DOPC   H6S18884   4.105   3.385  14.256  0.1732 -0.7937 -2.8081
  157DOPC   C2718885   4.019   3.219  14.148 -0.2507 -0.5276  0.2997
  157DOPC   H7R18886   3.927   3.275  14.119 -0.7791 -0.0697  2.6682
  157DOPC   H7S18887   3.981   3.118  14.175 -1.3147 -0.5577 -1.1946
  157DOPC   C2818888   4.118   3.200  14.021  0.6655  0.2938 -0.5119
  157DOPC   H8R18889   4.210   3.160  14.067  1.6723  1.3814 -1.5298
  157DOPC   H8S18890   4.135   3.301  13.979 -0.2419 -0.1510 -2.0366
  157DOPC   C2918891   4.056   3.119  13.905 -0.0155 -0.6328 -0.1347
  157DOPC   H9R18892   4.060   3.009  13.907  0.3803 -0.6182 -0.1365
  157DOPC  C21018893   4.018   3.166  13.787 -0.2712 -0.1100  0.2737
  157DOPC  H10R18894   3.971   3.092  13.721  1.2269 -0.1550 -0.7728
  157DOPC  C21118895   4.009   3.310  13.741  0.1633  0.1070 -0.9343
  157DOPC  H11R18896   4.056   3.375  13.818 -0.4382  0.4147 -0.8187
  157DOPC  H11S18897   3.908   3.346  13.710 -0.6622 -1.3285 -0.0364
  157DOPC  C21218898   4.080   3.334  13.611  0.1976  0.3090 -0.2609
  157DOPC  H12R18899   4.189   3.324  13.628  0.3187  2.3923  0.5431
  157DOPC  H12S18900   4.067   3.444  13.597  0.7948  0.3663 -0.3855
  157DOPC  C21318901   4.011   3.267  13.490  0.3732 -0.0868  0.6766
  157DOPC  H13R18902   3.903   3.246  13.503 -0.2913  0.9032 -2.5602
  157DOPC  H13S18903   4.062   3.169  13.479 -0.0860 -0.0930 -2.1280
  157DOPC  C21418904   4.049   3.334  13.353 -0.2746  0.5617 -0.4375
  157DOPC  H14R18905   4.158   3.350  13.361 -0.3756  0.5092  1.4338
  157DOPC  H14S18906   4.011   3.439  13.358 -1.2446  0.1752  1.2142
  157DOPC  C21518907   3.991   3.268  13.238  0.7347 -0.2700 -0.3839
  157DOPC  H15R18908   3.880   3.265  13.240  0.7591 -0.9468  0.4329
  157DOPC  H15S18909   4.016   3.160  13.233  0.0658 -0.5855  2.0075
  157DOPC  C21618910   4.018   3.324  13.099 -0.0388  0.8263  0.1966
  157DOPC  H16R18911   4.124   3.357  13.106 -0.9864  3.8676  2.9584
  157DOPC  H16S18912   3.962   3.418  13.082  1.0779  1.6319  0.8381
  157DOPC  C21718913   3.991   3.204  12.998 -0.0696 -0.4020  0.2469
  157DOPC  H17R18914   4.054   3.120  13.034  0.0939 -0.0620  0.7814
  157DOPC  H17S18915   4.037   3.224  12.899 -0.3436  0.2458  0.2411
  157DOPC  C21818916   3.840   3.175  12.972 -0.4890 -0.5709  0.1331
  157DOPC  H18R18917   3.821   3.097  12.895 -1.2176 -0.8226  0.5653
  157DOPC  H18S18918   3.788   3.265  12.932  1.7175 -0.0582 -1.8138
  157DOPC  H18T18919   3.800   3.147  13.072 -0.5617 -0.8911  0.0153
  157DOPC   C3318920   4.260   2.828  14.273  0.4625  0.1996 -0.6076
  157DOPC   H3X18921   4.238   2.720  14.260  1.1571 -0.4979  2.9412
  157DOPC   H3Y18922   4.363   2.834  14.314  1.0115 -0.2148 -1.8801
  157DOPC   C3418923   4.263   2.890  14.129 -0.9216  0.0314  0.7853
  157DOPC   H4X18924   4.293   2.997  14.136  2.6033 -0.8618  1.5235
  157DOPC   H4Y18925   4.162   2.887  14.084 -0.9330  0.1722  0.7993
  157DOPC   C3518926   4.358   2.812  14.040  0.3972  0.1170  0.5668
  157DOPC   H5X18927   4.340   2.703  14.049 -2.6657  0.6210  2.0571
  157DOPC   H5Y18928   4.463   2.826  14.072  0.8199 -1.0382 -0.2469
  157DOPC   C3618929   4.360   2.852  13.892 -0.2190  0.3080  0.2417
  157DOPC   H6X18930   4.406   2.766  13.839  1.5875  1.5255 -0.2720
  157DOPC   H6Y18931   4.261   2.854  13.841 -0.4213  0.1567  0.6272
  157DOPC   C3718932   4.430   2.988  13.861 -0.4374  0.1237  0.1606
  157DOPC   H7X18933   4.376   3.063  13.923 -0.4336  1.1984 -1.0949
  157DOPC   H7Y18934   4.529   2.969  13.907  0.1891  0.7045 -0.9268
  157DOPC   C3818935   4.462   3.032  13.715  0.3543  0.9460  0.1050
  157DOPC   H8X18936   4.534   2.960  13.669 -0.8519  0.1832 -0.6584
  157DOPC   H8Y18937   4.510   3.132  13.725 -1.2485  1.7564  0.0255
  157DOPC   C3918938   4.343   3.041  13.622 -0.8836 -0.1520 -0.1794
  157DOPC   H9X18939   4.271   3.106  13.674  0.4389  1.5386 -0.3571
  157DOPC  C31018940   4.318   2.991  13.501  0.1727  1.1240  0.2862
  157DOPC  H10X18941   4.217   3.012  13.462 -1.0387  1.4609  3.3142
  157DOPC  C31118942   4.419   2.912  13.416  0.9774  0.3380 -0.1766
  157DOPC  H11X18943   4.378   2.811  13.397 -0.9923  1.1434 -0.3883
  157DOPC  H11Y18944   4.519   2.903  13.465  1.1554 -0.7183 -0.6934
  157DOPC  C31218945   4.438   2.962  13.274  0.0429  0.9238  0.1967
  157DOPC  H12X18946   4.531   2.927  13.223 -1.1535  1.5965 -2.6417
  157DOPC  H12Y18947   4.442   3.073  13.273 -2.1815  1.0307 -0.2404
  157DOPC  C31318948   4.333   2.910  13.179  0.0031  0.0252  0.5870
  157DOPC  H13X18949   4.318   2.800  13.187 -0.0894  0.1129  1.9037
  157DOPC  H13Y18950   4.233   2.956  13.196  0.0652  1.5497 -2.5521
  157DOPC  C31418951   4.365   2.937  13.035 -0.6254 -0.0128 -1.3164
  157DOPC  H14X18952   4.399   3.043  13.030  0.2344 -0.3169 -2.0188
  157DOPC  H14Y18953   4.455   2.876  13.014  0.3342  0.9632 -0.2028
  157DOPC  C31518954   4.259   2.891  12.943  0.1455  0.9775 -0.0892
  157DOPC  H15X18955   4.152   2.913  12.961 -1.2529 -1.5488 -3.9922
  157DOPC  H15Y18956   4.265   2.780  12.941  1.7502  1.0594 -1.7985
  157DOPC  C31618957   4.301   2.925  12.801  0.2168  0.5217 -0.1887
  157DOPC  H16X18958   4.406   2.888  12.794  0.7811  2.1541 -0.8180
  157DOPC  H16Y18959   4.235   2.866  12.734 -2.4486  1.9931  0.9989
  157DOPC  C31718960   4.298   3.077  12.769  0.1959  0.7509  0.6418
  157DOPC  H17X18961   4.202   3.122  12.802 -0.4288  0.5536 -0.8149
  157DOPC  H17Y18962   4.375   3.142  12.816 -0.7156  1.9204  0.5620
  157DOPC  C31818963   4.297   3.108  12.616  0.5489 -0.8550 -0.5370
  157DOPC  H18X18964   4.380   3.049  12.571  1.7111 -0.4466  0.9934
  157DOPC  H18Y18965   4.198   3.094  12.569 -0.6439  2.9991  0.4568
  157DOPC  H18Z18966   4.310   3.218  12.620 -2.7447 -0.4015  2.7610
  158DOPC     N18967   1.062   2.188  14.470  0.2058  0.0553 -0.2078
  158DOPC   C1218968   1.172   2.278  14.417  0.2645  0.0330 -0.6158
  158DOPC  H12A18969   1.125   2.362  14.366  0.8253 -0.0464 -1.2841
  158DOPC  H12B18970   1.207   2.231  14.326  0.0919 -0.1540 -0.5846
  158DOPC   C1318971   0.998   2.246  14.594  0.5266  0.3149 -0.3460
  158DOPC  H13A18972   1.069   2.280  14.668 -1.8849  1.6946  1.4708
  158DOPC  H13B18973   0.932   2.330  14.578 -1.6431 -0.6451  2.6294
  158DOPC  H13C18974   0.941   2.166  14.639  0.3966  0.2075 -0.6942
  158DOPC   C1418975   1.127   2.058  14.505 -0.0208  0.8084  0.2887
  158DOPC  H14A18976   1.172   2.009  14.420 -1.3590 -2.0668  1.1393
  158DOPC  H14B18977   1.213   2.078  14.567 -1.0551 -0.3865  2.1934
  158DOPC  H14C18978   1.068   1.982  14.554  0.9803 -1.3017 -1.5805
  158DOPC   C1518979   0.956   2.155  14.364 -0.1356 -0.1821 -0.9034
  158DOPC  H15A18980   0.909   2.244  14.327 -1.9375  0.2320  2.0032
  158DOPC  H15B18981   0.875   2.091  14.398 -2.9032  1.3303 -4.0694
  158DOPC  H15C18982   1.003   2.104  14.281  0.4109  0.0032 -0.7053
  158DOPC   C1118983   1.280   2.323  14.519 -0.5719 -0.4268 -0.8744
  158DOPC  H11A18984   1.313   2.243  14.589  1.8109  0.9221 -0.3613
  158DOPC  H11B18985   1.371   2.353  14.462  0.5105 -0.9802  0.5056
  158DOPC     P18986   1.222   2.567  14.546  0.0603 -0.2308  0.0722
  158DOPC   O1318987   1.195   2.665  14.651  0.7921 -0.3278  0.0360
  158DOPC   O1418988   1.135   2.577  14.424 -0.3006 -0.0845 -0.4635
  158DOPC   O1218989   1.226   2.428  14.600  0.5370  0.0213  0.1224
  158DOPC   O1118990   1.374   2.587  14.509 -0.5368 -0.5662 -0.1181
  158DOPC    C118991   1.415   2.666  14.402 -0.4419 -0.3811  0.5042
  158DOPC    HA18992   1.503   2.726  14.434 -0.0020  0.2422 -1.7189
  158DOPC    HB18993   1.340   2.742  14.371  0.1776  0.3742  0.8106
  158DOPC    C218994   1.452   2.584  14.279 -0.4833 -0.2011 -0.6541
  158DOPC    HS18995   1.356   2.535  14.251  0.6798 -1.9026 -1.9023
  158DOPC   O2118996   1.548   2.485  14.316 -0.4606  0.8366  0.2037
  158DOPC   C2118997   1.555   2.374  14.248 -0.0144  0.1752 -0.2349
  158DOPC   O2218998   1.475   2.322  14.169 -0.2227  0.0157 -0.0651
  158DOPC   C2218999   1.691   2.321  14.274 -0.5340 -0.4570  0.5003
  158DOPC   H2R19000   1.688   2.210  14.275  3.4838 -0.7471  2.3701
  158DOPC   H2S19001   1.728   2.353  14.374 -0.7222  1.1611  0.0873
  158DOPC    C319002   1.512   2.669  14.163 -0.2190 -0.7739 -0.0615
  158DOPC    HX19003   1.609   2.713  14.192 -0.0997  1.5201 -3.4090
  158DOPC    HY19004   1.449   2.759  14.146  1.0628  0.7825  2.6228
  158DOPC   O3119005   1.542   2.591  14.049 -0.3355 -0.0408  0.3760
  158DOPC   C3119006   1.443   2.568  13.969 -0.0690 -0.2917 -0.2952
  158DOPC   O3219007   1.324   2.597  13.983  0.3797  0.7379 -0.1392
  158DOPC   C3219008   1.504   2.514  13.836 -0.7217  0.1492 -0.5087
  158DOPC   H2X19009   1.614   2.502  13.845 -0.8895 -0.9394  0.3610
  158DOPC   H2Y19010   1.462   2.411  13.827 -2.0026  0.6167 -0.1610
  158DOPC   C2319011   1.801   2.379  14.180 -0.4343  0.1263  0.1635
  158DOPC   H3R19012   1.902   2.368  14.224  0.1255  1.1273 -0.8332
  158DOPC   H3S19013   1.800   2.485  14.147  2.1361 -0.3141 -1.5915
  158DOPC   C2419014   1.807   2.302  14.045  0.7310 -0.4913  0.5509
  158DOPC   H4R19015   1.707   2.320  13.999  1.1730  2.7534  0.6485
  158DOPC   H4S19016   1.818   2.192  14.060 -1.6771 -0.9736 -0.6599
  158DOPC   C2519017   1.933   2.333  13.963 -0.0880  0.2854 -0.0260
  158DOPC   H5R19018   2.028   2.290  14.002 -1.2081 -0.4440  2.0834
  158DOPC   H5S19019   1.951   2.442  13.954 -0.6137  0.3864  0.0846
  158DOPC   C2619020   1.923   2.301  13.813 -0.2278  0.1982 -0.6265
  158DOPC   H6R19021   2.026   2.267  13.790  0.1942 -1.5196  2.9302
  158DOPC   H6S19022   1.881   2.388  13.759  0.4988  0.6809 -0.4264
  158DOPC   C2719023   1.846   2.164  13.779  0.3294  0.2349 -0.2352
  158DOPC   H7R19024   1.743   2.166  13.820 -1.1135 -0.0759 -3.5840
  158DOPC   H7S19025   1.898   2.081  13.831 -0.9267 -1.3220 -1.3857
  158DOPC   C2819026   1.843   2.138  13.629  0.1257  0.2039 -0.3882
  158DOPC   H8R19027   1.791   2.042  13.612  1.4529 -0.5577 -0.2891
  158DOPC   H8S19028   1.942   2.133  13.579  1.7390 -2.6736  2.7263
  158DOPC   C2919029   1.749   2.240  13.567 -0.6868  1.0777 -0.1065
  158DOPC   H9R19030   1.652   2.252  13.618 -0.5725  2.1090 -0.1046
  158DOPC  C21019031   1.771   2.313  13.458 -0.1577 -0.8286 -0.1337
  158DOPC  H10R19032   1.703   2.397  13.437 -0.0961  0.0294  2.7430
  158DOPC  C21119033   1.894   2.310  13.374  0.6900 -0.0373  0.0943
  158DOPC  H11R19034   1.977   2.250  13.416  1.8741  2.1581  1.0501
  158DOPC  H11S19035   1.940   2.411  13.369  1.9386 -0.6496 -2.7004
  158DOPC  C21219036   1.850   2.255  13.240  0.3485  0.6441  0.6430
  158DOPC  H12R19037   1.942   2.241  13.179  0.1067  0.4281  0.3266
  158DOPC  H12S19038   1.789   2.334  13.191 -1.6818 -1.3321 -0.2131
  158DOPC  C21319039   1.772   2.116  13.236  0.0242 -0.2918  0.5754
  158DOPC  H13R19040   1.671   2.133  13.277 -0.5977 -0.8762 -0.6756
  158DOPC  H13S19041   1.823   2.036  13.294  0.2445 -0.3428  0.3123
  158DOPC  C21419042   1.756   2.049  13.097  0.3433 -0.2603 -0.3422
  158DOPC  H14R19043   1.674   1.975  13.104 -0.4121  0.7173  2.2625
  158DOPC  H14S19044   1.850   2.000  13.067  0.9802  0.1795  0.8596
  158DOPC  C21519045   1.721   2.166  13.002  0.2936  0.0708  0.4601
  158DOPC  H15R19046   1.802   2.238  12.981  0.2053 -0.5835 -2.7392
  158DOPC  H15S19047   1.625   2.210  13.037 -0.7561 -3.0622  1.9286
  158DOPC  C21619048   1.694   2.100  12.863  0.3561 -0.7284  0.4699
  158DOPC  H16R19049   1.611   2.027  12.875 -1.4419  1.0829 -0.2063
  158DOPC  H16S19050   1.784   2.046  12.827  1.1696  0.4490  0.6803
  158DOPC  C21719051   1.646   2.197  12.753  0.1517  0.7771  0.2294
  158DOPC  H17R19052   1.733   2.262  12.731  0.3950  0.5798  0.6020
  158DOPC  H17S19053   1.553   2.243  12.792  0.6590  0.2050  2.2696
  158DOPC  C21819054   1.621   2.127  12.616 -0.1708 -0.1366 -0.3295
  158DOPC  H18R19055   1.706   2.065  12.580 -0.1473 -0.2581 -0.0646
  158DOPC  H18S19056   1.609   2.209  12.541  2.5946  0.7071  0.0323
  158DOPC  H18T19057   1.530   2.064  12.616  1.6982 -3.0477 -0.0342
  158DOPC   C3319058   1.462   2.601  13.715 -0.0390  0.9717 -0.1047
  158DOPC   H3X19059   1.539   2.680  13.704  0.9322 -0.0743 -1.2087
  158DOPC   H3Y19060   1.358   2.638  13.729 -0.9677 -1.2820 -0.5840
  158DOPC   C3419061   1.455   2.519  13.582 -0.5064  0.9244  0.0129
  158DOPC   H4X19062   1.386   2.434  13.598  0.4183  0.2419  0.5426
  158DOPC   H4Y19063   1.551   2.465  13.568 -1.7728 -1.7217  0.8735
  158DOPC   C3519064   1.416   2.605  13.468  0.3155  0.7417 -0.2403
  158DOPC   H5X19065   1.496   2.683  13.468  1.9335 -0.8586 -0.8549
  158DOPC   H5Y19066   1.318   2.655  13.488 -0.7133 -1.4032  0.3727
  158DOPC   C3619067   1.403   2.546  13.320 -0.1025 -0.3634 -0.3952
  158DOPC   H6X19068   1.496   2.488  13.303  1.5181  1.8402  0.4293
  158DOPC   H6Y19069   1.317   2.477  13.309 -1.0260  0.8194 -0.8803
  158DOPC   C3719070   1.390   2.659  13.216 -0.7080  0.2228  0.1865
  158DOPC   H7X19071   1.304   2.729  13.225  0.2016  1.4079 -0.1109
  158DOPC   H7Y19072   1.472   2.732  13.234 -0.1567 -0.4101  0.2908
  158DOPC   C3819073   1.417   2.597  13.076  0.0614  0.0048  0.5337
  158DOPC   H8X19074   1.469   2.499  13.085  0.3032  0.1337  0.5596
  158DOPC   H8Y19075   1.497   2.655  13.026 -0.1314  1.0192  1.3632
  158DOPC   C3919076   1.286   2.567  13.004 -0.0832  0.1991  0.0659
  158DOPC   H9X19077   1.208   2.521  13.066  2.5258 -1.5617  2.2923
  158DOPC  C31019078   1.271   2.588  12.871 -0.3250 -0.2804  0.2820
  158DOPC  H10X19079   1.170   2.585  12.826 -0.8912  0.3799  1.4641
  158DOPC  C31119080   1.374   2.642  12.786  0.3110 -0.7158  0.4966
  158DOPC  H11X19081   1.413   2.729  12.843  1.0884  0.0876 -1.2008
  158DOPC  H11Y19082   1.323   2.680  12.695  2.3594  0.6482 -0.1744
  158DOPC  C31219083   1.499   2.559  12.756  0.0160 -0.2118 -0.1884
  158DOPC  H12X19084   1.476   2.462  12.706 -1.6300  0.4123 -0.7355
  158DOPC  H12Y19085   1.541   2.535  12.856 -1.9438 -1.0019  0.5060
  158DOPC  C31319086   1.606   2.640  12.674  0.0332  0.5841 -0.4564
  158DOPC  H13X19087   1.562   2.657  12.573 -2.0289  2.2011  0.6538
  158DOPC  H13Y19088   1.625   2.737  12.725  2.6044 -0.6395  1.1387
  158DOPC  C31419089   1.739   2.556  12.658  0.4994  0.0817  0.3096
  158DOPC  H14X19090   1.774   2.540  12.763 -0.0439 -3.2281  0.0728
  158DOPC  H14Y19091   1.704   2.460  12.616 -1.7391  1.5594 -1.4688
  158DOPC  C31519092   1.847   2.615  12.564 -0.2180 -0.4774  0.3693
  158DOPC  H15X19093   1.940   2.555  12.573  1.6190  2.5492  5.2254
  158DOPC  H15Y19094   1.868   2.718  12.600 -1.8042  0.9805 -2.4977
  158DOPC  C31619095   1.809   2.633  12.416  0.6895 -0.3078 -0.2566
  158DOPC  H16X19096   1.816   2.531  12.371  1.6026 -0.0568 -0.7080
  158DOPC  H16Y19097   1.708   2.680  12.419  1.5530  1.5805  2.5453
  158DOPC  C31719098   1.902   2.727  12.341  0.3649  0.0158  0.3291
  158DOPC  H17X19099   1.918   2.815  12.407 -2.8054  0.1746  1.0273
  158DOPC  H17Y19100   1.999   2.679  12.316 -1.2841 -3.0881 -0.6288
  158DOPC  C31819101   1.846   2.777  12.204 -0.0589 -0.0573  0.1161
  158DOPC  H18X19102   1.741   2.812  12.214 -0.5282 -1.2107 -0.6564
  158DOPC  H18Y19103   1.916   2.857  12.170 -0.1709 -0.0029  0.0111
  158DOPC  H18Z19104   1.858   2.704  12.122 -2.1333  1.6965 -1.9081
  159DOPC     N19105   3.685   3.693  14.896 -0.3731  0.0802 -0.6177
  159DOPC   C1219106   3.704   3.756  15.033  0.1240  0.4666  0.2403
  159DOPC  H12A19107   3.623   3.715  15.091  0.7897  0.7387  1.4019
  159DOPC  H12B19108   3.683   3.862  15.033 -3.7513 -0.1149  2.1813
  159DOPC   C1319109   3.712   3.548  14.915 -0.7441  0.4523  0.2692
  159DOPC  H13A19110   3.710   3.489  14.825  3.4183 -1.1900  1.0478
  159DOPC  H13B19111   3.813   3.531  14.950 -0.5687 -1.2917 -0.9398
  159DOPC  H13C19112   3.643   3.499  14.983 -3.2077 -1.2580 -3.1419
  159DOPC   C1419113   3.784   3.763  14.805  0.6235 -0.0718 -0.4603
  159DOPC  H14A19114   3.775   3.727  14.704  1.2164  3.6681 -2.0168
  159DOPC  H14B19115   3.758   3.868  14.807 -1.7984 -0.5672  2.7842
  159DOPC  H14C19116   3.883   3.767  14.849 -0.2330  2.4326  1.4613
  159DOPC   C1519117   3.545   3.716  14.851 -0.7900 -0.0296  0.0100
  159DOPC  H15A19118   3.512   3.811  14.891  0.6648 -0.3310  2.1154
  159DOPC  H15B19119   3.485   3.645  14.904  0.5226 -0.2400  1.2817
  159DOPC  H15C19120   3.541   3.719  14.743  1.5518 -2.8456 -0.2606
  159DOPC   C1119121   3.828   3.725  15.123 -0.1792  0.7482 -0.3564
  159DOPC  H11A19122   3.828   3.799  15.206 -0.5299 -0.8315  1.0993
  159DOPC  H11B19123   3.823   3.619  15.155 -1.3112  0.9816  0.3109
  159DOPC     P19124   4.089   3.734  15.131 -0.0008 -0.3197  0.0373
  159DOPC   O1319125   4.095   3.601  15.196  0.2549  0.0983 -0.0328
  159DOPC   O1419126   4.105   3.847  15.228  0.3284 -0.3381 -0.1338
  159DOPC   O1219127   3.950   3.737  15.053 -0.1873 -0.2056  0.4427
  159DOPC   O1119128   4.195   3.745  15.017  0.3554 -0.4754  0.5877
  159DOPC    C119129   4.237   3.632  14.942  0.6247  0.0656 -0.2977
  159DOPC    HA19130   4.154   3.566  14.911  1.4557  0.0309 -2.6110
  159DOPC    HB19131   4.310   3.567  14.996 -3.1138 -1.7621  3.1051
  159DOPC    C219132   4.296   3.661  14.805  0.5279 -0.1924  0.1485
  159DOPC    HS19133   4.380   3.731  14.823 -0.3401  1.2233 -1.1084
  159DOPC   O2119134   4.193   3.706  14.717  0.3742 -0.6765 -0.1322
  159DOPC   C2119135   4.213   3.799  14.629 -0.4009 -0.4406  0.0316
  159DOPC   O2219136   4.309   3.878  14.633 -0.3175  0.1140 -0.0855
  159DOPC   C2219137   4.093   3.802  14.534 -0.0733  0.2967 -0.3517
  159DOPC   H2R19138   4.061   3.908  14.544  0.6674  0.8347 -2.9005
  159DOPC   H2S19139   4.017   3.724  14.556  0.3461 -0.4711 -1.4989
  159DOPC    C319140   4.362   3.534  14.734  0.3774  0.3969  0.0350
  159DOPC    HX19141   4.284   3.455  14.729 -0.6134  1.1320  2.4672
  159DOPC    HY19142   4.444   3.488  14.792  0.7848  0.2482 -0.6411
  159DOPC   O3119143   4.407   3.556  14.597 -0.1511 -0.1830 -0.2644
  159DOPC   C3119144   4.524   3.625  14.591  0.1009  0.3806  0.1671
  159DOPC   O3219145   4.588   3.654  14.690  0.9542  0.1366  0.3614
  159DOPC   C3219146   4.554   3.665  14.447 -0.2528  1.0191 -0.0109
  159DOPC   H2X19147   4.536   3.577  14.382  2.4628  0.3694 -0.0167
  159DOPC   H2Y19148   4.483   3.746  14.422 -3.2823 -1.0515  1.2880
  159DOPC   C2319149   4.149   3.787  14.394 -0.2856  0.2069  0.2275
  159DOPC   H3R19150   4.237   3.854  14.396 -0.0967 -0.0424  1.3986
  159DOPC   H3S19151   4.084   3.833  14.317  1.4125 -1.9836 -2.7091
  159DOPC   C2419152   4.174   3.637  14.353  0.0253 -0.2989  0.0543
  159DOPC   H4R19153   4.080   3.585  14.324  0.4077 -0.8770 -0.1751
  159DOPC   H4S19154   4.227   3.585  14.436  2.9284  2.3994  0.0975
  159DOPC   C2519155   4.272   3.632  14.233  0.5010 -0.2015  1.0416
  159DOPC   H5R19156   4.307   3.529  14.213 -2.0598 -0.6760 -1.6864
  159DOPC   H5S19157   4.350   3.711  14.239 -0.3258  0.6963  0.5073
  159DOPC   C2619158   4.194   3.673  14.105  0.1960 -0.0932  0.3585
  159DOPC   H6R19159   4.187   3.784  14.105 -1.0748 -0.1458  1.3991
  159DOPC   H6S19160   4.091   3.630  14.107 -0.8698  2.2744 -0.3717
  159DOPC   C2719161   4.260   3.614  13.972 -0.8413  0.3601 -0.7037
  159DOPC   H7R19162   4.276   3.505  13.978  0.0894  0.4529 -1.3743
  159DOPC   H7S19163   4.360   3.663  13.968 -0.5498 -0.1541  0.0145
  159DOPC   C2819164   4.177   3.632  13.844  0.1734  0.4200  0.2149
  159DOPC   H8R19165   4.075   3.590  13.849  0.6503 -0.8501 -0.2867
  159DOPC   H8S19166   4.234   3.578  13.766 -1.4089  1.5255 -1.8144
  159DOPC   C2919167   4.177   3.778  13.807  0.2159  0.2169  0.5816
  159DOPC   H9R19168   4.112   3.841  13.869  1.1459  0.8355  0.9497
  159DOPC  C21019169   4.236   3.838  13.700  0.1876 -0.4425 -0.4423
  159DOPC  H10R19170   4.213   3.945  13.689  0.3375 -0.3445  0.2080
  159DOPC  C21119171   4.333   3.785  13.598  0.2465  0.8241 -0.2993
  159DOPC  H11R19172   4.372   3.697  13.654 -3.2281  0.1363  1.3271
  159DOPC  H11S19173   4.417   3.855  13.577 -1.5782  2.9654 -0.9109
  159DOPC  C21219174   4.278   3.737  13.465 -0.3211  0.0943  0.7550
  159DOPC  H12R19175   4.173   3.701  13.474 -0.9932  1.4258 -1.0933
  159DOPC  H12S19176   4.343   3.658  13.423 -2.3834 -1.4416  0.2940
  159DOPC  C21319177   4.276   3.863  13.364  0.2535  0.1631 -0.5425
  159DOPC  H13R19178   4.374   3.915  13.369 -0.1877  0.9603  0.1450
  159DOPC  H13S19179   4.199   3.926  13.415  0.6991  0.4640 -0.2328
  159DOPC  C21419180   4.225   3.818  13.227  0.3662  0.0319 -0.0502
  159DOPC  H14R19181   4.203   3.903  13.159  0.4740  0.4622  0.4470
  159DOPC  H14S19182   4.138   3.751  13.243 -0.8613  1.4356 -0.5454
  159DOPC  C21519183   4.325   3.728  13.147 -0.1888  0.3081  0.4716
  159DOPC  H15R19184   4.338   3.631  13.199  1.1839  0.4236  0.3688
  159DOPC  H15S19185   4.420   3.784  13.136 -0.1987 -0.1627 -3.2272
  159DOPC  C21619186   4.273   3.708  13.010 -0.4769 -0.1608 -0.3924
  159DOPC  H16R19187   4.272   3.804  12.954  1.1034  0.0566 -0.1084
  159DOPC  H16S19188   4.166   3.681  13.021 -0.4742 -0.3525 -0.8267
  159DOPC  C21719189   4.341   3.596  12.936  0.2257  0.0339  0.2836
  159DOPC  H17R19190   4.314   3.493  12.966 -3.6730  0.5735 -0.8135
  159DOPC  H17S19191   4.451   3.599  12.948  0.1666 -0.9766  1.1679
  159DOPC  C21819192   4.294   3.601  12.791  0.2700 -0.4973  0.2190
  159DOPC  H18R19193   4.356   3.524  12.739 -1.2328 -1.6637  0.0693
  159DOPC  H18S19194   4.299   3.705  12.752 -1.7452  0.0717  1.3419
  159DOPC  H18T19195   4.187   3.570  12.799 -0.1285  0.5872 -0.6339
  159DOPC   C3319196   4.697   3.710  14.424 -0.4346 -0.0632  0.2271
  159DOPC   H3X19197   4.772   3.632  14.448 -0.0890  0.7098  1.7491
  159DOPC   H3Y19198   4.728   3.792  14.492  1.2439 -1.0636  0.7163
  159DOPC   C3419199   4.718   3.764  14.279 -0.0243  0.5290  0.3037
  159DOPC   H4X19200   4.650   3.849  14.257 -1.9064 -0.9781  0.0457
  159DOPC   H4Y19201   4.705   3.690  14.197  0.8614 -0.3452  0.9292
  159DOPC   C3519202   4.857   3.821  14.268 -0.0303 -0.5593  0.1964
  159DOPC   H5X19203   4.926   3.740  14.300  1.4586  0.5386 -0.1282
  159DOPC   H5Y19204   4.870   3.910  14.333  0.4244 -1.4493  1.3720
  159DOPC   C3619205   4.888   3.872  14.122 -0.8591 -0.2764  0.5977
  159DOPC   H6X19206   4.824   3.954  14.084 -1.8669 -1.2787  0.0513
  159DOPC   H6Y19207   4.987   3.921  14.130 -0.8917  0.1169 -1.0507
  159DOPC   C3719208   4.895   3.755  14.021  0.0011 -0.5397 -0.1483
  159DOPC   H7X19209   4.985   3.695  14.046  0.3879 -0.6677 -1.7953
  159DOPC   H7Y19210   4.806   3.689  14.034 -0.9362  0.8521  0.7547
  159DOPC   C3819211   4.901   3.798  13.871  0.4201  0.5150  0.3891
  159DOPC   H8X19212   4.982   3.872  13.849 -0.5333  0.7019 -3.0429
  159DOPC   H8Y19213   4.810   3.854  13.841  0.4574  0.5210  0.2865
  159DOPC   C3919214   4.927   3.679  13.779  0.4767 -0.2076 -0.3363
  159DOPC   H9X19215   4.974   3.594  13.832 -1.2106 -0.7901  0.2756
  159DOPC  C31019216   4.877   3.672  13.652  1.0373 -0.8137 -0.5292
  159DOPC  H10X19217   4.893   3.581  13.593 -0.3937  0.4577 -3.0545
  159DOPC  C31119218   4.799   3.777  13.584 -0.1766 -0.2889 -0.1096
  159DOPC  H11X19219   4.876   3.857  13.579  1.1559 -1.3951  1.2579
  159DOPC  H11Y19220   4.710   3.792  13.648 -0.2751 -3.1754  0.5633
  159DOPC  C31219221   4.767   3.736  13.439  0.0914  0.8467 -0.4070
  159DOPC  H12X19222   4.672   3.781  13.403 -0.8616 -0.0400  0.8921
  159DOPC  H12Y19223   4.746   3.627  13.439 -1.9755  1.1815  1.3431
  159DOPC  C31319224   4.880   3.763  13.340  1.0456 -0.3581 -1.0806
  159DOPC  H13X19225   4.918   3.864  13.363  0.8336 -0.2195 -1.3362
  159DOPC  H13Y19226   4.964   3.696  13.369  0.0987 -0.6688  1.1648
  159DOPC  C31419227   4.847   3.733  13.195  0.1629  0.1550 -0.3627
  159DOPC  H14X19228   4.940   3.731  13.136  1.4615  0.2920  1.5804
  159DOPC  H14Y19229   4.795   3.634  13.192  1.1172 -0.4637  1.6987
  159DOPC  C31519230   4.737   3.837  13.137 -0.7931  0.4368 -0.3398
  159DOPC  H15X19231   4.793   3.932  13.145 -1.4878  0.9565 -1.3504
  159DOPC  H15Y19232   4.657   3.855  13.211  1.7977 -0.5722  2.9677
  159DOPC  C31619233   4.683   3.801  12.996  0.0425 -0.7539 -0.2596
  159DOPC  H16X19234   4.627   3.706  13.004  0.6080 -1.0379  0.4642
  159DOPC  H16Y19235   4.611   3.880  12.966  0.5706 -0.4034 -0.6122
  159DOPC  C31719236   4.787   3.770  12.889 -0.2402 -0.7393  0.0825
  159DOPC  H17X19237   4.851   3.859  12.868  1.2129 -1.9715 -0.9733
  159DOPC  H17Y19238   4.845   3.682  12.924  0.1634 -0.8274 -0.7833
  159DOPC  C31819239   4.724   3.733  12.759  0.7629  0.1268  0.2598
  159DOPC  H18X19240   4.643   3.806  12.737  1.6475  0.6374 -1.5076
  159DOPC  H18Y19241   4.797   3.736  12.676 -1.0467 -0.4092 -1.4137
  159DOPC  H18Z19242   4.674   3.634  12.771 -1.4742  0.9822 -1.4034
  160DOPC     N19243   6.651   1.636  14.794 -0.5187 -0.3300  0.1695
  160DOPC   C1219244   6.638   1.593  14.648 -0.5912  0.3773 -0.2982
  160DOPC  H12A19245   6.682   1.675  14.593 -1.7375  0.4712 -1.1068
  160DOPC  H12B19246   6.532   1.599  14.628 -0.6348 -3.3610 -2.1073
  160DOPC   C1319247   6.574   1.538  14.878  0.1983  0.7345  0.1441
  160DOPC  H13A19248   6.619   1.443  14.855 -0.4749  0.4852 -0.1728
  160DOPC  H13B19249   6.585   1.563  14.983 -3.5710  0.8647  0.6393
  160DOPC  H13C19250   6.469   1.536  14.852  0.4976  0.8875 -1.1316
  160DOPC   C1419251   6.590   1.772  14.816 -0.1573  0.1974  0.1734
  160DOPC  H14A19252   6.602   1.801  14.920  2.6196  0.7153 -0.2234
  160DOPC  H14B19253   6.647   1.843  14.758 -0.3308  0.4118  0.2650
  160DOPC  H14C19254   6.485   1.776  14.792  0.2457 -0.5332 -1.8313
  160DOPC   C1519255   6.793   1.628  14.842 -0.2904 -0.7358  0.2278
  160DOPC  H15A19256   6.844   1.533  14.834 -1.0041 -1.1762  0.8667
  160DOPC  H15B19257   6.807   1.662  14.943  0.8916  0.1028 -0.1886
  160DOPC  H15C19258   6.852   1.690  14.774 -0.9447  1.9905  1.9849
  160DOPC   C1119259   6.704   1.459  14.599  0.3053 -0.1884  0.1421
  160DOPC  H11A19260   6.681   1.446  14.491 -1.5870 -1.6232  0.6708
  160DOPC  H11B19261   6.815   1.464  14.599  0.3180 -0.3946 -0.2559
  160DOPC     P19262   6.547   1.242  14.617  0.0452  0.1620  0.0011
  160DOPC   O1319263   6.466   1.193  14.730  0.3138 -0.2493  0.0765
  160DOPC   O1419264   6.620   1.137  14.540  1.2249  0.1726  0.2057
  160DOPC   O1219265   6.651   1.350  14.666 -0.4087 -0.1970 -0.2203
  160DOPC   O1119266   6.448   1.319  14.530 -0.1614 -0.5666 -0.2070
  160DOPC    C119267   6.338   1.256  14.464  0.7868 -0.4259 -0.0712
  160DOPC    HA19268   6.263   1.331  14.431  1.1588  0.5991  1.3443
  160DOPC    HB19269   6.277   1.207  14.542  1.7206 -0.7344  0.4866
  160DOPC    C219270   6.379   1.183  14.337  0.2593  0.2213 -0.1029
  160DOPC    HS19271   6.435   1.092  14.368  1.8704  1.6857  1.5451
  160DOPC   O2119272   6.463   1.275  14.267 -0.3258 -0.4353 -0.6907
  160DOPC   C2119273   6.571   1.219  14.205  0.4951  0.7773  0.1104
  160DOPC   O2219274   6.594   1.099  14.195 -0.3786  0.2009 -0.6274
  160DOPC   C2219275   6.672   1.323  14.162  0.1446 -0.3018  0.0313
  160DOPC   H2R19276   6.765   1.266  14.141  0.4915  0.5971 -0.9971
  160DOPC   H2S19277   6.681   1.384  14.254 -0.2259 -0.5689  0.2470
  160DOPC    C319278   6.256   1.143  14.252  0.9105 -0.4728 -0.7357
  160DOPC    HX19279   6.198   1.233  14.225  0.3499 -0.2138  1.1969
  160DOPC    HY19280   6.194   1.081  14.320  0.1696  1.9997  0.9680
  160DOPC   O3119281   6.301   1.062  14.140 -0.3475  0.0445 -0.9676
  160DOPC   C3119282   6.205   1.028  14.059  0.3486  0.3304 -0.0800
  160DOPC   O3219283   6.084   1.054  14.073 -0.3835 -0.0968  0.2110
  160DOPC   C3219284   6.264   0.938  13.952  0.4058  0.5164 -0.0783
  160DOPC   H2X19285   6.307   0.842  13.989 -0.2821 -1.7634 -4.4526
  160DOPC   H2Y19286   6.177   0.923  13.884  1.0566  2.8978 -1.5566
  160DOPC   C2319287   6.628   1.422  14.045  0.1176  0.6071 -0.1312
  160DOPC   H3R19288   6.665   1.525  14.061 -1.9835  1.2092  1.3165
  160DOPC   H3S19289   6.517   1.419  14.053 -0.0185 -0.2925 -1.9424
  160DOPC   C2419290   6.665   1.375  13.905 -0.2240 -0.3524 -0.8121
  160DOPC   H4R19291   6.632   1.270  13.894  0.8736 -0.7557 -0.3610
  160DOPC   H4S19292   6.773   1.362  13.886 -0.0970 -1.2467  0.3874
  160DOPC   C2519293   6.590   1.461  13.798  0.5378  0.2109  0.4590
  160DOPC   H5R19294   6.608   1.570  13.808  0.4358  0.7513 -3.5519
  160DOPC   H5S19295   6.483   1.431  13.799  0.5448  0.1334 -0.5734
  160DOPC   C2619296   6.647   1.433  13.660 -0.2117  0.5456 -0.0701
  160DOPC   H6R19297   6.614   1.329  13.636  0.6268 -0.4643  2.7656
  160DOPC   H6S19298   6.757   1.432  13.677 -0.0244 -0.1905 -1.2188
  160DOPC   C2719299   6.609   1.534  13.554  0.0899 -0.2525 -0.5795
  160DOPC   H7R19300   6.613   1.638  13.594 -0.8449  0.3152 -1.8942
  160DOPC   H7S19301   6.501   1.512  13.545 -0.4144  1.7449 -0.0302
  160DOPC   C2819302   6.696   1.545  13.431  0.5730  0.0086  0.4622
  160DOPC   H8R19303   6.798   1.576  13.464  0.8312  2.2169 -2.0723
  160DOPC   H8S19304   6.665   1.628  13.364  0.5048  2.0828  2.9521
  160DOPC   C2919305   6.694   1.408  13.367 -0.3345 -0.3198  0.6946
  160DOPC   H9R19306   6.739   1.330  13.430 -1.2717  0.8581  2.9689
  160DOPC  C21019307   6.635   1.372  13.251  0.2869 -0.2257  0.2129
  160DOPC  H10R19308   6.648   1.268  13.219  0.6574  0.1322 -0.8489
  160DOPC  C21119309   6.595   1.457  13.132 -0.0115  0.3118 -0.2783
  160DOPC  H11R19310   6.646   1.555  13.134 -1.2047  0.9408  1.5769
  160DOPC  H11S19311   6.485   1.469  13.133 -0.1173 -0.5639 -0.2308
  160DOPC  C21219312   6.641   1.388  12.997  0.3956 -0.5916  0.1036
  160DOPC  H12R19313   6.658   1.278  12.994  0.8946 -0.6234  2.4166
  160DOPC  H12S19314   6.739   1.436  12.977  0.9298 -1.2456  1.0825
  160DOPC  C21319315   6.544   1.413  12.879 -0.5934  0.5432 -0.7128
  160DOPC  H13R19316   6.545   1.523  12.868 -2.7065  0.3924 -3.6169
  160DOPC  H13S19317   6.445   1.375  12.914 -1.0648  1.3367 -1.1386
  160DOPC  C21419318   6.583   1.355  12.749  0.2091  0.8092  0.0970
  160DOPC  H14R19319   6.584   1.246  12.766 -0.5894  0.5280 -1.4566
  160DOPC  H14S19320   6.686   1.393  12.730  0.0886  0.5050 -1.3194
  160DOPC  C21519321   6.496   1.361  12.625  0.7213  0.0790 -0.2696
  160DOPC  H15R19322   6.480   1.467  12.597  0.1546 -0.2443 -1.2049
  160DOPC  H15S19323   6.404   1.302  12.646 -0.0572  0.4108 -2.4721
  160DOPC  C21619324   6.583   1.303  12.511  1.2973  0.5519  0.5007
  160DOPC  H16R19325   6.607   1.196  12.531 -2.2230 -0.0647  2.1843
  160DOPC  H16S19326   6.676   1.361  12.491  1.7450 -0.4885 -0.6035
  160DOPC  C21719327   6.494   1.287  12.378 -0.2430  0.1565 -0.6768
  160DOPC  H17R19328   6.483   1.394  12.352  1.1203  0.5814  0.3555
  160DOPC  H17S19329   6.404   1.225  12.400  0.6024 -0.4856  1.2185
  160DOPC  C21819330   6.585   1.227  12.270  0.0358  0.5103 -0.0832
  160DOPC  H18R19331   6.590   1.121  12.304  1.5223  0.5081 -0.2747
  160DOPC  H18S19332   6.690   1.261  12.268  1.4287 -3.1853  1.2479
  160DOPC  H18T19333   6.535   1.229  12.171 -1.6305 -0.6603  0.6647
  160DOPC   C3319334   6.360   1.004  13.856 -0.4374  0.0402 -0.3319
  160DOPC   H3X19335   6.450   1.030  13.916 -1.3737  1.0371  0.6826
  160DOPC   H3Y19336   6.309   1.096  13.820 -2.3471 -1.3793 -1.4406
  160DOPC   C3419337   6.394   0.916  13.739 -0.5892  0.1845  0.0083
  160DOPC   H4X19338   6.293   0.882  13.708 -2.0199  1.8397  2.4516
  160DOPC   H4Y19339   6.454   0.826  13.763 -0.6975 -0.7442 -2.8499
  160DOPC   C3519340   6.466   0.986  13.625 -0.6938 -0.5991 -0.1211
  160DOPC   H5X19341   6.515   0.907  13.565  0.4445 -0.1880  0.2492
  160DOPC   H5Y19342   6.542   1.058  13.662 -1.5903  0.3394 -0.0561
  160DOPC   C3619343   6.363   1.057  13.534 -0.1115 -0.0662 -0.0324
  160DOPC   H6X19344   6.283   1.107  13.594  0.3588 -1.8809  2.2162
  160DOPC   H6Y19345   6.411   1.141  13.479 -1.6472  2.5397  2.2673
  160DOPC   C3719346   6.299   0.969  13.426  0.2287 -0.2707 -0.3713
  160DOPC   H7X19347   6.266   0.872  13.467  0.5400 -1.2014 -2.2249
  160DOPC   H7Y19348   6.202   1.014  13.396 -0.5873 -2.0388 -0.4961
  160DOPC   C3819349   6.402   0.947  13.309  0.3854  0.6668 -0.0455
  160DOPC   H8X19350   6.376   0.853  13.255 -1.2200 -0.5057  2.5738
  160DOPC   H8Y19351   6.503   0.933  13.353  0.4651  0.8211 -0.1799
  160DOPC   C3919352   6.409   1.066  13.215  0.3866  0.6569 -0.3157
  160DOPC   H9X19353   6.413   1.168  13.256 -0.0930  0.9872 -1.0687
  160DOPC  C31019354   6.417   1.054  13.078 -0.2725 -0.1841  0.3392
  160DOPC  H10X19355   6.422   1.146  13.019 -0.2429 -0.7636 -0.5731
  160DOPC  C31119356   6.414   0.930  12.992  0.0590  1.2740 -0.2602
  160DOPC  H11X19357   6.418   0.836  13.051 -0.6548  1.3930 -0.0146
  160DOPC  H11Y19358   6.507   0.931  12.930  0.5829  0.7975  0.5060
  160DOPC  C31219359   6.289   0.916  12.899 -0.3142 -0.4976  0.1787
  160DOPC  H12X19360   6.198   0.954  12.951  0.6982  0.4987  1.3117
  160DOPC  H12Y19361   6.289   0.809  12.869  0.4580 -0.6399  0.6450
  160DOPC  C31319362   6.303   0.999  12.767  0.1931 -0.6474 -0.4813
  160DOPC  H13X19363   6.319   1.107  12.788 -0.8521 -0.3412 -1.1826
  160DOPC  H13Y19364   6.390   0.952  12.716 -0.1246 -1.5319 -0.2318
  160DOPC  C31419365   6.183   0.984  12.676 -0.2897  0.0907 -0.5809
  160DOPC  H14X19366   6.163   0.882  12.636  0.6796  0.2188 -1.4421
  160DOPC  H14Y19367   6.086   1.020  12.716 -0.3056  0.8921 -1.3051
  160DOPC  C31519368   6.205   1.082  12.557  0.9070  0.2285  0.3404
  160DOPC  H15X19369   6.294   1.039  12.506 -0.0271 -1.0739 -0.2162
  160DOPC  H15Y19370   6.230   1.182  12.599  1.7079  0.2005 -0.0526
  160DOPC  C31619371   6.088   1.087  12.465  0.2753 -0.8322  0.2504
  160DOPC  H16X19372   6.019   1.159  12.514  1.8192  0.3870  0.6986
  160DOPC  H16Y19373   6.137   1.128  12.374  0.4623 -1.0544  0.2508
  160DOPC  C31719374   6.026   0.958  12.421 -0.3161 -0.4270  0.1322
  160DOPC  H17X19375   6.102   0.877  12.418  0.9700  0.7575 -0.6459
  160DOPC  H17Y19376   5.947   0.926  12.492 -2.0994 -1.5616 -2.2212
  160DOPC  C31819377   5.964   0.975  12.279  0.1972 -0.0337  0.1021
  160DOPC  H18X19378   6.028   0.983  12.188  0.0707 -0.5585 -0.0399
  160DOPC  H18Y19379   5.911   0.878  12.266  0.0631  0.1490 -0.7928
  160DOPC  H18Z19380   5.889   1.056  12.288  1.6867  1.5657 -1.2107
  161DOPC     N19381   1.411   3.314  14.637  1.1917 -0.3154  0.1104
  161DOPC   C1219382   1.405   3.464  14.634 -0.0023 -0.1011 -0.7921
  161DOPC  H12A19383   1.495   3.509  14.675 -0.0947  1.4169 -2.1430
  161DOPC  H12B19384   1.338   3.499  14.710 -3.1350 -0.2938 -3.2656
  161DOPC   C1319385   1.462   3.255  14.768  0.1601 -0.1664  0.0152
  161DOPC  H13A19386   1.560   3.299  14.774 -0.0970  0.7366 -1.7072
  161DOPC  H13B19387   1.408   3.287  14.856  0.1716 -0.0813 -0.0085
  161DOPC  H13C19388   1.451   3.148  14.776 -2.0904  0.1280  1.8360
  161DOPC   C1419389   1.501   3.264  14.525 -0.2456 -0.2480  0.2069
  161DOPC  H14A19390   1.604   3.288  14.550 -0.0570 -0.2657 -0.5417
  161DOPC  H14B19391   1.486   3.158  14.525 -0.1598 -0.3378  2.8700
  161DOPC  H14C19392   1.477   3.294  14.424 -1.0303 -1.8011 -0.0981
  161DOPC   C1519393   1.270   3.266  14.613  0.0961 -0.0863  0.2753
  161DOPC  H15A19394   1.229   3.319  14.528  1.2871  1.9179  0.9023
  161DOPC  H15B19395   1.198   3.284  14.692 -2.0025  0.9317 -1.7362
  161DOPC  H15C19396   1.266   3.162  14.584 -1.9205 -0.2383  0.9447
  161DOPC   C1119397   1.344   3.530  14.504 -0.0261 -0.2481  0.7703
  161DOPC  H11A19398   1.395   3.628  14.494 -0.9637  0.1733 -0.0763
  161DOPC  H11B19399   1.377   3.480  14.410  1.0085  0.8745  0.5096
  161DOPC     P19400   1.138   3.646  14.614 -0.0445  0.4166  0.3440
  161DOPC   O1319401   1.245   3.735  14.666  0.1599  0.1440 -0.2979
  161DOPC   O1419402   1.064   3.564  14.716  0.2132 -0.0384 -1.2605
  161DOPC   O1219403   1.202   3.541  14.516 -0.4312  0.6934 -0.1474
  161DOPC   O1119404   1.028   3.723  14.530  0.0964 -0.2171  0.6609
  161DOPC    C119405   1.081   3.820  14.435  0.5994 -0.5378  0.1580
  161DOPC    HA19406   1.186   3.854  14.450  1.2117 -1.6844 -1.2840
  161DOPC    HB19407   1.015   3.909  14.437  0.0747 -0.9236  2.0363
  161DOPC    C219408   1.068   3.763  14.293 -0.2846 -0.5563 -0.2675
  161DOPC    HS19409   1.158   3.700  14.276  0.6775  0.9545 -1.0140
  161DOPC   O2119410   1.077   3.874  14.203 -0.1037  0.0446  0.4106
  161DOPC   C2119411   1.171   3.860  14.105 -0.7111  0.2184  0.9560
  161DOPC   O2219412   1.249   3.768  14.090  0.6198 -0.0365 -0.2548
  161DOPC   C2219413   1.171   3.981  14.010  0.6520  0.0516  0.0287
  161DOPC   H2R19414   1.271   3.988  13.963  0.6490  0.6942  0.1144
  161DOPC   H2S19415   1.141   4.071  14.068 -2.8169 -0.5419 -0.6090
  161DOPC    C319416   0.933   3.680  14.265 -0.0863  0.0075  0.2832
  161DOPC    HX19417   0.854   3.739  14.316  0.0903  1.3741 -0.9881
  161DOPC    HY19418   0.957   3.582  14.314  2.0677  0.3338  0.0008
  161DOPC   O3119419   0.913   3.662  14.121 -0.3909  0.0178 -0.0145
  161DOPC   C3119420   0.789   3.670  14.075  0.2946  0.5841 -0.2228
  161DOPC   O3219421   0.700   3.706  14.147  0.0888  0.2973  0.2233
  161DOPC   C3219422   0.773   3.612  13.937 -0.0706 -0.0361 -0.2743
  161DOPC   H2X19423   0.868   3.645  13.890  0.4644  1.2983  1.6403
  161DOPC   H2Y19424   0.768   3.501  13.947 -0.1269 -0.0469 -0.4243
  161DOPC   C2319425   1.076   3.968  13.889 -0.3953  0.2524  0.3009
  161DOPC   H3R19426   1.041   4.070  13.866  0.6050  0.6576  0.5184
  161DOPC   H3S19427   0.995   3.900  13.923  0.2851 -2.0997 -2.3639
  161DOPC   C2419428   1.138   3.907  13.763 -0.1045  0.1214  0.3458
  161DOPC   H4R19429   1.164   3.801  13.783 -1.0443  0.1949  2.1799
  161DOPC   H4S19430   1.233   3.964  13.757 -1.3110  2.1815 -0.1895
  161DOPC   C2519431   1.052   3.943  13.643  0.6920 -0.2765 -0.1477
  161DOPC   H5R19432   1.061   4.054  13.641  2.1237 -0.2843  2.0551
  161DOPC   H5S19433   0.949   3.906  13.659  0.0748  1.1174 -0.7474
  161DOPC   C2619434   1.097   3.901  13.507  0.4535 -0.2637 -0.5801
  161DOPC   H6R19435   1.090   3.791  13.517 -1.5749 -0.1145  0.1561
  161DOPC   H6S19436   1.203   3.923  13.480  0.3199 -0.2021 -1.0616
  161DOPC   C2719437   1.003   3.950  13.397  0.1088 -0.3532  0.7387
  161DOPC   H7R19438   1.023   4.052  13.357  0.4152  0.1474  2.1151
  161DOPC   H7S19439   0.907   3.959  13.454 -0.5783 -0.4435 -0.3758
  161DOPC   C2819440   0.990   3.851  13.279  0.0527  0.6193  0.0512
  161DOPC   H8R19441   0.892   3.870  13.231  1.2952  0.6756 -2.6447
  161DOPC   H8S19442   0.981   3.749  13.322  0.1156  0.2633 -0.7500
  161DOPC   C2919443   1.099   3.850  13.172 -0.1593 -0.6484 -0.3207
  161DOPC   H9R19444   1.184   3.790  13.207  1.3524  0.7752 -1.4060
  161DOPC  C21019445   1.099   3.887  13.041  0.8924 -0.2157 -0.3111
  161DOPC  H10R19446   1.183   3.860  12.975  1.5012 -0.7229  0.6389
  161DOPC  C21119447   0.993   3.958  12.968 -0.1313  0.4387 -0.0756
  161DOPC  H11R19448   0.922   4.017  13.031 -0.0820  1.1981 -0.7166
  161DOPC  H11S19449   0.933   3.875  12.926  0.7053  0.5552 -1.5846
  161DOPC  C21219450   1.053   4.059  12.868 -0.7814 -0.8565  0.0196
  161DOPC  H12R19451   1.112   4.125  12.934  0.1168 -0.7476 -0.8754
  161DOPC  H12S19452   0.982   4.133  12.824 -1.3974 -0.6428  1.3271
  161DOPC  C21319453   1.136   4.011  12.755 -0.9825  0.8049 -0.1345
  161DOPC  H13R19454   1.083   3.943  12.686  2.0233  1.1578 -3.0210
  161DOPC  H13S19455   1.218   3.950  12.800 -1.1701  0.4728 -0.2432
  161DOPC  C21419456   1.195   4.124  12.670 -0.3285 -1.3445 -1.0940
  161DOPC  H14R19457   1.116   4.192  12.632 -0.3796 -0.6977  0.1542
  161DOPC  H14S19458   1.253   4.084  12.583  2.9936 -0.6573  0.6502
  161DOPC  C21519459   1.266   4.231  12.760  0.6766 -0.0189  0.8256
  161DOPC  H15R19460   1.343   4.188  12.828  0.0063 -1.0832  0.9407
  161DOPC  H15S19461   1.190   4.281  12.823  0.1033 -2.1771  1.9534
  161DOPC  C21619462   1.333   4.335  12.673  0.4482  0.0298  0.1880
  161DOPC  H16R19463   1.253   4.380  12.611  1.2714  1.0857 -0.1514
  161DOPC  H16S19464   1.404   4.284  12.604 -0.3002 -1.8693  0.7649
  161DOPC  C21719465   1.413   4.447  12.750  0.3033  0.3952  0.0155
  161DOPC  H17R19466   1.486   4.401  12.821  2.2297 -1.7690 -3.0995
  161DOPC  H17S19467   1.331   4.495  12.808 -1.2279 -2.1396  0.1002
  161DOPC  C21819468   1.486   4.551  12.664  1.0803  0.1687  0.1685
  161DOPC  H18R19469   1.406   4.614  12.620  0.7710 -0.5161 -0.2533
  161DOPC  H18S19470   1.542   4.500  12.583 -1.3766  0.9802 -2.1836
  161DOPC  H18T19471   1.554   4.611  12.728  3.6591  0.0595 -2.2821
  161DOPC   C3319472   0.652   3.663  13.864 -0.0525 -0.5133  0.2074
  161DOPC   H3X19473   0.647   3.774  13.866 -1.3694 -0.5594  0.3664
  161DOPC   H3Y19474   0.565   3.614  13.913  0.5672 -1.5861  0.2744
  161DOPC   C3419475   0.644   3.620  13.716  0.6444  0.0875  0.5342
  161DOPC   H4X19476   0.540   3.646  13.687  0.6798 -0.1149  0.2256
  161DOPC   H4Y19477   0.657   3.510  13.711  2.0961  0.3006 -2.0578
  161DOPC   C3519478   0.734   3.690  13.610  0.3408  0.4816 -0.5254
  161DOPC   H5X19479   0.839   3.655  13.620 -0.8445 -3.2163  0.9757
  161DOPC   H5Y19480   0.722   3.800  13.620  2.3096  0.7123 -0.3184
  161DOPC   C3619481   0.693   3.675  13.466  0.1769 -0.3509  0.2828
  161DOPC   H6X19482   0.738   3.755  13.405 -0.0392 -0.0544  0.5078
  161DOPC   H6Y19483   0.724   3.574  13.433  1.4550 -0.4614  1.7022
  161DOPC   C3719484   0.540   3.687  13.439  0.0796 -0.6107  0.3827
  161DOPC   H7X19485   0.495   3.594  13.479 -1.0933 -0.3494 -0.2834
  161DOPC   H7Y19486   0.484   3.772  13.484 -0.6074  0.5580 -2.4455
  161DOPC   C3819487   0.515   3.673  13.291 -0.0827  0.2515 -0.2168
  161DOPC   H8X19488   0.406   3.693  13.282 -0.3863 -1.7465 -1.5129
  161DOPC   H8Y19489   0.530   3.568  13.260  0.0036 -0.4861  2.1331
  161DOPC   C3919490   0.586   3.771  13.196  0.0144  0.4554  0.6819
  161DOPC   H9X19491   0.634   3.853  13.250  1.3709  0.9792 -1.2009
  161DOPC  C31019492   0.608   3.770  13.063  0.3322  0.3678  0.3357
  161DOPC  H10X19493   0.665   3.852  13.016  2.6108 -0.8569  0.7966
  161DOPC  C31119494   0.557   3.673  12.963 -0.2919  0.5496  0.1833
  161DOPC  H11X19495   0.552   3.572  13.009 -0.7615 -0.5847 -2.1821
  161DOPC  H11Y19496   0.627   3.676  12.877  0.4339  0.3847  0.7606
  161DOPC  C31219497   0.420   3.697  12.905 -0.1711  0.1031  0.6872
  161DOPC  H12X19498   0.336   3.703  12.977 -0.4492 -1.6939  0.5558
  161DOPC  H12Y19499   0.393   3.605  12.849  0.7249 -1.0959  2.1364
  161DOPC  C31319500   0.399   3.817  12.809 -0.6647 -0.6261  0.1487
  161DOPC  H13X19501   0.414   3.907  12.872  0.4879  1.2968 -2.7121
  161DOPC  H13Y19502   0.477   3.805  12.731 -1.0458 -1.4499 -0.1224
  161DOPC  C31419503   0.262   3.831  12.737  0.6571 -0.2248  0.1177
  161DOPC  H14X19504   0.246   3.741  12.674 -1.5059  0.4383 -0.3713
  161DOPC  H14Y19505   0.177   3.847  12.807  1.0017  3.2296 -0.0841
  161DOPC  C31519506   0.262   3.948  12.649  0.3584 -0.1494  0.1756
  161DOPC  H15X19507   0.354   3.962  12.589 -0.3125  1.3057 -0.5853
  161DOPC  H15Y19508   0.251   4.039  12.713 -1.4034 -1.2435  1.5197
  161DOPC  C31619509   0.154   3.951  12.546 -0.1277 -0.5083 -0.2665
  161DOPC  H16X19510   0.156   3.864  12.477  1.1630 -0.2069 -0.6341
  161DOPC  H16Y19511   0.060   3.956  12.604  1.1779  2.2776  1.8535
  161DOPC  C31719512   0.145   4.084  12.464  0.1161 -0.4997  0.4304
  161DOPC  H17X19513   0.093   4.164  12.520 -1.3061 -1.1492  0.0826
  161DOPC  H17Y19514   0.248   4.119  12.442  0.0574  0.1424  1.1462
  161DOPC  C31819515   0.069   4.060  12.334 -0.1306 -0.4035  0.0975
  161DOPC  H18X19516   0.069   4.149  12.268 -0.7478 -0.0788  0.5258
  161DOPC  H18Y19517   0.117   3.976  12.279  1.0456  0.6214 -0.4778
  161DOPC  H18Z19518  -0.037   4.031  12.348 -0.2811  0.1075  0.0348
  162DOPC     N19519   6.211   0.676  14.890  0.4763 -0.4010 -0.3787
  162DOPC   C1219520   6.347   0.671  14.831 -0.4963  0.5623 -0.6573
  162DOPC  H12A19521   6.416   0.627  14.900 -1.8188  0.1374  0.4413
  162DOPC  H12B19522   6.380   0.772  14.811  0.8781  0.4161  0.6980
  162DOPC   C1319523   6.219   0.754  15.013  0.5959  0.3664 -0.6326
  162DOPC  H13A19524   6.122   0.776  15.056  0.8772  0.0146  0.2096
  162DOPC  H13B19525   6.271   0.709  15.096  1.4982  1.3482 -0.6505
  162DOPC  H13C19526   6.271   0.847  14.999 -0.7265  1.5755  1.8493
  162DOPC   C1419527   6.152   0.541  14.923 -0.2830  0.2664  0.0543
  162DOPC  H14A19528   6.174   0.467  14.849 -1.1048 -0.0561  0.1181
  162DOPC  H14B19529   6.185   0.496  15.016  0.1374 -0.1803 -0.3070
  162DOPC  H14C19530   6.046   0.542  14.945  0.0810 -3.0801  2.7528
  162DOPC   C1519531   6.119   0.746  14.798  0.0775 -0.0956  0.2806
  162DOPC  H15A19532   6.015   0.729  14.821 -0.2077 -0.5570 -1.2344
  162DOPC  H15B19533   6.127   0.712  14.696 -1.0892  1.0389 -0.2131
  162DOPC  H15C19534   6.134   0.853  14.803  0.9351 -0.2537  1.7253
  162DOPC   C1119535   6.356   0.609  14.685 -0.9085 -0.2014  0.0079
  162DOPC  H11A19536   6.463   0.601  14.656 -0.4416  1.8515  0.9046
  162DOPC  H11B19537   6.316   0.507  14.700 -0.0048 -0.2910  2.2438
  162DOPC     P19538   6.342   0.774  14.476 -0.0389 -0.3077 -0.3143
  162DOPC   O1319539   6.489   0.752  14.472  0.2730 -0.0859  0.1595
  162DOPC   O1419540   6.294   0.911  14.507  0.0465  0.3314  0.1147
  162DOPC   O1219541   6.279   0.672  14.584  0.2967  0.1192  0.2321
  162DOPC   O1119542   6.285   0.717  14.345 -0.8147 -0.1270  0.4218
  162DOPC    C119543   6.217   0.595  14.330  0.7110  0.5126  0.3449
  162DOPC    HA19544   6.122   0.597  14.388  0.1263 -0.4770 -0.5346
  162DOPC    HB19545   6.272   0.508  14.371  0.0953 -0.1439 -0.1739
  162DOPC    C219546   6.172   0.564  14.179 -0.2568 -0.0939 -0.6622
  162DOPC    HS19547   6.138   0.459  14.177  0.5640 -0.3841 -0.0374
  162DOPC   O2119548   6.281   0.582  14.085  0.5545 -0.4669  0.0509
  162DOPC   C2119549   6.372   0.485  14.075 -0.4478 -0.3222 -0.0271
  162DOPC   O2219550   6.366   0.378  14.134 -0.0954 -0.2760 -0.3032
  162DOPC   C2219551   6.473   0.523  13.968 -0.0175  0.1286 -0.1083
  162DOPC   H2R19552   6.551   0.444  13.956  1.9685  2.0096 -0.1994
  162DOPC   H2S19553   6.533   0.607  14.010  1.3695 -1.0381  0.3213
  162DOPC    C319554   6.060   0.657  14.128  0.1262  0.8083  0.3810
  162DOPC    HX19555   6.110   0.756  14.117  2.4404 -0.3330 -0.1440
  162DOPC    HY19556   5.977   0.665  14.201 -0.6804  2.4778 -0.6552
  162DOPC   O3119557   6.006   0.602  14.010  0.4209 -0.6864 -0.2601
  162DOPC   C3119558   5.989   0.687  13.903 -0.3971 -0.9613  0.2813
  162DOPC   O3219559   5.971   0.806  13.913  0.2068  0.0405 -0.2040
  162DOPC   C3219560   5.999   0.601  13.779 -0.1187  0.1783 -0.4178
  162DOPC   H2X19561   6.100   0.554  13.777 -0.0401  0.3106  0.2682
  162DOPC   H2Y19562   5.927   0.516  13.772 -0.1961  0.3090 -1.3510
  162DOPC   C2319563   6.407   0.543  13.832  0.0242 -0.3660  0.0170
  162DOPC   H3R19564   6.352   0.639  13.824 -2.8069 -1.7989  0.8093
  162DOPC   H3S19565   6.334   0.465  13.800  0.0013 -0.3361 -0.0043
  162DOPC   C2419566   6.506   0.555  13.715  0.3177  0.5910 -0.0774
  162DOPC   H4R19567   6.569   0.464  13.714 -1.0308 -0.3967  1.6497
  162DOPC   H4S19568   6.569   0.647  13.721 -0.0538  0.9148 -0.9447
  162DOPC   C2519569   6.431   0.568  13.590 -0.2171  0.1395 -0.1869
  162DOPC   H5R19570   6.392   0.671  13.574 -0.4791  0.1082  0.2325
  162DOPC   H5S19571   6.353   0.490  13.577  1.0387 -0.7412 -3.2320
  162DOPC   C2619572   6.532   0.556  13.472  1.1670  0.4012 -0.4358
  162DOPC   H6R19573   6.586   0.458  13.470  0.6927  0.1105  0.5140
  162DOPC   H6S19574   6.612   0.631  13.488  2.4756 -1.2873  1.7079
  162DOPC   C2719575   6.461   0.582  13.345 -0.2232  0.1036  0.6392
  162DOPC   H7R19576   6.396   0.671  13.357 -0.8573 -0.2858  0.1650
  162DOPC   H7S19577   6.385   0.503  13.327  0.2352 -0.4529  1.1176
  162DOPC   C2819578   6.559   0.616  13.225 -0.0861  0.3452 -0.4647
  162DOPC   H8R19579   6.636   0.690  13.253  0.9451  0.0202 -2.3161
  162DOPC   H8S19580   6.496   0.667  13.148 -0.4697 -2.9215 -2.5078
  162DOPC   C2919581   6.654   0.517  13.168 -0.2904  0.5827  0.2878
  162DOPC   H9R19582   6.732   0.483  13.237 -0.8800  0.9644  1.1646
  162DOPC  C21019583   6.653   0.469  13.045 -0.1258  0.4239  0.5996
  162DOPC  H10R19584   6.726   0.394  13.012 -2.5754 -2.8895  2.1046
  162DOPC  C21119585   6.551   0.502  12.938 -0.0326 -0.1846  0.3934
  162DOPC  H11R19586   6.456   0.541  12.979 -0.8023  0.3958 -1.8128
  162DOPC  H11S19587   6.532   0.412  12.876  2.3563 -1.4162  1.3146
  162DOPC  C21219588   6.603   0.600  12.834  0.6984  0.4179 -0.1211
  162DOPC  H12R19589   6.700   0.573  12.787 -0.0496  2.4791 -3.1138
  162DOPC  H12S19590   6.617   0.699  12.882 -0.7626  0.6385 -0.1171
  162DOPC  C21319591   6.510   0.623  12.714 -0.4679 -0.1946  0.1152
  162DOPC  H13R19592   6.413   0.667  12.748 -1.1005 -0.4923 -1.2163
  162DOPC  H13S19593   6.482   0.533  12.654 -1.3779  1.3888 -1.9821
  162DOPC  C21419594   6.561   0.736  12.622  0.3352  0.1862  0.3166
  162DOPC  H14R19595   6.668   0.715  12.601  0.0564 -0.6481 -0.3467
  162DOPC  H14S19596   6.556   0.824  12.690  3.8107  0.0903  0.8538
  162DOPC  C21519597   6.484   0.744  12.487  0.6644  0.1243  0.5846
  162DOPC  H15R19598   6.384   0.788  12.505 -0.3586 -2.7101  2.3733
  162DOPC  H15S19599   6.475   0.641  12.448  0.0101 -0.4425  2.1599
  162DOPC  C21619600   6.569   0.828  12.389  0.0808 -0.1301  0.2561
  162DOPC  H16R19601   6.671   0.784  12.379 -0.0311 -0.1194 -1.0290
  162DOPC  H16S19602   6.592   0.928  12.431 -0.4582 -0.7937  2.2354
  162DOPC  C21719603   6.503   0.835  12.255 -0.2376  0.4081  0.3257
  162DOPC  H17R19604   6.495   0.733  12.211  2.9514  0.4402 -0.6180
  162DOPC  H17S19605   6.576   0.884  12.187  0.2275 -0.2494  0.3365
  162DOPC  C21819606   6.375   0.908  12.246  0.6700  0.2922 -0.7112
  162DOPC  H18R19607   6.327   0.891  12.147 -0.4697  0.7819 -0.2532
  162DOPC  H18S19608   6.388   1.018  12.253 -3.2254  0.8830 -0.7875
  162DOPC  H18T19609   6.300   0.893  12.326 -0.1556  3.1176 -0.8679
  162DOPC   C3319610   5.977   0.689  13.662 -0.4636 -0.6984  0.0302
  162DOPC   H3X19611   6.041   0.779  13.677 -2.5764  0.7543  0.7224
  162DOPC   H3Y19612   5.874   0.731  13.662  1.1777  4.0380 -0.6537
  162DOPC   C3419613   6.002   0.624  13.528  0.0366  0.1654  0.6280
  162DOPC   H4X19614   5.931   0.540  13.517 -1.7046  1.5318  0.9094
  162DOPC   H4Y19615   6.110   0.597  13.527  0.4376  1.6711  0.7120
  162DOPC   C3519616   6.000   0.711  13.403  0.3316 -0.0101 -1.0946
  162DOPC   H5X19617   6.052   0.807  13.426  1.8143 -0.9390 -0.4467
  162DOPC   H5Y19618   5.895   0.741  13.379  0.1601  0.3075 -0.0238
  162DOPC   C3619619   6.070   0.638  13.289 -0.9541 -0.0531  0.6663
  162DOPC   H6X19620   6.179   0.618  13.299 -0.2459  1.8658 -2.0255
  162DOPC   H6Y19621   6.020   0.539  13.279  0.0974 -0.4569 -0.9983
  162DOPC   C3719622   6.067   0.710  13.151  0.6624 -0.0241 -0.2956
  162DOPC   H7X19623   5.967   0.754  13.131  0.0375 -0.4756  1.5963
  162DOPC   H7Y19624   6.127   0.803  13.155  0.7802 -0.0012 -1.8965
  162DOPC   C3819625   6.124   0.626  13.038 -0.1910 -0.4943  0.6516
  162DOPC   H8X19626   6.221   0.587  13.076  0.0032  0.7713  1.5150
  162DOPC   H8Y19627   6.144   0.700  12.957 -0.7702  0.3111  1.2238
  162DOPC   C3919628   6.029   0.520  12.987 -0.0519  0.7274  0.3827
  162DOPC   H9X19629   5.992   0.442  13.054 -1.8151  0.9187 -0.2858
  162DOPC  C31019630   5.972   0.512  12.860  0.4595 -0.6751  0.1058
  162DOPC  H10X19631   5.894   0.436  12.842 -1.1310  1.0222 -0.4655
  162DOPC  C31119632   5.998   0.605  12.733  0.0331  0.0351 -0.2871
  162DOPC  H11X19633   6.078   0.681  12.737 -1.3609  1.6854 -2.0160
  162DOPC  H11Y19634   5.909   0.664  12.703 -0.9548 -1.8086 -1.1501
  162DOPC  C31219635   6.029   0.503  12.622 -0.4992  0.4096 -0.3697
  162DOPC  H12X19636   5.939   0.439  12.605 -1.4124  1.8021 -1.0330
  162DOPC  H12Y19637   6.117   0.444  12.653 -1.2402 -1.4268 -1.5876
  162DOPC  C31319638   6.075   0.585  12.499 -0.3370  0.3889  0.1855
  162DOPC  H13X19639   5.984   0.636  12.461  0.0259  0.9554  0.0825
  162DOPC  H13Y19640   6.150   0.660  12.529 -0.1172 -0.7054  2.6470
  162DOPC  C31419641   6.137   0.496  12.389 -0.0421 -0.3830 -0.3197
  162DOPC  H14X19642   6.201   0.415  12.430  1.3027 -0.2082 -1.9657
  162DOPC  H14Y19643   6.054   0.441  12.339 -1.0093 -0.1935  1.0424
  162DOPC  C31519644   6.226   0.576  12.284  0.1850  0.2330  0.0946
  162DOPC  H15X19645   6.335   0.561  12.300  0.3671  2.0148  0.7567
  162DOPC  H15Y19646   6.201   0.682  12.305  1.9103  0.9813 -1.2754
  162DOPC  C31619647   6.192   0.543  12.144  0.3317 -0.2654  0.3695
  162DOPC  H16X19648   6.081   0.535  12.138  0.2316  1.0086  0.2348
  162DOPC  H16Y19649   6.237   0.622  12.081  0.3291 -0.9297 -0.4784
  162DOPC  C31719650   6.228   0.396  12.108  0.0132 -0.5610  0.2213
  162DOPC  H17X19651   6.337   0.399  12.090  0.0603 -0.1835  0.5697
  162DOPC  H17Y19652   6.215   0.314  12.182 -1.5636 -1.1007 -0.6169
  162DOPC  C31819653   6.166   0.351  11.974 -0.8845  0.4155  0.3618
  162DOPC  H18X19654   6.057   0.372  11.985 -0.9879 -0.3424  0.8962
  162DOPC  H18Y19655   6.201   0.402  11.882 -1.6629  1.0055  0.3779
  162DOPC  H18Z19656   6.182   0.241  11.967  2.2080  0.7421  0.9428
  163DOPC     N19657   5.259   6.036  15.048 -0.9303  0.1084  0.3446
  163DOPC   C1219658   5.266   5.927  15.155 -0.0395  0.8031 -0.2752
  163DOPC  H12A19659   5.238   5.975  15.248  0.1758 -1.1041  0.8177
  163DOPC  H12B19660   5.365   5.890  15.178 -1.2883 -3.6901 -1.2762
  163DOPC   C1319661   5.123   6.073  15.014  0.4144  0.7589 -0.1002
  163DOPC  H13A19662   5.074   6.112  15.102 -1.7377 -2.1957  0.1468
  163DOPC  H13B19663   5.120   6.158  14.948  0.5560  0.3047 -0.6997
  163DOPC  H13C19664   5.077   5.990  14.962  1.7075  1.5055 -2.5820
  163DOPC   C1419665   5.322   5.996  14.923  0.3488  0.0695 -0.3654
  163DOPC  H14A19666   5.286   5.896  14.905 -0.5449  0.0903  1.0840
  163DOPC  H14B19667   5.295   6.055  14.837  2.7046 -0.4291 -1.5264
  163DOPC  H14C19668   5.428   5.982  14.937  0.0610 -1.2490  0.6287
  163DOPC   C1519669   5.320   6.165  15.099 -0.2791  0.3086  0.7378
  163DOPC  H15A19670   5.424   6.154  15.123  0.1286 -3.0091 -1.8294
  163DOPC  H15B19671   5.260   6.194  15.185  1.0898 -2.2661  2.7134
  163DOPC  H15C19672   5.314   6.242  15.024 -1.8137  0.4654  0.9690
  163DOPC   C1119673   5.189   5.792  15.125 -0.2399 -0.3624 -0.3588
  163DOPC  H11A19674   5.173   5.746  15.225  2.9439 -1.1528 -0.1070
  163DOPC  H11B19675   5.086   5.808  15.086  0.0824 -0.3990 -1.2577
  163DOPC     P19676   5.339   5.575  15.082 -0.2274  0.0348 -0.0535
  163DOPC   O1319677   5.348   5.558  15.225 -0.6575 -0.1105  0.6771
  163DOPC   O1419678   5.460   5.556  14.995  0.0600  0.4736 -0.3879
  163DOPC   O1219679   5.268   5.714  15.038 -0.6368 -0.1839 -0.0792
  163DOPC   O1119680   5.235   5.474  15.029  0.5444  0.6403 -0.0898
  163DOPC    C119681   5.116   5.497  14.958  0.7433 -0.1930  0.2590
  163DOPC    HA19682   5.076   5.600  14.957 -0.7660 -0.7437 -0.8026
  163DOPC    HB19683   5.030   5.436  14.993  0.0625  2.1989  3.1285
  163DOPC    C219684   5.140   5.477  14.807 -1.0400  0.6228 -0.3420
  163DOPC    HS19685   5.042   5.497  14.760 -1.3120  1.1148  0.4169
  163DOPC   O2119686   5.194   5.345  14.790 -0.1767  0.1755 -0.3956
  163DOPC   C2119687   5.105   5.247  14.806 -0.3106 -0.6423 -1.0204
  163DOPC   O2219688   4.985   5.268  14.813  0.4650  0.4696 -0.4546
  163DOPC   C2219689   5.186   5.110  14.805  0.6225  0.2456 -0.3074
  163DOPC   H2R19690   5.171   5.064  14.905  1.0875  1.2986  0.2540
  163DOPC   H2S19691   5.293   5.134  14.793  1.0823 -1.3655  0.2466
  163DOPC    C319692   5.240   5.576  14.736 -0.3459  0.4415 -0.3864
  163DOPC    HX19693   5.334   5.573  14.794 -0.1908  0.0622 -0.6497
  163DOPC    HY19694   5.186   5.672  14.751 -0.7356  0.1784 -0.0703
  163DOPC   O3119695   5.254   5.558  14.597  0.1590  0.0169  0.1083
  163DOPC   C3119696   5.361   5.514  14.550 -0.6483 -0.0994 -0.1615
  163DOPC   O3219697   5.467   5.482  14.606  0.6322  0.1218 -0.3319
  163DOPC   C3219698   5.345   5.508  14.394 -0.8534 -0.0542  0.0104
  163DOPC   H2X19699   5.432   5.458  14.346 -2.5720 -2.3557 -0.8764
  163DOPC   H2Y19700   5.256   5.447  14.368 -2.1025  1.9463 -0.6274
  163DOPC   C2319701   5.133   5.013  14.694 -0.0401  0.1379 -0.5892
  163DOPC   H3R19702   5.026   4.990  14.712  0.4913 -0.1155  2.8493
  163DOPC   H3S19703   5.182   4.914  14.687 -1.2308 -0.3614 -3.0745
  163DOPC   C2419704   5.124   5.056  14.547  0.2675 -0.4471  0.4142
  163DOPC   H4R19705   5.053   5.142  14.536  0.2525 -0.2778  1.6341
  163DOPC   H4S19706   5.081   4.974  14.487 -0.8567 -0.5494  1.3235
  163DOPC   C2519707   5.260   5.091  14.483  0.4378  0.2389  0.5840
  163DOPC   H5R19708   5.343   5.019  14.497  1.4521  1.0046 -1.1891
  163DOPC   H5S19709   5.297   5.186  14.526  1.6639 -0.2946  0.7412
  163DOPC   C2619710   5.257   5.115  14.325  0.5932  0.5997 -0.0833
  163DOPC   H6R19711   5.192   5.202  14.301  2.1088  2.0301  0.8495
  163DOPC   H6S19712   5.221   5.024  14.272 -1.4056  0.0200  2.1272
  163DOPC   C2719713   5.392   5.151  14.277 -0.0937  0.2210 -0.0456
  163DOPC   H7R19714   5.463   5.067  14.294 -0.6668 -0.4240 -0.8171
  163DOPC   H7S19715   5.436   5.234  14.336  1.1961  0.2681 -1.0141
  163DOPC   C2819716   5.408   5.210  14.134  0.3816  0.3779 -0.0682
  163DOPC   H8R19717   5.514   5.235  14.111  0.5787 -2.2048 -2.6475
  163DOPC   H8S19718   5.347   5.302  14.120 -1.4969 -0.9249 -0.8120
  163DOPC   C2919719   5.355   5.101  14.037  0.3990 -0.1363  0.1190
  163DOPC   H9R19720   5.260   5.055  14.069  0.5637 -0.6827 -0.1682
  163DOPC  C21019721   5.415   5.040  13.938 -0.0651 -0.3723 -0.2553
  163DOPC  H10R19722   5.376   4.945  13.901  0.7004 -1.5379  1.7706
  163DOPC  C21119723   5.559   5.068  13.895  0.0526  0.7571 -1.2425
  163DOPC  H11R19724   5.607   4.968  13.900 -0.5972  0.5068  1.5165
  163DOPC  H11S19725   5.620   5.129  13.964 -1.7689  1.8263 -0.4932
  163DOPC  C21219726   5.566   5.138  13.760 -0.0270  0.1883  0.2385
  163DOPC  H12R19727   5.675   5.152  13.740 -0.0379  0.7059  0.5097
  163DOPC  H12S19728   5.526   5.242  13.771  2.0643  0.8592  2.2323
  163DOPC  C21319729   5.512   5.062  13.641  0.2701  0.2942  0.4138
  163DOPC  H13R19730   5.402   5.060  13.655  0.5584  0.7389  3.5432
  163DOPC  H13S19731   5.546   4.956  13.634 -0.7784 -0.0726  0.7078
  163DOPC  C21419732   5.547   5.126  13.511  0.0080  0.3506 -0.1044
  163DOPC  H14R19733   5.654   5.108  13.486 -0.2493  0.4387 -1.3185
  163DOPC  H14S19734   5.529   5.236  13.514  1.5369  0.6248  0.0461
  163DOPC  C21519735   5.463   5.081  13.382 -0.4396 -0.2177 -0.3412
  163DOPC  H15R19736   5.371   5.142  13.375 -1.2763 -1.0622  2.2497
  163DOPC  H15S19737   5.428   4.979  13.408 -0.5305 -0.3687 -1.0306
  163DOPC  C21619738   5.545   5.094  13.255 -0.3075  0.0323 -0.9078
  163DOPC  H16R19739   5.636   5.032  13.240 -0.7545  0.1013 -4.6191
  163DOPC  H16S19740   5.586   5.197  13.248  1.8278 -0.2757  3.5385
  163DOPC  C21719741   5.454   5.058  13.134 -0.4950  0.1122  0.3603
  163DOPC  H17R19742   5.355   5.106  13.145 -0.0539  1.3353 -0.7630
  163DOPC  H17S19743   5.443   4.948  13.128 -0.2950  0.1263 -0.3390
  163DOPC  C21819744   5.510   5.119  13.002  0.2999  0.4912  0.3169
  163DOPC  H18R19745   5.611   5.077  12.981 -0.2525 -0.6169 -0.1550
  163DOPC  H18S19746   5.521   5.230  13.010 -1.2484  0.6142  1.1210
  163DOPC  H18T19747   5.448   5.110  12.910  0.5758  1.5895  0.0021
  163DOPC   C3319748   5.341   5.649  14.336  0.2052  0.5680  0.3853
  163DOPC   H3X19749   5.253   5.704  14.377 -0.9729  0.7640 -2.1820
  163DOPC   H3Y19750   5.330   5.649  14.226  0.5390 -2.2977  0.2656
  163DOPC   C3419751   5.475   5.724  14.353 -0.2771  0.0338  0.1357
  163DOPC   H4X19752   5.496   5.742  14.461 -2.2695  1.8671  0.2810
  163DOPC   H4Y19753   5.456   5.829  14.321  4.5634  1.6952  1.6769
  163DOPC   C3519754   5.599   5.669  14.279 -0.2343 -0.5841 -0.6116
  163DOPC   H5X19755   5.619   5.569  14.325 -2.2978  0.2002  2.2468
  163DOPC   H5Y19756   5.671   5.752  14.291 -0.4702 -0.6412  1.7042
  163DOPC   C3619757   5.573   5.635  14.130 -0.0470 -0.1799  0.0399
  163DOPC   H6X19758   5.476   5.582  14.115 -1.1993  2.2653 -2.0841
  163DOPC   H6Y19759   5.575   5.719  14.057  0.1283  0.2445  0.5297
  163DOPC   C3719760   5.687   5.549  14.068  0.5608 -0.6469 -0.4285
  163DOPC   H7X19761   5.776   5.614  14.083  0.7336 -0.7854 -0.8500
  163DOPC   H7Y19762   5.694   5.461  14.137  1.0902  1.3022  2.1745
  163DOPC   C3819763   5.678   5.515  13.919 -0.0079 -0.5535  0.5270
  163DOPC   H8X19764   5.593   5.445  13.905  0.8788 -1.4989 -0.2775
  163DOPC   H8Y19765   5.775   5.467  13.892  0.2197  1.2836 -2.3563
  163DOPC   C3919766   5.664   5.630  13.822 -0.0247  0.0833  0.7637
  163DOPC   H9X19767   5.635   5.726  13.865  0.3574 -0.3610  2.0458
  163DOPC  C31019768   5.647   5.624  13.687 -0.1696  0.3543 -0.0872
  163DOPC  H10X19769   5.598   5.711  13.642  1.0299 -0.6332 -3.5582
  163DOPC  C31119770   5.660   5.513  13.593 -0.7195 -0.0157 -0.0353
  163DOPC  H11X19771   5.561   5.511  13.543 -1.2660  0.8802  0.9643
  163DOPC  H11Y19772   5.672   5.415  13.645 -1.1908 -0.8480 -1.4278
  163DOPC  C31219773   5.768   5.524  13.492  0.2246 -0.1379  1.2498
  163DOPC  H12X19774   5.859   5.482  13.539 -0.9175 -0.1670  3.6022
  163DOPC  H12Y19775   5.790   5.629  13.463  0.4577 -0.7143 -0.8169
  163DOPC  C31319776   5.743   5.437  13.358  0.0704  0.4697 -0.5043
  163DOPC  H13X19777   5.722   5.334  13.392 -0.2753  0.9615  0.8247
  163DOPC  H13Y19778   5.660   5.480  13.299  0.0866 -0.6995 -1.4119
  163DOPC  C31419779   5.857   5.449  13.259 -0.3054 -0.4209 -0.5642
  163DOPC  H14X19780   5.888   5.554  13.240 -0.0038  0.0075  1.9956
  163DOPC  H14Y19781   5.948   5.403  13.303 -0.5369 -2.2797 -1.9256
  163DOPC  C31519782   5.833   5.375  13.130  0.9024  0.0108 -0.5570
  163DOPC  H15X19783   5.737   5.419  13.095 -0.5018 -2.1138  0.4268
  163DOPC  H15Y19784   5.811   5.269  13.155 -1.2824  0.7192  0.7975
  163DOPC  C31619785   5.951   5.367  13.034  0.1688  0.8746  0.3924
  163DOPC  H16X19786   5.990   5.468  13.010  2.6302 -0.3945 -1.2473
  163DOPC  H16Y19787   6.031   5.319  13.094 -0.0784  1.2509  1.0347
  163DOPC  C31719788   5.918   5.290  12.904 -0.1965  0.2376 -0.2089
  163DOPC  H17X19789   5.865   5.197  12.935 -0.2435  0.3538  0.0596
  163DOPC  H17Y19790   5.834   5.338  12.849 -0.3112 -0.1177 -0.3512
  163DOPC  C31819791   6.044   5.260  12.817 -0.9840 -0.2917 -0.0998
  163DOPC  H18X19792   6.095   5.172  12.861  0.2831 -0.5303 -1.9323
  163DOPC  H18Y19793   6.012   5.242  12.712  0.5004  1.9038 -1.0153
  163DOPC  H18Z19794   6.116   5.345  12.812  1.4385 -2.2792 -1.2548
  164DOPC     N19795   0.163   4.042  14.988 -0.4636 -0.0232  0.7783
  164DOPC   C1219796   0.256   4.041  14.869 -0.0067 -0.1639  0.3227
  164DOPC  H12A19797   0.347   3.989  14.895 -0.6594 -1.9060 -0.6820
  164DOPC  H12B19798   0.291   4.140  14.842 -0.7029 -0.1605 -0.6264
  164DOPC   C1319799   0.117   3.903  15.028 -0.2680  0.1930 -0.1812
  164DOPC  H13A19800   0.197   3.849  15.078  0.5948 -0.1772 -1.8963
  164DOPC  H13B19801   0.028   3.908  15.090  0.4638  1.5698  0.8060
  164DOPC  H13C19802   0.091   3.848  14.939 -0.2526 -1.2082  0.6345
  164DOPC   C1419803   0.041   4.123  14.954 -0.4340  0.0663 -0.0284
  164DOPC  H14A19804  -0.011   4.090  14.866 -0.2354 -2.6301  0.7920
  164DOPC  H14B19805  -0.028   4.134  15.037 -0.4796 -0.7655  0.0450
  164DOPC  H14C19806   0.071   4.227  14.947  3.1851 -0.7393  1.2952
  164DOPC   C1519807   0.224   4.112  15.103 -0.0094 -0.0002 -0.6152
  164DOPC  H15A19808   0.242   4.215  15.079 -1.2996  0.0626 -1.4374
  164DOPC  H15B19809   0.321   4.078  15.135  0.9259  2.4254 -0.7032
  164DOPC  H15C19810   0.155   4.102  15.186  0.6255 -3.9233 -0.3328
  164DOPC   C1119811   0.211   3.982  14.726  0.4463 -0.0809 -0.3107
  164DOPC  H11A19812   0.120   4.033  14.689  0.4655 -0.0273 -0.2834
  164DOPC  H11B19813   0.282   4.002  14.643 -0.2082 -0.9261 -1.0995
  164DOPC     P19814   0.297   3.735  14.736 -0.4041  0.3708 -0.0991
  164DOPC   O1319815   0.225   3.605  14.755  0.0685 -0.1208  0.5777
  164DOPC   O1419816   0.408   3.768  14.822 -0.1514  0.3808 -0.2171
  164DOPC   O1219817   0.188   3.844  14.741  0.0085  0.0746  0.4612
  164DOPC   O1119818   0.356   3.731  14.596 -0.6327 -0.4481  0.3690
  164DOPC    C119819   0.328   3.811  14.484 -0.5123 -0.1229 -0.2123
  164DOPC    HA19820   0.403   3.891  14.467 -0.7157  0.2673  0.6643
  164DOPC    HB19821   0.233   3.865  14.506  0.0915 -0.5625  4.6682
  164DOPC    C219822   0.315   3.722  14.362 -0.3927 -0.3667  0.2889
  164DOPC    HS19823   0.415   3.679  14.339 -0.5792 -1.6799  1.7715
  164DOPC   O2119824   0.283   3.815  14.249 -0.5509  0.1017  0.1285
  164DOPC   C2119825   0.308   3.775  14.126 -0.1538  0.1079  0.3400
  164DOPC   O2219826   0.356   3.664  14.099  0.1484 -0.3412 -0.1100
  164DOPC   C2219827   0.277   3.882  14.019  0.4979  0.7974 -0.1022
  164DOPC   H2R19828   0.347   3.968  14.033  0.8144  0.2586  1.9998
  164DOPC   H2S19829   0.174   3.922  14.026  0.9751  1.6852  3.2507
  164DOPC    C319830   0.215   3.598  14.382 -0.0081 -0.5652  0.2893
  164DOPC    HX19831   0.252   3.546  14.473 -0.3350  0.2886  0.9241
  164DOPC    HY19832   0.230   3.532  14.294 -2.8131  0.9536 -1.4931
  164DOPC   O3119833   0.083   3.643  14.396 -0.3564 -0.1145 -0.4302
  164DOPC   C3119834   0.002   3.639  14.290 -0.3812  0.4892 -0.2494
  164DOPC   O3219835   0.029   3.591  14.178 -0.1683 -0.8888 -0.2394
  164DOPC   C3219836  -0.136   3.688  14.322  0.3771  0.2162  0.2470
  164DOPC   H2X19837  -0.186   3.594  14.354  2.1673 -0.9884 -0.3314
  164DOPC   H2Y19838  -0.141   3.751  14.413 -1.0567 -1.2955  1.2850
  164DOPC   C2319839   0.322   3.829  13.874 -0.2386  0.3615 -0.3328
  164DOPC   H3R19840   0.253   3.746  13.846  2.8211 -2.5957  0.2380
  164DOPC   H3S19841   0.426   3.790  13.881 -1.0408 -1.6164  1.7365
  164DOPC   C2419842   0.321   3.936  13.766  0.1216  0.0566 -0.0767
  164DOPC   H4R19843   0.389   3.893  13.689 -0.1013 -1.3273  0.4864
  164DOPC   H4S19844   0.376   4.025  13.802 -0.5166 -0.3942  2.1795
  164DOPC   C2519845   0.185   3.989  13.724  0.2676 -0.0711 -0.5995
  164DOPC   H5R19846   0.171   4.061  13.807 -1.4163  0.1638 -1.0418
  164DOPC   H5S19847   0.104   3.912  13.733  0.9999 -0.6556  1.7788
  164DOPC   C2619848   0.175   4.070  13.592 -0.6243  0.1023 -0.2054
  164DOPC   H6R19849   0.263   4.136  13.601 -0.1109 -0.1683 -2.5200
  164DOPC   H6S19850   0.078   4.126  13.593 -0.9164 -0.4103  0.5471
  164DOPC   C2719851   0.203   4.002  13.459  0.3555  0.7167  0.3707
  164DOPC   H7R19852   0.136   3.919  13.429 -0.8388  2.3270 -1.7353
  164DOPC   H7S19853   0.301   3.956  13.480 -1.1370 -2.6791  0.5350
  164DOPC   C2819854   0.192   4.094  13.333  0.0732 -0.0779  0.3062
  164DOPC   H8R19855   0.246   4.189  13.351 -0.1794 -0.2409  2.0443
  164DOPC   H8S19856   0.087   4.131  13.327 -0.1540 -0.6242  0.8201
  164DOPC   C2919857   0.240   4.032  13.201 -0.0891  0.1580  0.4848
  164DOPC   H9R19858   0.346   4.035  13.173 -0.0216  1.3215  0.8015
  164DOPC  C21019859   0.149   3.998  13.105  0.2926 -0.0911  0.6688
  164DOPC  H10R19860   0.178   3.960  13.006  2.2112  0.5544  0.9305
  164DOPC  C21119861   0.002   4.016  13.108 -0.1228  0.0066  0.7876
  164DOPC  H11R19862  -0.026   4.122  13.092  2.2415  0.2322 -3.0855
  164DOPC  H11S19863  -0.022   3.983  13.212 -0.8588  0.2221  0.6926
  164DOPC  C21219864  -0.088   3.956  13.001  0.6886 -0.5174 -0.7999
  164DOPC  H12R19865  -0.187   3.955  13.051  1.1768 -1.3037  0.1892
  164DOPC  H12S19866  -0.067   3.848  12.987 -0.8255 -0.5937 -2.9731
  164DOPC  C21319867  -0.094   4.030  12.868 -0.2690 -0.1239  0.0212
  164DOPC  H13R19868   0.008   4.038  12.825 -0.0213  0.9130  0.7567
  164DOPC  H13S19869  -0.129   4.133  12.890  2.7557  1.1561 -0.5376
  164DOPC  C21419870  -0.184   3.973  12.760  0.2170 -0.9038  0.5441
  164DOPC  H14R19871  -0.281   3.947  12.809 -1.3599 -0.1392 -1.9885
  164DOPC  H14S19872  -0.145   3.876  12.722 -0.0545 -1.3192  1.2942
  164DOPC  C21519873  -0.207   4.080  12.652  0.2111  0.4949  1.0201
  164DOPC  H15R19874  -0.105   4.095  12.610 -0.0512 -1.1659 -0.3091
  164DOPC  H15S19875  -0.246   4.175  12.693  3.2524  2.3044  0.0564
  164DOPC  C21619876  -0.306   4.028  12.544  0.5410  0.2335 -0.2368
  164DOPC  H16R19877  -0.403   4.021  12.599  1.3887 -1.1171  1.1552
  164DOPC  H16S19878  -0.288   3.924  12.509 -0.6523  0.2426 -0.9360
  164DOPC  C21719879  -0.319   4.105  12.416 -0.1704  0.3932 -0.2235
  164DOPC  H17R19880  -0.395   4.058  12.350  0.0051 -2.0238  1.1832
  164DOPC  H17S19881  -0.214   4.122  12.382  0.9554  1.2538  3.2713
  164DOPC  C21819882  -0.374   4.244  12.442  0.0017 -0.5377 -0.7215
  164DOPC  H18R19883  -0.478   4.240  12.481  0.2638  0.0688  0.0612
  164DOPC  H18S19884  -0.376   4.300  12.345 -1.4153 -1.1507 -1.0744
  164DOPC  H18T19885  -0.312   4.295  12.518 -1.3446 -0.6566  0.4940
  164DOPC   C3319886  -0.208   3.747  14.201  0.3161  0.8537  0.6519
  164DOPC   H3X19887  -0.148   3.823  14.147 -0.1667  0.2238 -0.8195
  164DOPC   H3Y19888  -0.294   3.804  14.242 -0.0349 -1.1343  2.8869
  164DOPC   C3419889  -0.253   3.636  14.092 -0.0300  0.0807  0.6149
  164DOPC   H4X19890  -0.333   3.575  14.138  1.2702 -0.9615  1.5774
  164DOPC   H4Y19891  -0.164   3.576  14.061  1.4585  2.5092 -0.1386
  164DOPC   C3519892  -0.290   3.719  13.967  0.3519  0.6722 -0.0825
  164DOPC   H5X19893  -0.202   3.777  13.932  0.0837 -0.7969 -3.6505
  164DOPC   H5Y19894  -0.376   3.781  14.000 -0.4460 -0.1328 -0.6112
  164DOPC   C3619895  -0.341   3.633  13.846  0.6262  0.0863  0.8251
  164DOPC   H6X19896  -0.266   3.557  13.815 -1.8769 -2.5461  0.7934
  164DOPC   H6Y19897  -0.430   3.574  13.878 -0.2996  1.5317  1.0034
  164DOPC   C3719898  -0.383   3.728  13.733 -0.1018 -0.3861  0.3037
  164DOPC   H7X19899  -0.470   3.794  13.752  0.6832  0.2185  1.9109
  164DOPC   H7Y19900  -0.290   3.787  13.719  1.2857 -2.4298  0.3305
  164DOPC   C3819901  -0.400   3.669  13.592 -0.1910 -0.1033  0.3961
  164DOPC   H8X19902  -0.485   3.598  13.606  1.0458 -1.7749 -0.2646
  164DOPC   H8Y19903  -0.309   3.608  13.576 -0.1142 -0.7206  2.7407
  164DOPC   C3919904  -0.428   3.775  13.498 -0.5370  0.2095 -0.2268
  164DOPC   H9X19905  -0.484   3.859  13.542 -0.5232 -0.0181  0.2315
  164DOPC  C31019906  -0.384   3.790  13.370 -0.0117 -0.6241  0.7314
  164DOPC  H10X19907  -0.430   3.862  13.301  1.0265 -1.8448 -1.3107
  164DOPC  C31119908  -0.282   3.711  13.291 -0.4446 -0.7506  0.5237
  164DOPC  H11X19909  -0.236   3.646  13.369  2.4406 -1.2305 -1.4155
  164DOPC  H11Y19910  -0.199   3.769  13.245 -3.1175  1.5464 -1.8228
  164DOPC  C31219911  -0.342   3.624  13.184 -0.8956  1.3774 -0.1599
  164DOPC  H12X19912  -0.429   3.567  13.224  0.3071 -1.5152 -1.3371
  164DOPC  H12Y19913  -0.263   3.550  13.159 -1.1030  0.9686  0.3587
  164DOPC  C31319914  -0.386   3.705  13.060 -0.6904  0.2411  0.0927
  164DOPC  H13X19915  -0.448   3.793  13.087  0.0016  0.9176 -0.4431
  164DOPC  H13Y19916  -0.293   3.754  13.024 -0.6011 -0.2230 -0.3337
  164DOPC  C31419917  -0.457   3.617  12.966  0.3771 -0.0831  0.5089
  164DOPC  H14X19918  -0.547   3.579  13.019 -0.9234 -0.5370 -1.9063
  164DOPC  H14Y19919  -0.401   3.525  12.937 -0.2944 -0.6972  1.0922
  164DOPC  C31519920  -0.527   3.696  12.853  0.1174 -0.5242  0.4509
  164DOPC  H15X19921  -0.446   3.741  12.793  2.1594 -1.2459  2.5136
  164DOPC  H15Y19922  -0.592   3.777  12.892  1.2522  0.2827  0.7013
  164DOPC  C31619923  -0.600   3.602  12.757  0.2660 -0.1813  0.1111
  164DOPC  H16X19924  -0.539   3.512  12.736  0.5107 -0.0473  0.2468
  164DOPC  H16Y19925  -0.691   3.560  12.805 -0.3215  3.1301  2.2293
  164DOPC  C31719926  -0.636   3.680  12.622  0.4939  0.2471  0.1711
  164DOPC  H17X19927  -0.716   3.630  12.564  0.3293  1.8645 -1.0637
  164DOPC  H17Y19928  -0.686   3.777  12.643  0.2487  0.2994 -0.6396
  164DOPC  C31819929  -0.524   3.712  12.527 -0.2832 -0.3478  0.3823
  164DOPC  H18X19930  -0.472   3.621  12.490 -1.4585 -0.1840 -1.8334
  164DOPC  H18Y19931  -0.558   3.769  12.438  0.0696 -1.0667 -0.2229
  164DOPC  H18Z19932  -0.451   3.781  12.575 -0.9263  0.3470  0.3836
  165DOPC     N19933   3.224   2.412  15.038  0.1173  0.0651  0.1698
  165DOPC   C1219934   3.295   2.322  14.928 -0.3712  0.0648  0.1489
  165DOPC  H12A19935   3.397   2.356  14.917 -0.8221  1.4699  0.1158
  165DOPC  H12B19936   3.241   2.349  14.838  0.2299 -0.7265 -0.4646
  165DOPC   C1319937   3.297   2.397  15.172 -0.1151 -0.4351 -0.2351
  165DOPC  H13A19938   3.283   2.299  15.215 -3.1310 -0.0603 -0.2043
  165DOPC  H13B19939   3.401   2.425  15.166 -0.5345  1.4137  0.5661
  165DOPC  H13C19940   3.251   2.464  15.242  0.2688 -0.5697  0.1461
  165DOPC   C1419941   3.078   2.370  15.047  0.4265  1.4311  0.1226
  165DOPC  H14A19942   3.070   2.263  15.062 -0.4922  0.6244 -4.5241
  165DOPC  H14B19943   3.026   2.421  15.127 -0.2589  0.8661  0.0424
  165DOPC  H14C19944   3.027   2.397  14.956 -0.6348  2.6786  1.0466
  165DOPC   C1519945   3.229   2.557  14.996 -0.4873 -0.3389 -0.0561
  165DOPC  H15A19946   3.181   2.569  14.900 -1.4067  1.0181  0.5552
  165DOPC  H15B19947   3.332   2.591  14.993  0.3485 -2.4905  1.7191
  165DOPC  H15C19948   3.183   2.623  15.068  1.0205  0.8665 -0.1469
  165DOPC   C1119949   3.296   2.169  14.949 -0.3602  0.5085 -0.8577
  165DOPC  H11A19950   3.368   2.113  14.886  0.0751  1.9189 -1.6612
  165DOPC  H11B19951   3.313   2.142  15.055  1.4273  1.3495 -0.8948
  165DOPC     P19952   3.123   2.087  14.782 -0.0475  0.1416  0.1704
  165DOPC   O1319953   3.120   2.214  14.717 -0.1788 -0.3669 -0.0172
  165DOPC   O1419954   3.002   2.006  14.772  0.8616  0.1720 -0.4306
  165DOPC   O1219955   3.165   2.116  14.935  0.3193  0.1928  0.2486
  165DOPC   O1119956   3.254   2.014  14.729  0.1227  0.7835 -0.3818
  165DOPC    C119957   3.259   1.879  14.676  0.5550 -0.5487 -0.6669
  165DOPC    HA19958   3.205   1.874  14.580 -2.5104  4.4846  0.3930
  165DOPC    HB19959   3.210   1.814  14.751 -0.7426  1.6842  0.5483
  165DOPC    C219960   3.401   1.831  14.638  0.0536  0.7917 -0.1180
  165DOPC    HS19961   3.461   1.815  14.730  2.1239 -2.0790 -1.8483
  165DOPC   O2119962   3.445   1.930  14.544  0.0748 -0.7447  0.0581
  165DOPC   C2119963   3.577   1.936  14.528 -0.2355  0.6034 -0.2043
  165DOPC   O2219964   3.660   1.870  14.586 -0.0306 -0.2222  0.3555
  165DOPC   C2219965   3.608   2.035  14.415 -0.0975  0.1972  0.3071
  165DOPC   H2R19966   3.640   2.134  14.456 -1.0532  0.0248  1.5436
  165DOPC   H2S19967   3.511   2.040  14.362  0.0033 -1.2854 -0.0680
  165DOPC    C319968   3.393   1.690  14.571 -0.1181  0.1396  0.3536
  165DOPC    HX19969   3.312   1.633  14.623 -1.5793  1.7810 -0.0391
  165DOPC    HY19970   3.490   1.637  14.584 -0.4147 -0.7656 -0.9310
  165DOPC   O3119971   3.341   1.688  14.432 -0.0327 -0.6100 -0.2548
  165DOPC   C3119972   3.420   1.638  14.338 -0.3025 -0.2847 -0.4355
  165DOPC   O3219973   3.537   1.609  14.350  0.3699 -0.2173 -0.7461
  165DOPC   C3219974   3.335   1.650  14.213  0.0697  0.7444 -0.3747
  165DOPC   H2X19975   3.262   1.568  14.200 -0.4213  1.2487 -0.8171
  165DOPC   H2Y19976   3.277   1.745  14.217  0.3530  0.9316 -0.6968
  165DOPC   C2319977   3.717   1.976  14.324  0.1567 -0.9683 -0.2070
  165DOPC   H3R19978   3.692   1.873  14.291 -0.2844 -0.5836 -1.1139
  165DOPC   H3S19979   3.816   1.971  14.375  0.3174 -1.1051 -0.5316
  165DOPC   C2419980   3.738   2.050  14.188  0.6051 -0.3443  0.1672
  165DOPC   H4R19981   3.807   1.993  14.121  0.5891  0.7619 -0.8198
  165DOPC   H4S19982   3.795   2.143  14.203 -1.1300  0.9493 -0.8696
  165DOPC   C2519983   3.602   2.062  14.125  0.4235  0.0714 -0.1418
  165DOPC   H5R19984   3.551   2.153  14.164  1.8322  1.3575 -1.1923
  165DOPC   H5S19985   3.544   1.973  14.156  1.9966 -0.4343  1.5692
  165DOPC   C2619986   3.608   2.081  13.975  0.7752 -0.2430  0.0685
  165DOPC   H6R19987   3.513   2.126  13.938  0.8718  1.3916  1.6455
  165DOPC   H6S19988   3.623   1.982  13.928  1.1426  0.5297 -1.5092
  165DOPC   C2719989   3.703   2.192  13.924  0.4932 -0.1282 -0.0659
  165DOPC   H7R19990   3.810   2.165  13.938  0.7480  1.5660  1.6271
  165DOPC   H7S19991   3.690   2.282  13.988  0.1689 -0.5342  0.4514
  165DOPC   C2819992   3.673   2.224  13.774 -0.5755 -0.0935 -0.9604
  165DOPC   H8R19993   3.669   2.335  13.771 -3.2148  0.0481  2.2124
  165DOPC   H8S19994   3.569   2.186  13.759  0.0311 -2.2791 -0.0056
  165DOPC   C2919995   3.778   2.158  13.687 -1.0249  0.5096 -0.4172
  165DOPC   H9R19996   3.810   2.060  13.726 -1.7092  0.2848 -0.3936
  165DOPC  C21019997   3.843   2.213  13.582  0.2284 -0.1809 -0.2515
  165DOPC  H10R19998   3.907   2.145  13.524  1.1945  0.2551  0.2792
  165DOPC  C21119999   3.802   2.342  13.515  0.0544 -0.1431 -0.0595
  165DOPC  H11R20000   3.884   2.381  13.450  2.8774 -0.9733  2.7505
  165DOPC  H11S20001   3.792   2.419  13.595  3.3779  1.1354 -0.7041
  165DOPC  C21220002   3.681   2.328  13.427  0.4522  0.0771 -0.1194
  165DOPC  H12R20003   3.588   2.341  13.487 -0.1302  0.7114 -1.1231
  165DOPC  H12S20004   3.664   2.226  13.385 -1.3833  1.1448 -2.2422
  165DOPC  C21320005   3.684   2.419  13.308  0.2972 -0.4083 -0.0409
  165DOPC  H13R20006   3.779   2.424  13.251  1.2196  2.8373  1.5328
  165DOPC  H13S20007   3.678   2.522  13.347 -3.1511 -0.4173 -0.2356
  165DOPC  C21420008   3.561   2.402  13.211  0.0306 -0.2218  0.6594
  165DOPC  H14R20009   3.556   2.493  13.149  0.3113 -0.2652  0.5727
  165DOPC  H14S20010   3.470   2.407  13.274  0.0422 -3.1329  1.0752
  165DOPC  C21520011   3.579   2.277  13.120 -0.2099 -0.5084  0.1743
  165DOPC  H15R20012   3.557   2.182  13.174 -1.2813 -2.3326 -3.1652
  165DOPC  H15S20013   3.676   2.270  13.067 -0.0178 -1.3916  0.6210
  165DOPC  C21620014   3.467   2.264  13.018  0.6034 -0.2163  0.7943
  165DOPC  H16R20015   3.499   2.187  12.945 -0.6201 -0.1491  0.1649
  165DOPC  H16S20016   3.448   2.362  12.969  0.4830  0.1722  1.5932
  165DOPC  C21720017   3.327   2.216  13.058 -0.3627 -0.2098 -0.0995
  165DOPC  H17R20018   3.283   2.277  13.140  0.2644  1.3583 -0.8738
  165DOPC  H17S20019   3.329   2.114  13.102 -4.4790 -1.0550 -1.4053
  165DOPC  C21820020   3.216   2.209  12.947 -1.1788 -0.4702  0.2338
  165DOPC  H18R20021   3.251   2.183  12.845 -0.4472  2.6401 -0.4287
  165DOPC  H18S20022   3.187   2.314  12.926  2.8254  1.1123  1.6087
  165DOPC  H18T20023   3.131   2.142  12.970 -2.2470  0.5595 -0.5787
  165DOPC   C3320024   3.404   1.650  14.078 -0.7169  0.4255  1.2696
  165DOPC   H3X20025   3.400   1.553  14.024 -0.8758  1.2174 -0.1886
  165DOPC   H3Y20026   3.513   1.670  14.090 -0.9750  4.8310 -1.3718
  165DOPC   C3420027   3.371   1.764  13.988  0.7925 -0.0734 -0.1120
  165DOPC   H4X20028   3.406   1.858  14.035  1.5637 -0.3152 -0.1919
  165DOPC   H4Y20029   3.261   1.775  13.971  1.0090  3.9100  0.1817
  165DOPC   C3520030   3.440   1.751  13.848 -0.2578 -0.2497 -0.0518
  165DOPC   H5X20031   3.429   1.647  13.811  2.4064 -0.7593  0.3591
  165DOPC   H5Y20032   3.550   1.756  13.866 -0.1545 -1.0304 -0.4197
  165DOPC   C3620033   3.391   1.857  13.749 -0.2758 -0.0623  0.3571
  165DOPC   H6X20034   3.287   1.831  13.721 -0.5071  0.5470  0.6243
  165DOPC   H6Y20035   3.375   1.949  13.810 -1.0739 -0.4059  0.6848
  165DOPC   C3720036   3.479   1.864  13.626 -0.2679  0.1303 -0.5474
  165DOPC   H7X20037   3.458   1.773  13.567 -3.2087  1.1977 -1.3549
  165DOPC   H7Y20038   3.587   1.875  13.649 -0.1168 -2.0198 -0.0092
  165DOPC   C3820039   3.437   1.992  13.544  0.4480  0.8691 -0.3523
  165DOPC   H8X20040   3.524   2.019  13.480  2.5154 -1.0343  1.4845
  165DOPC   H8Y20041   3.426   2.086  13.603 -1.6465  0.1468  0.5197
  165DOPC   C3920042   3.306   1.976  13.468 -0.2578  0.2758  0.6837
  165DOPC   H9X20043   3.288   1.876  13.426 -1.6208  1.0351 -0.6382
  165DOPC  C31020044   3.200   2.063  13.462 -0.0384 -0.6626  0.2413
  165DOPC  H10X20045   3.111   2.044  13.400  0.5921  2.3446 -1.8284
  165DOPC  C31120046   3.191   2.209  13.511 -0.1757 -0.2423  0.5321
  165DOPC  H11X20047   3.125   2.255  13.435  1.4399 -1.8180 -1.9970
  165DOPC  H11Y20048   3.292   2.255  13.512  0.0858 -0.7959  0.1124
  165DOPC  C31220049   3.111   2.221  13.644 -0.3862  0.6627  0.5966
  165DOPC  H12X20050   3.024   2.153  13.630  0.1731  0.0488 -0.0079
  165DOPC  H12Y20051   3.078   2.323  13.674 -0.7577  0.2001  1.8103
  165DOPC  C31320052   3.176   2.172  13.779 -0.7387  0.6262  1.1712
  165DOPC  H13X20053   3.151   2.064  13.786 -0.8830  0.5779  0.0977
  165DOPC  H13Y20054   3.285   2.183  13.766 -0.9046  0.5527 -0.5101
  165DOPC  C31420055   3.128   2.227  13.915 -0.4176  0.3695  0.1114
  165DOPC  H14X20056   3.166   2.330  13.932  2.4350 -0.1754 -2.2045
  165DOPC  H14Y20057   3.017   2.217  13.922 -0.3275 -0.6438  0.3168
  165DOPC  C31520058   3.190   2.138  14.022 -0.9879 -0.3496 -0.1624
  165DOPC  H15X20059   3.300   2.137  14.010 -1.0000 -0.7167 -0.2533
  165DOPC  H15Y20060   3.162   2.030  14.018  1.0163 -1.0037  1.3982
  165DOPC  C31620061   3.155   2.172  14.169  0.1533  0.1521 -0.4987
  165DOPC  H16X20062   3.189   2.274  14.199  0.0934 -0.3254  1.2410
  165DOPC  H16Y20063   3.044   2.174  14.175  0.2013 -1.1456  1.7441
  165DOPC  C31720064   3.215   2.067  14.262 -0.5695 -0.1848  0.7184
  165DOPC  H17X20065   3.172   1.967  14.239 -0.9852  0.4557 -1.4952
  165DOPC  H17Y20066   3.325   2.066  14.245 -0.5665  0.8231  0.6411
  165DOPC  C31820067   3.183   2.105  14.409  0.1961 -0.1294  0.2256
  165DOPC  H18X20068   3.169   2.213  14.431  1.1483  0.0565 -0.0457
  165DOPC  H18Y20069   3.090   2.057  14.448 -0.6251  2.7179  2.1021
  165DOPC  H18Z20070   3.265   2.063  14.472 -1.2185 -1.6092  1.1547
  166DOPC     N20071   4.406   4.550  15.407 -0.7231  0.1680  0.4700
  166DOPC   C1220072   4.480   4.513  15.279  0.2604  0.4907  0.5113
  166DOPC  H12A20073   4.484   4.405  15.269 -2.9686  0.4170 -1.8178
  166DOPC  H12B20074   4.581   4.550  15.274  0.6288  0.0924  3.3554
  166DOPC   C1320075   4.283   4.467  15.416  0.4157  0.1724 -0.0932
  166DOPC  H13A20076   4.314   4.369  15.384  0.6916 -0.1470  1.0747
  166DOPC  H13B20077   4.233   4.468  15.512 -0.0480  0.8391 -0.3350
  166DOPC  H13C20078   4.213   4.506  15.345  0.3373  1.3005  0.5701
  166DOPC   C1420079   4.362   4.692  15.416 -0.4917  0.2503  0.7683
  166DOPC  H14A20080   4.312   4.711  15.510  0.8230  1.3495  1.2868
  166DOPC  H14B20081   4.447   4.759  15.420 -0.4525  0.2596 -0.0726
  166DOPC  H14C20082   4.295   4.728  15.339 -0.3713 -1.0560  0.0247
  166DOPC   C1520083   4.489   4.510  15.528 -0.5222  0.1865 -0.0340
  166DOPC  H15A20084   4.538   4.415  15.513 -1.2751 -0.2666  0.3202
  166DOPC  H15B20085   4.443   4.524  15.625  3.1931  1.0070  1.7580
  166DOPC  H15C20086   4.562   4.589  15.520 -0.7946  0.5167  0.6646
  166DOPC   C1120087   4.423   4.556  15.146  1.3877  0.0138  0.5361
  166DOPC  H11A20088   4.470   4.497  15.065 -1.2404 -0.2518 -0.9172
  166DOPC  H11B20089   4.315   4.528  15.147  1.2928  0.3068  2.2275
  166DOPC     P20090   4.382   4.756  14.983  0.2519 -0.6508 -0.1679
  166DOPC   O1320091   4.395   4.902  14.991 -0.1844  0.0381  0.2394
  166DOPC   O1420092   4.246   4.703  14.943 -0.0312 -0.4468  0.2921
  166DOPC   O1220093   4.431   4.689  15.115 -0.3093 -0.0687 -0.0441
  166DOPC   O1120094   4.474   4.691  14.871 -0.3273 -0.3398  0.1075
  166DOPC    C120095   4.602   4.738  14.847  0.0697  0.7041  0.0315
  166DOPC    HA20096   4.651   4.645  14.811 -1.7137  0.9104 -3.2896
  166DOPC    HB20097   4.656   4.770  14.939 -1.3878 -0.0932  1.2132
  166DOPC    C220098   4.619   4.839  14.735 -0.0890 -0.7403 -0.5577
  166DOPC    HS20099   4.556   4.925  14.765  1.9179  0.4730  0.3475
  166DOPC   O2120100   4.569   4.771  14.618  0.5204  0.0888 -0.0114
  166DOPC   C2120101   4.516   4.840  14.521  0.0625 -0.3574  0.1859
  166DOPC   O2220102   4.496   4.960  14.525 -0.4356 -0.1851  0.1220
  166DOPC   C2220103   4.489   4.750  14.407 -0.1321 -0.2264  0.7635
  166DOPC   H2R20104   4.412   4.672  14.426  0.2567 -0.4130  1.6388
  166DOPC   H2S20105   4.577   4.688  14.378 -0.3766  0.0392 -0.6223
  166DOPC    C320106   4.769   4.884  14.717  0.0035 -0.1947  0.3514
  166DOPC    HX20107   4.824   4.790  14.695 -0.0391 -0.5122  1.5044
  166DOPC    HY20108   4.809   4.930  14.810  1.3040  0.2151 -0.3880
  166DOPC   O3120109   4.780   4.976  14.606  0.7822  0.1523 -0.1753
  166DOPC   C3120110   4.747   5.101  14.626  0.4467  0.0489  0.0642
  166DOPC   O3220111   4.710   5.155  14.727 -0.6090 -0.1880  0.2244
  166DOPC   C3220112   4.757   5.181  14.501  0.3350 -0.0911 -0.4755
  166DOPC   H2X20113   4.825   5.136  14.425  0.5112 -1.4070  0.4264
  166DOPC   H2Y20114   4.660   5.186  14.448  0.3933  1.0232 -0.4901
  166DOPC   C2320115   4.447   4.827  14.278 -0.2635  0.1997  0.2106
  166DOPC   H3R20116   4.497   4.926  14.281  2.3849 -1.0286 -0.3570
  166DOPC   H3S20117   4.337   4.836  14.284 -0.3697 -1.3444  0.7623
  166DOPC   C2420118   4.498   4.765  14.145 -0.2135  0.3180 -0.6149
  166DOPC   H4R20119   4.467   4.658  14.139 -0.8202  0.3883  0.7489
  166DOPC   H4S20120   4.609   4.759  14.141 -0.2904 -0.9453 -1.7125
  166DOPC   C2520121   4.450   4.835  14.010 -0.0771  0.6959  0.3378
  166DOPC   H5R20122   4.496   4.935  14.025  2.5913 -0.4152  0.1887
  166DOPC   H5S20123   4.340   4.820  14.008  0.1648 -1.3017  0.2774
  166DOPC   C2620124   4.534   4.783  13.891  0.0834  0.1793  0.4376
  166DOPC   H6R20125   4.492   4.683  13.867 -0.8796  0.8037 -0.5289
  166DOPC   H6S20126   4.637   4.760  13.927  0.6365  1.0530 -0.5446
  166DOPC   C2720127   4.518   4.863  13.763  0.1515  0.1795 -0.2990
  166DOPC   H7R20128   4.583   4.951  13.779  0.2893 -0.0445  0.4019
  166DOPC   H7S20129   4.412   4.897  13.758 -1.2129 -3.2304  1.5459
  166DOPC   C2820130   4.569   4.797  13.635 -0.4752 -0.4759  0.2523
  166DOPC   H8R20131   4.515   4.702  13.619 -2.9843  1.1624 -1.8701
  166DOPC   H8S20132   4.672   4.758  13.649 -0.3408 -0.1543  0.1697
  166DOPC   C2920133   4.568   4.883  13.508  0.3147 -0.0960 -0.9872
  166DOPC   H9R20134   4.502   4.970  13.520 -1.3094 -1.1886 -1.6713
  166DOPC  C21020135   4.629   4.858  13.392 -0.2520 -0.2133 -0.9111
  166DOPC  H10R20136   4.618   4.933  13.313 -0.0943  0.3990 -0.3622
  166DOPC  C21120137   4.706   4.732  13.364  0.2300  0.4519  0.2064
  166DOPC  H11R20138   4.686   4.650  13.436  0.0685 -0.6102 -1.0107
  166DOPC  H11S20139   4.817   4.735  13.359  0.2673 -1.7394 -2.9175
  166DOPC  C21220140   4.670   4.672  13.231  0.1407 -0.0096  0.6003
  166DOPC  H12R20141   4.720   4.573  13.221 -1.1490 -0.5966 -0.3824
  166DOPC  H12S20142   4.704   4.737  13.147  2.4323 -1.3583  0.3688
  166DOPC  C21320143   4.524   4.626  13.210  0.7534 -0.1559 -0.4999
  166DOPC  H13R20144   4.449   4.697  13.251 -0.5445 -2.6374  1.7717
  166DOPC  H13S20145   4.498   4.540  13.275 -0.1523  0.3017 -0.2323
  166DOPC  C21420146   4.470   4.609  13.069 -0.7637 -0.0042  0.3027
  166DOPC  H14R20147   4.488   4.504  13.035  0.0957  0.8202 -1.9907
  166DOPC  H14S20148   4.532   4.666  12.996 -1.4334 -2.2389 -2.1602
  166DOPC  C21520149   4.326   4.658  13.038 -0.3451 -0.0641  0.2401
  166DOPC  H15R20150   4.319   4.769  13.030  0.0833 -0.1131 -0.9943
  166DOPC  H15S20151   4.261   4.632  13.125  1.6908  2.0443  2.5134
  166DOPC  C21620152   4.264   4.596  12.913 -0.9582 -0.1228 -0.2174
  166DOPC  H16R20153   4.188   4.674  12.892 -0.0407  1.1105  0.8821
  166DOPC  H16S20154   4.205   4.503  12.930  1.9413 -1.6586  2.6262
  166DOPC  C21720155   4.356   4.582  12.789  0.0888  0.5678  0.1041
  166DOPC  H17R20156   4.288   4.538  12.714 -1.7908  3.3609  0.0347
  166DOPC  H17S20157   4.447   4.521  12.812 -1.4180 -1.6242  0.5198
  166DOPC  C21820158   4.398   4.710  12.723  0.2573  0.0244 -0.5865
  166DOPC  H18R20159   4.469   4.764  12.790 -0.8368  1.7642 -0.7536
  166DOPC  H18S20160   4.310   4.775  12.700  1.6173  2.6005  0.9321
  166DOPC  H18T20161   4.454   4.680  12.633 -1.1558  0.0169 -1.4889
  166DOPC   C3320162   4.804   5.324  14.528 -0.1660  0.3603  0.3043
  166DOPC   H3X20163   4.902   5.324  14.581  0.3679  0.2286 -0.6659
  166DOPC   H3Y20164   4.737   5.377  14.599 -0.1638  2.4129 -1.1528
  166DOPC   C3420165   4.833   5.409  14.410  0.0587  1.0474 -0.0335
  166DOPC   H4X20166   4.849   5.511  14.450 -0.0720  1.0738 -0.0466
  166DOPC   H4Y20167   4.740   5.410  14.349  0.0733  1.1170 -0.0543
  166DOPC   C3520168   4.960   5.377  14.338 -0.1875  0.1933 -0.1355
  166DOPC   H5X20169   4.948   5.271  14.309 -2.9022 -0.1731  1.9144
  166DOPC   H5Y20170   5.047   5.377  14.407  0.4822  1.7383 -0.9093
  166DOPC   C3620171   4.990   5.471  14.218 -0.0701 -0.4004 -0.4297
  166DOPC   H6X20172   4.893   5.509  14.179 -0.2346  1.2337  1.4251
  166DOPC   H6Y20173   5.053   5.556  14.252 -0.1812  0.7493 -2.8979
  166DOPC   C3720174   5.071   5.383  14.121  0.6040 -1.0397  0.4892
  166DOPC   H7X20175   5.177   5.362  14.150  1.1073  0.6386  0.0102
  166DOPC   H7Y20176   5.018   5.287  14.104  1.3601 -1.5255  0.7834
  166DOPC   C3820177   5.074   5.436  13.976  0.3949  0.4524  0.1568
  166DOPC   H8X20178   4.974   5.473  13.946  0.8908  0.0422 -2.1605
  166DOPC   H8Y20179   5.093   5.351  13.907 -0.0560 -0.9708  1.7184
  166DOPC   C3920180   5.171   5.555  13.973 -0.0691 -0.5695  0.0175
  166DOPC   H9X20181   5.149   5.625  14.055 -0.9159 -0.8359  0.0245
  166DOPC  C31020182   5.274   5.570  13.885 -0.0727  1.2413  1.3250
  166DOPC  H10X20183   5.324   5.667  13.875  1.5274  0.2593 -1.0374
  166DOPC  C31120184   5.315   5.462  13.783 -0.0510 -0.0574 -0.4023
  166DOPC  H11X20185   5.287   5.362  13.822  1.6544  0.2921  1.9221
  166DOPC  H11Y20186   5.426   5.468  13.785  0.0281 -1.5386  0.8826
  166DOPC  C31220187   5.247   5.484  13.638 -0.4649 -0.1537  0.6807
  166DOPC  H12X20188   5.260   5.585  13.593 -0.6628  1.5559  4.1153
  166DOPC  H12Y20189   5.140   5.457  13.649 -0.7532  0.2752 -0.8850
  166DOPC  C31320190   5.286   5.382  13.527 -0.5254  0.0406  0.1047
  166DOPC  H13X20191   5.385   5.396  13.480 -0.7105  1.9293  0.1986
  166DOPC  H13Y20192   5.271   5.278  13.566  1.4968 -0.2541  0.2001
  166DOPC  C31420193   5.182   5.384  13.409 -0.5325 -0.2152 -0.5128
  166DOPC  H14X20194   5.166   5.282  13.369 -3.1627  0.0924 -0.3887
  166DOPC  H14Y20195   5.078   5.402  13.444 -1.1660 -1.1415 -1.8309
  166DOPC  C31520196   5.229   5.489  13.305  0.0422  0.3768 -0.0539
  166DOPC  H15X20197   5.284   5.580  13.339 -0.0848  0.4216  0.0330
  166DOPC  H15Y20198   5.131   5.520  13.262 -0.2433 -0.6902 -0.1859
  166DOPC  C31620199   5.286   5.423  13.176 -0.0191  0.1225 -0.7563
  166DOPC  H16X20200   5.389   5.385  13.193  0.5486  2.3066  1.2196
  166DOPC  H16Y20201   5.227   5.328  13.175  1.7407 -1.1109  1.5827
  166DOPC  C31720202   5.273   5.512  13.054 -0.4188  0.1415  0.1540
  166DOPC  H17X20203   5.171   5.555  13.044 -0.5689 -0.1464  0.4596
  166DOPC  H17Y20204   5.350   5.591  13.067  0.4908 -0.6004 -0.5795
  166DOPC  C31820205   5.322   5.451  12.921 -0.1268 -0.0707  0.2059
  166DOPC  H18X20206   5.432   5.438  12.933 -0.3132 -0.4081  1.8057
  166DOPC  H18Y20207   5.285   5.350  12.895 -1.4131  0.7033 -1.1213
  166DOPC  H18Z20208   5.297   5.521  12.838 -0.0858 -0.9142 -0.5266
  167DOPC     N20209   5.329   3.860  14.873 -0.5663  0.0361  0.1678
  167DOPC   C1220210   5.368   3.898  14.733  0.3069  0.3847  0.3518
  167DOPC  H12A20211   5.295   3.968  14.695  0.1658 -0.4022 -0.8945
  167DOPC  H12B20212   5.340   3.812  14.673 -0.3743 -0.3653  1.7005
  167DOPC   C1320213   5.331   3.970  14.970 -0.2417  0.1129 -0.2072
  167DOPC  H13A20214   5.319   3.944  15.074 -0.2536  0.8704 -0.0190
  167DOPC  H13B20215   5.425   4.024  14.968  0.7593 -1.5604 -0.5123
  167DOPC  H13C20216   5.254   4.043  14.951  0.6862  0.5002 -2.8901
  167DOPC   C1420217   5.424   3.758  14.934 -0.4034  0.3291  0.6942
  167DOPC  H14A20218   5.527   3.772  14.902 -0.6873  1.7550  0.3588
  167DOPC  H14B20219   5.404   3.762  15.040 -2.1456 -0.9290  0.4587
  167DOPC  H14C20220   5.388   3.662  14.900 -1.2406  1.3132 -1.4127
  167DOPC   C1520221   5.193   3.800  14.879 -0.6514 -0.3398 -0.1440
  167DOPC  H15A20222   5.168   3.728  14.802 -1.9260  0.9631 -0.9891
  167DOPC  H15B20223   5.112   3.871  14.881 -1.6742 -1.4701  1.2653
  167DOPC  H15C20224   5.190   3.762  14.980 -0.9116 -1.6554 -0.6221
  167DOPC   C1120225   5.506   3.955  14.703 -1.1559 -0.3763  0.5961
  167DOPC  H11A20226   5.574   3.876  14.741  1.9119  1.7447 -0.0970
  167DOPC  H11B20227   5.524   3.956  14.594  0.8804 -0.8166  0.8918
  167DOPC     P20228   5.458   4.210  14.728  0.3117 -0.0961  0.0811
  167DOPC   O1320229   5.466   4.227  14.583 -0.1951 -0.1430 -0.0419
  167DOPC   O1420230   5.514   4.317  14.812  1.0263 -0.0366 -0.7524
  167DOPC   O1220231   5.539   4.080  14.764  0.4345  0.4445  0.2945
  167DOPC   O1120232   5.311   4.177  14.768 -0.1784  0.2286  0.6250
  167DOPC    C120233   5.211   4.282  14.789  0.4957 -0.4115 -0.6889
  167DOPC    HA20234   5.263   4.380  14.794  0.3253 -0.3709  1.4617
  167DOPC    HB20235   5.168   4.264  14.890  0.0395  2.6819 -0.2320
  167DOPC    C220236   5.090   4.278  14.690 -0.1381  0.3477 -0.0372
  167DOPC    HS20237   5.028   4.186  14.691 -0.5009  0.5818 -0.4191
  167DOPC   O2120238   5.146   4.304  14.556  0.1031  0.1972  0.1967
  167DOPC   C2120239   5.175   4.186  14.487 -0.3595 -0.2011 -0.1312
  167DOPC   O2220240   5.147   4.076  14.517 -0.4922  0.0179 -0.1397
  167DOPC   C2220241   5.235   4.221  14.352  0.1637  0.0977 -0.9991
  167DOPC   H2R20242   5.325   4.155  14.351 -0.2840 -0.5284 -1.8972
  167DOPC   H2S20243   5.276   4.324  14.356  1.6067 -0.4039 -1.9583
  167DOPC    C320244   4.993   4.393  14.729  0.1514  0.7659 -0.3932
  167DOPC    HX20245   5.053   4.485  14.719 -0.8059  1.6490  1.6042
  167DOPC    HY20246   4.963   4.381  14.835  0.7271 -0.7153 -0.3731
  167DOPC   O3120247   4.881   4.392  14.632  0.3354 -0.0177 -0.0303
  167DOPC   C3120248   4.795   4.297  14.652  0.0469  0.0832 -0.3001
  167DOPC   O3220249   4.808   4.200  14.724  0.5248 -0.0002  0.0251
  167DOPC   C3220250   4.668   4.319  14.568  0.7613 -1.0477 -0.2650
  167DOPC   H2X20251   4.631   4.220  14.536 -1.2193  0.5476 -3.4629
  167DOPC   H2Y20252   4.592   4.366  14.634  0.2995 -0.6176 -1.0806
  167DOPC   C2320253   5.145   4.173  14.231  0.2291  0.4283 -0.2197
  167DOPC   H3R20254   5.053   4.235  14.226  0.0025 -0.0233 -3.1871
  167DOPC   H3S20255   5.120   4.066  14.247  0.9648  0.4696  1.4705
  167DOPC   C2420256   5.213   4.211  14.098 -0.2157  0.7904  0.2016
  167DOPC   H4R20257   5.312   4.166  14.120  0.3566  1.9833  0.1562
  167DOPC   H4S20258   5.231   4.319  14.080 -1.1178  0.5081 -3.1725
  167DOPC   C2520259   5.147   4.140  13.982  0.1985 -0.2003  0.2454
  167DOPC   H5R20260   5.044   4.180  13.974  0.1016 -0.5621 -0.4816
  167DOPC   H5S20261   5.142   4.032  14.008 -2.0337 -0.3943 -0.7847
  167DOPC   C2620262   5.218   4.161  13.847  0.1396  0.1150  0.8387
  167DOPC   H6R20263   5.316   4.108  13.851 -0.6234 -1.3398  1.0469
  167DOPC   H6S20264   5.213   4.268  13.816  1.1048 -0.8755 -3.3317
  167DOPC   C2720265   5.145   4.082  13.733  0.1782  0.2181  0.9472
  167DOPC   H7R20266   5.047   4.134  13.732 -0.3827 -0.8114  1.1742
  167DOPC   H7S20267   5.127   3.972  13.741  2.0236 -0.2065 -0.1215
  167DOPC   C2820268   5.193   4.106  13.591  0.1516  0.0408 -0.2197
  167DOPC   H8R20269   5.284   4.045  13.572  0.8285  1.0628 -0.3368
  167DOPC   H8S20270   5.240   4.206  13.576  0.1022  0.3213  1.3417
  167DOPC   C2920271   5.096   4.080  13.478  0.2108 -0.8597  0.0607
  167DOPC   H9R20272   5.088   3.972  13.457  0.4748 -0.7576 -0.6006
  167DOPC  C21020273   5.012   4.164  13.418  0.5564  1.0186 -0.0449
  167DOPC  H10R20274   4.956   4.129  13.330 -1.8769  1.8719  1.0764
  167DOPC  C21120275   4.983   4.308  13.448 -0.3442 -0.3618  0.3887
  167DOPC  H11R20276   5.003   4.349  13.549 -0.0257 -2.7415  1.3562
  167DOPC  H11S20277   4.872   4.315  13.451 -0.3858 -1.2478  1.6662
  167DOPC  C21220278   5.037   4.407  13.351  0.2855 -0.0837  0.1357
  167DOPC  H12R20279   5.006   4.513  13.369 -1.2406 -0.5405  0.3623
  167DOPC  H12S20280   5.145   4.405  13.376  0.4480 -2.3517 -0.6060
  167DOPC  C21320281   5.027   4.388  13.198  0.8788  0.2938  0.5982
  167DOPC  H13R20282   4.919   4.387  13.175  0.3179  0.2185  3.0070
  167DOPC  H13S20283   5.062   4.285  13.174  0.2268 -0.1987  1.6805
  167DOPC  C21420284   5.100   4.495  13.122 -0.1184  0.3254 -0.0871
  167DOPC  H14R20285   5.208   4.468  13.125 -0.1795 -0.1430 -1.4349
  167DOPC  H14S20286   5.082   4.590  13.178  0.8351 -1.0898  2.8134
  167DOPC  C21520287   5.072   4.512  12.972  0.3027 -0.2561 -0.8648
  167DOPC  H15R20288   5.121   4.437  12.906  1.7439 -0.1706  0.0806
  167DOPC  H15S20289   5.124   4.606  12.945  0.7911 -0.5650 -1.0113
  167DOPC  C21620290   4.927   4.518  12.933 -0.1094  0.4291  0.6741
  167DOPC  H16R20291   4.886   4.591  13.005  2.2207 -1.5641  4.3524
  167DOPC  H16S20292   4.881   4.421  12.965 -0.7538  0.2451 -0.7280
  167DOPC  C21720293   4.895   4.551  12.788 -0.9014  0.1608  0.2138
  167DOPC  H17R20294   4.938   4.480  12.714 -0.5619  0.8869 -0.3008
  167DOPC  H17S20295   4.951   4.644  12.763 -1.3479  0.1773 -0.7657
  167DOPC  C21820296   4.746   4.572  12.762 -0.2878 -0.4234 -0.8382
  167DOPC  H18R20297   4.692   4.480  12.793 -1.2654  0.3372 -0.2557
  167DOPC  H18S20298   4.737   4.583  12.651  0.9500 -1.5292 -1.0781
  167DOPC  H18T20299   4.700   4.660  12.811 -0.0244 -0.7746  0.0616
  167DOPC   C3320300   4.688   4.409  14.435 -0.1530  0.3841 -0.5828
  167DOPC   H3X20301   4.735   4.505  14.464 -1.4834  0.6845  0.6760
  167DOPC   H3Y20302   4.592   4.448  14.396 -1.2482 -0.3117  1.2628
  167DOPC   C3420303   4.746   4.331  14.319  0.1613 -0.4346 -0.3502
  167DOPC   H4X20304   4.698   4.234  14.294  2.0338 -1.3430 -0.5036
  167DOPC   H4Y20305   4.853   4.314  14.339 -0.0393  1.0139  2.3261
  167DOPC   C3520306   4.727   4.411  14.186  0.2314 -0.0428 -0.1851
  167DOPC   H5X20307   4.760   4.512  14.218  1.3222 -0.8986  1.5445
  167DOPC   H5Y20308   4.622   4.412  14.151 -0.0694 -1.9181  0.5343
  167DOPC   C3620309   4.816   4.371  14.069  0.2818 -0.7903  0.2878
  167DOPC   H6X20310   4.922   4.350  14.094  0.3996 -0.3855  0.1391
  167DOPC   H6Y20311   4.772   4.288  14.010 -0.7087  1.0906 -1.7701
  167DOPC   C3720312   4.827   4.490  13.969  0.1844 -0.9077 -0.5362
  167DOPC   H7X20313   4.722   4.502  13.937 -0.0248  0.3798  0.5526
  167DOPC   H7Y20314   4.851   4.576  14.036 -0.6414 -1.7651  0.9211
  167DOPC   C3820315   4.930   4.487  13.857  0.0252 -0.3000  0.9436
  167DOPC   H8X20316   4.922   4.385  13.815  1.9583  0.1252 -0.6148
  167DOPC   H8Y20317   5.029   4.496  13.906  0.5908  2.6135 -0.4668
  167DOPC   C3920318   4.921   4.581  13.738 -0.4547  0.5991 -0.1335
  167DOPC   H9X20319   4.821   4.621  13.715  0.0770  0.5829 -2.6871
  167DOPC  C31020320   5.030   4.641  13.677  0.4189  0.5714  0.5033
  167DOPC  H10X20321   5.014   4.724  13.606  1.1186  1.9934  1.9557
  167DOPC  C31120322   5.168   4.601  13.709  0.4776  0.4835  0.1266
  167DOPC  H11X20323   5.226   4.570  13.619 -0.3471  0.1704 -0.3056
  167DOPC  H11Y20324   5.171   4.507  13.768 -0.5162 -0.0878 -0.7108
  167DOPC  C31220325   5.241   4.717  13.782 -0.0073  0.4469 -0.0695
  167DOPC  H12X20326   5.183   4.752  13.870 -0.5916  1.0781 -0.6996
  167DOPC  H12Y20327   5.263   4.805  13.717 -0.8795 -1.2149 -2.7534
  167DOPC  C31320328   5.379   4.658  13.834  0.0987  0.3040 -0.5897
  167DOPC  H13X20329   5.410   4.604  13.742  0.3183  1.1530 -1.0247
  167DOPC  H13Y20330   5.453   4.738  13.853 -1.2037  1.4872 -0.2929
  167DOPC  C31420331   5.368   4.570  13.960  0.1311 -0.2931  0.4730
  167DOPC  H14X20332   5.274   4.595  14.015 -1.0926 -1.8182 -0.8259
  167DOPC  H14Y20333   5.353   4.465  13.929  2.5118 -0.5486 -0.0116
  167DOPC  C31520334   5.491   4.577  14.049 -0.1160 -1.6093  0.0868
  167DOPC  H15X20335   5.579   4.572  13.981  0.1654  2.8937 -0.1760
  167DOPC  H15Y20336   5.493   4.511  14.138 -0.1087 -2.2700 -0.3985
  167DOPC  C31620337   5.517   4.722  14.115 -0.3141 -0.1167  0.7251
  167DOPC  H16X20338   5.563   4.778  14.030  4.4428 -1.7594  1.9318
  167DOPC  H16Y20339   5.420   4.772  14.138 -1.1700 -1.4806  0.1794
  167DOPC  C31720340   5.615   4.718  14.240 -0.3153  0.8087 -0.8642
  167DOPC  H17X20341   5.582   4.638  14.309  1.1552  0.2721 -0.7537
  167DOPC  H17Y20342   5.715   4.694  14.196 -1.1873 -0.3073 -2.3274
  167DOPC  C31820343   5.633   4.844  14.312 -0.0010 -0.4517  0.5062
  167DOPC  H18X20344   5.530   4.882  14.329 -0.2946 -1.8801  2.2022
  167DOPC  H18Y20345   5.674   4.830  14.414 -1.3275  0.4070  1.1897
  167DOPC  H18Z20346   5.694   4.913  14.250 -0.4819  1.9394  2.5290
  168DOPC     N20347   0.530   3.009  14.713  0.0513 -0.0910 -0.0872
  168DOPC   C1220348   0.378   3.017  14.703  0.4875  0.0741  0.2223
  168DOPC  H12A20349   0.352   3.119  14.681 -0.6391 -0.2468 -0.0069
  168DOPC  H12B20350   0.334   2.997  14.800 -0.8434  0.3006 -0.3056
  168DOPC   C1320351   0.585   3.083  14.824 -0.2089  0.1794 -0.0967
  168DOPC  H13A20352   0.552   3.053  14.923  2.0718  1.0184  1.0174
  168DOPC  H13B20353   0.691   3.063  14.834 -0.7997 -2.6796  1.6831
  168DOPC  H13C20354   0.573   3.190  14.821  0.2510  0.2200 -0.7571
  168DOPC   C1420355   0.592   3.046  14.580  0.4337 -0.0638  0.3326
  168DOPC  H14A20356   0.698   3.029  14.571  0.4206  0.5988 -1.4456
  168DOPC  H14B20357   0.533   2.990  14.509 -2.1105  0.8999  1.5577
  168DOPC  H14C20358   0.576   3.151  14.559 -0.7569 -0.3764 -0.4426
  168DOPC   C1520359   0.570   2.864  14.735 -0.1913 -0.3261 -0.1746
  168DOPC  H15A20360   0.516   2.798  14.669  0.9804 -0.8221 -0.6588
  168DOPC  H15B20361   0.532   2.832  14.831 -0.6602  1.0560  0.1221
  168DOPC  H15C20362   0.674   2.846  14.715 -0.1647 -1.7087  1.0241
  168DOPC   C1120363   0.303   2.936  14.595  0.8135  0.1368 -0.0362
  168DOPC  H11A20364   0.198   2.968  14.582  0.7845  0.5204  0.9768
  168DOPC  H11B20365   0.347   2.963  14.497 -0.2756  0.8378 -0.3533
  168DOPC     P20366   0.211   2.726  14.725 -0.3418  0.4868  0.2345
  168DOPC   O1320367   0.201   2.820  14.834 -0.0490  0.3173  0.4686
  168DOPC   O1420368   0.256   2.594  14.760 -0.1712  0.0377 -0.3621
  168DOPC   O1220369   0.314   2.795  14.616  0.2027 -0.3843 -0.3575
  168DOPC   O1120370   0.075   2.711  14.645 -0.0773 -0.4909 -0.6776
  168DOPC    C120371   0.079   2.624  14.528 -0.8215 -0.0052  1.2386
  168DOPC    HA20372  -0.021   2.584  14.503  0.4678 -2.3130 -0.7134
  168DOPC    HB20373   0.148   2.537  14.531  0.3259  0.5932 -2.2774
  168DOPC    C220374   0.131   2.683  14.395  0.3379  0.1548  0.3306
  168DOPC    HS20375   0.236   2.720  14.400  1.0428 -1.5597 -0.7613
  168DOPC   O2120376   0.032   2.788  14.358  0.1101 -0.2492  0.4854
  168DOPC   C2120377   0.082   2.898  14.297  0.1534  0.1693 -0.0814
  168DOPC   O2220378   0.198   2.917  14.283  0.0222 -0.2861  0.5404
  168DOPC   C2220379  -0.042   2.980  14.250  0.1201  0.6329  0.3233
  168DOPC   H2R20380  -0.005   3.056  14.178  2.8058 -2.2923 -1.6303
  168DOPC   H2S20381  -0.084   3.024  14.343 -4.6538  0.9107 -1.6691
  168DOPC    C320382   0.135   2.581  14.276  0.4580 -0.4883 -0.0072
  168DOPC    HX20383   0.032   2.545  14.258  1.7734 -3.4891 -2.5543
  168DOPC    HY20384   0.201   2.495  14.300  2.6702  1.2529  0.5223
  168DOPC   O3120385   0.182   2.641  14.154 -0.3400 -0.6792 -0.2029
  168DOPC   C3120386   0.314   2.637  14.132  0.3890 -0.8816 -0.1393
  168DOPC   O3220387   0.401   2.608  14.215  0.7227  0.3351 -0.1864
  168DOPC   C3220388   0.344   2.665  13.988  0.2884  0.0783  0.0689
  168DOPC   H2X20389   0.356   2.567  13.937 -0.7650  0.8922 -1.8429
  168DOPC   H2Y20390   0.253   2.703  13.938  1.4522  0.6009 -1.7784
  168DOPC   C2320391  -0.158   2.894  14.191  0.5587 -0.7502  0.2805
  168DOPC   H3R20392  -0.250   2.956  14.177  0.7226 -0.3442  0.9704
  168DOPC   H3S20393  -0.185   2.817  14.266 -3.2143  0.9828  0.9617
  168DOPC   C2420394  -0.122   2.820  14.060 -0.2541 -0.2050  0.6365
  168DOPC   H4R20395  -0.210   2.763  14.025 -0.4421  1.0135 -0.9863
  168DOPC   H4S20396  -0.040   2.753  14.096  0.2934  1.2414  2.2672
  168DOPC   C2520397  -0.080   2.909  13.950 -0.6230 -0.4040 -0.1765
  168DOPC   H5R20398   0.001   2.981  13.974 -0.8883  0.9615 -2.9206
  168DOPC   H5S20399  -0.166   2.977  13.931  1.6502  2.1765 -1.9516
  168DOPC   C2620400  -0.055   2.843  13.810  0.0038 -0.2210 -0.5669
  168DOPC   H6R20401   0.025   2.766  13.815  0.3233  0.0139 -1.7272
  168DOPC   H6S20402  -0.009   2.916  13.740  0.7194 -0.4165 -0.3069
  168DOPC   C2720403  -0.185   2.776  13.755 -0.6888 -0.1543 -0.1756
  168DOPC   H7R20404  -0.269   2.843  13.783 -1.8741 -0.9697 -1.6265
  168DOPC   H7S20405  -0.206   2.688  13.818  0.9517 -0.3413  0.1520
  168DOPC   C2820406  -0.189   2.727  13.611  0.1428 -0.2754  0.0228
  168DOPC   H8R20407  -0.277   2.660  13.603  0.5284 -0.9640  1.3246
  168DOPC   H8S20408  -0.104   2.658  13.599 -0.2820 -0.6702 -0.8050
  168DOPC   C2920409  -0.193   2.830  13.504 -0.5173 -0.8137  0.0131
  168DOPC   H9R20410  -0.255   2.916  13.533  0.9875  0.8975 -1.6110
  168DOPC  C21020411  -0.118   2.849  13.395  0.1091  0.1365 -0.1025
  168DOPC  H10R20412  -0.139   2.941  13.338  0.7160  1.1006  1.1760
  168DOPC  C21120413  -0.022   2.748  13.334 -1.0192 -0.1579  0.1287
  168DOPC  H11R20414   0.005   2.677  13.415 -2.4406  1.5311  2.1974
  168DOPC  H11S20415   0.072   2.802  13.310 -1.1888  0.1605  0.1849
  168DOPC  C21220416  -0.072   2.679  13.206  0.2062 -0.0046 -0.0613
  168DOPC  H12R20417  -0.170   2.629  13.221  0.1638 -0.8179 -2.5246
  168DOPC  H12S20418  -0.007   2.590  13.196  0.6624  0.1351  1.4060
  168DOPC  C21320419  -0.078   2.787  13.093 -0.0413 -0.0159  0.4848
  168DOPC  H13R20420  -0.005   2.871  13.100 -0.3197  0.3315 -0.5898
  168DOPC  H13S20421  -0.182   2.826  13.104 -0.3124 -0.6732  0.2771
  168DOPC  C21420422  -0.062   2.720  12.954 -0.7797 -0.0246  0.4292
  168DOPC  H14R20423  -0.077   2.610  12.964 -1.6161 -0.1191 -1.4696
  168DOPC  H14S20424   0.039   2.729  12.910 -2.6497  0.7901 -4.2292
  168DOPC  C21520425  -0.170   2.769  12.856 -0.3730  0.3002 -0.2645
  168DOPC  H15R20426  -0.165   2.880  12.856  0.3572  0.2774 -0.6742
  168DOPC  H15S20427  -0.267   2.743  12.904  0.0911  0.5037  0.8330
  168DOPC  C21620428  -0.156   2.698  12.723  0.1572 -0.3082  0.0606
  168DOPC  H16R20429  -0.123   2.592  12.731  0.3975 -0.2457 -0.0904
  168DOPC  H16S20430  -0.082   2.752  12.660  0.4755 -0.3858  0.3657
  168DOPC  C21720431  -0.296   2.699  12.661 -0.3928 -0.0024 -0.3138
  168DOPC  H17R20432  -0.328   2.805  12.652 -0.4550  0.0239  0.1709
  168DOPC  H17S20433  -0.377   2.662  12.727 -0.5404 -0.5045 -0.7730
  168DOPC  C21820434  -0.302   2.626  12.527  0.5040  0.3798 -0.9879
  168DOPC  H18R20435  -0.406   2.629  12.488  0.5251 -0.2402 -1.0994
  168DOPC  H18S20436  -0.270   2.521  12.544  1.8617  0.9821  0.4566
  168DOPC  H18T20437  -0.220   2.663  12.461  1.3279 -0.9010 -0.7244
  168DOPC   C3320438   0.469   2.752  13.968  0.6532  0.0539 -0.1338
  168DOPC   H3X20439   0.560   2.713  14.018  0.9919  1.5508  0.4495
  168DOPC   H3Y20440   0.443   2.848  14.017 -0.0082  0.4062 -1.1254
  168DOPC   C3420441   0.508   2.767  13.818 -0.6687  0.2234 -0.6374
  168DOPC   H4X20442   0.569   2.675  13.805 -0.7288 -0.0115  0.6482
  168DOPC   H4Y20443   0.579   2.851  13.804  0.4113 -0.3539  1.1212
  168DOPC   C3520444   0.402   2.785  13.715 -0.0040 -0.2192  0.4221
  168DOPC   H5X20445   0.333   2.869  13.739 -1.2537 -2.0297  3.9726
  168DOPC   H5Y20446   0.334   2.696  13.710 -0.0961 -0.1810  0.9235
  168DOPC   C3620447   0.446   2.820  13.570  0.3591 -0.6534  0.4985
  168DOPC   H6X20448   0.518   2.905  13.568  1.2974 -1.4181  0.6592
  168DOPC   H6Y20449   0.499   2.733  13.526 -0.2817  0.1239 -1.9853
  168DOPC   C3720450   0.325   2.849  13.486 -1.1062 -0.3009 -0.2047
  168DOPC   H7X20451   0.270   2.752  13.486 -1.0791 -0.3171 -0.9585
  168DOPC   H7Y20452   0.258   2.921  13.538  1.3964  1.1824  1.1573
  168DOPC   C3820453   0.364   2.896  13.340 -0.6819  0.0907  0.7302
  168DOPC   H8X20454   0.416   2.994  13.347 -0.3728 -0.0601  0.5832
  168DOPC   H8Y20455   0.267   2.916  13.288  0.2156  0.7960 -0.7599
  168DOPC   C3920456   0.452   2.804  13.262  0.2797 -0.2956  0.3940
  168DOPC   H9X20457   0.533   2.759  13.320  1.4692  0.7970 -0.3556
  168DOPC  C31020458   0.437   2.770  13.137  0.2557 -0.5254  0.5293
  168DOPC  H10X20459   0.516   2.705  13.094  0.5895 -0.3167  0.8226
  168DOPC  C31120460   0.319   2.808  13.045 -0.5519  0.0158 -0.5037
  168DOPC  H11X20461   0.294   2.914  13.069  2.5784  0.8318 -0.3927
  168DOPC  H11Y20462   0.233   2.738  13.049 -0.8567  0.4162  2.5791
  168DOPC  C31220463   0.380   2.802  12.908  0.3142  0.5074 -0.0665
  168DOPC  H12X20464   0.414   2.706  12.864 -0.9885 -0.1668  0.3430
  168DOPC  H12Y20465   0.468   2.869  12.911  1.1481 -0.5826  2.6142
  168DOPC  C31320466   0.277   2.858  12.804 -1.2561 -0.5480  0.2937
  168DOPC  H13X20467   0.188   2.791  12.804  0.4647 -3.0267 -1.4311
  168DOPC  H13Y20468   0.264   2.959  12.850  0.5844 -0.5509  0.9086
  168DOPC  C31420469   0.333   2.871  12.657 -0.1459 -0.4214 -0.3175
  168DOPC  H14X20470   0.282   2.960  12.615  0.1463  0.0184  0.2371
  168DOPC  H14Y20471   0.441   2.894  12.672 -0.7264  0.2967  4.6944
  168DOPC  C31520472   0.305   2.733  12.588  0.6613  0.0650 -0.3200
  168DOPC  H15X20473   0.198   2.706  12.594  0.8148 -1.2022 -2.2961
  168DOPC  H15Y20474   0.362   2.647  12.629 -1.7608 -1.2768  0.4068
  168DOPC  C31620475   0.334   2.742  12.440  0.4602  0.1460  0.5554
  168DOPC  H16X20476   0.268   2.817  12.392  1.6104 -0.0936 -1.5307
  168DOPC  H16Y20477   0.443   2.766  12.435  0.1737  1.4417  0.1581
  168DOPC  C31720478   0.308   2.607  12.368 -0.8208  0.2673  0.7224
  168DOPC  H17X20479   0.346   2.532  12.441 -0.0099  0.5636  0.6208
  168DOPC  H17Y20480   0.199   2.596  12.351 -0.9033  1.1199  0.6264
  168DOPC  C31820481   0.388   2.599  12.237  0.2453  0.3744 -0.7641
  168DOPC  H18X20482   0.495   2.605  12.263  0.1812  1.4570 -0.7391
  168DOPC  H18Y20483   0.368   2.499  12.190 -0.5313  0.0206  0.2740
  168DOPC  H18Z20484   0.360   2.683  12.170  2.3255  3.0227  1.4606
  169DOPC     N20485   6.122   4.231  14.926 -0.2498 -0.6816  0.1490
  169DOPC   C1220486   6.184   4.100  14.963  0.6263 -0.6094  0.0226
  169DOPC  H12A20487   6.119   4.047  15.031  2.7573  0.0696  2.7446
  169DOPC  H12B20488   6.280   4.114  15.012  1.9694 -0.6895 -2.4250
  169DOPC   C1320489   5.982   4.217  14.896 -0.4932 -0.5432  0.0697
  169DOPC  H13A20490   5.964   4.136  14.826  0.2117  0.2070 -1.0228
  169DOPC  H13B20491   5.935   4.196  14.991  0.4244 -1.6251  0.3132
  169DOPC  H13C20492   5.944   4.310  14.857  1.1479  0.7671  1.4928
  169DOPC   C1420493   6.192   4.295  14.801  0.0078  0.0959  0.2196
  169DOPC  H14A20494   6.211   4.231  14.716  0.0854  0.3797  0.0232
  169DOPC  H14B20495   6.125   4.370  14.761 -1.4743 -1.2235  0.1399
  169DOPC  H14C20496   6.277   4.354  14.833 -1.1726  1.9658  0.0312
  169DOPC   C1520497   6.141   4.330  15.037 -0.1318 -0.3791  0.2839
  169DOPC  H15A20498   6.246   4.339  15.059 -0.0019 -1.3153  0.0936
  169DOPC  H15B20499   6.094   4.311  15.132  0.8717  2.2111  1.3825
  169DOPC  H15C20500   6.122   4.433  15.010  0.5173 -0.2806  0.1828
  169DOPC   C1120501   6.224   4.005  14.849  0.4384  0.6665  0.3088
  169DOPC  H11A20502   6.128   3.981  14.799  0.4494  0.7740  0.2341
  169DOPC  H11B20503   6.292   4.062  14.782 -0.8679  1.5189 -0.3155
  169DOPC     P20504   6.247   3.747  14.881 -0.0763  0.1391 -0.1539
  169DOPC   O1320505   6.118   3.744  14.957  0.4485 -0.1589  0.3724
  169DOPC   O1420506   6.351   3.650  14.916 -0.5985 -0.3703  0.0719
  169DOPC   O1220507   6.298   3.894  14.895  0.2381  0.2582 -0.0122
  169DOPC   O1120508   6.212   3.731  14.734 -0.5228 -0.3536 -0.1014
  169DOPC    C120509   6.318   3.770  14.638  0.2585 -0.0147 -0.4306
  169DOPC    HA20510   6.423   3.768  14.674  0.8194 -2.0692 -1.9905
  169DOPC    HB20511   6.314   3.881  14.625  2.0758  0.5061  2.5761
  169DOPC    C220512   6.298   3.709  14.507 -0.1640 -0.2016  0.3619
  169DOPC    HS20513   6.367   3.750  14.431 -1.5753  1.8333  0.1035
  169DOPC   O2120514   6.160   3.735  14.473 -0.5013  0.2868  0.1495
  169DOPC   C2120515   6.137   3.821  14.372 -0.8671  0.1950  0.8850
  169DOPC   O2220516   6.228   3.882  14.312  0.1880 -0.1717 -0.5298
  169DOPC   C2220517   5.981   3.839  14.353 -0.3946  0.0620 -0.0280
  169DOPC   H2R20518   5.953   3.896  14.445  0.2046 -0.6427  0.6058
  169DOPC   H2S20519   5.918   3.750  14.331  1.0372 -0.9238 -0.2520
  169DOPC    C320520   6.306   3.554  14.530  0.1608 -0.0595 -0.3758
  169DOPC    HX20521   6.238   3.520  14.610 -3.0046  0.1025 -2.7854
  169DOPC    HY20522   6.404   3.529  14.575 -0.5710 -0.5945  0.9828
  169DOPC   O3120523   6.285   3.477  14.411  0.2730  0.0647 -0.5006
  169DOPC   C3120524   6.293   3.351  14.428  0.0986  0.1596 -0.4747
  169DOPC   O3220525   6.319   3.285  14.526  0.0903 -0.4081 -0.2462
  169DOPC   C3220526   6.277   3.282  14.298  0.7328  0.1766 -0.1973
  169DOPC   H2X20527   6.205   3.198  14.308 -1.0511  1.4833 -1.4583
  169DOPC   H2Y20528   6.240   3.355  14.223 -0.6034  0.5994  0.8360
  169DOPC   C2320529   5.969   3.933  14.225 -0.3220  0.9154 -0.1134
  169DOPC   H3R20530   6.048   4.011  14.221  2.3283 -1.5889  0.0933
  169DOPC   H3S20531   5.866   3.976  14.225 -1.2453 -1.1552 -1.0202
  169DOPC   C2420532   5.982   3.844  14.097  0.5391 -0.1509 -0.4490
  169DOPC   H4R20533   5.885   3.790  14.093 -0.6108  1.8164 -0.4955
  169DOPC   H4S20534   6.061   3.767  14.113  0.5600 -0.9788 -3.8151
  169DOPC   C2520535   6.017   3.925  13.974 -0.3091  0.1520  0.2768
  169DOPC   H5R20536   6.123   3.958  13.970 -0.1120 -0.5601 -0.6897
  169DOPC   H5S20537   5.965   4.023  13.963  2.1850  1.3076 -2.7301
  169DOPC   C2620538   5.989   3.865  13.839  0.1998  0.3787  0.3272
  169DOPC   H6R20539   5.885   3.826  13.845  0.0231  1.1053  2.8318
  169DOPC   H6S20540   6.043   3.768  13.827 -0.7489 -0.2438  0.9209
  169DOPC   C2720541   6.023   3.954  13.715 -0.0328 -0.1807 -0.1883
  169DOPC   H7R20542   6.129   3.987  13.722  0.1064 -0.3081 -1.5003
  169DOPC   H7S20543   5.965   4.048  13.729  1.4360  0.6783  0.4236
  169DOPC   C2820544   5.997   3.873  13.586 -0.6018 -0.1260 -0.1948
  169DOPC   H8R20545   5.895   3.829  13.581 -0.4141 -0.6352  0.2804
  169DOPC   H8S20546   6.066   3.787  13.598 -0.0617  0.3505  0.1699
  169DOPC   C2920547   6.039   3.959  13.471 -0.2504 -0.1931  0.3212
  169DOPC   H9R20548   6.102   4.044  13.500  1.1871  0.4042 -3.8337
  169DOPC  C21020549   6.027   3.935  13.344 -0.1038 -0.1485 -0.0646
  169DOPC  H10R20550   6.071   3.998  13.265  0.3122  0.2444  0.4722
  169DOPC  C21120551   5.952   3.818  13.286  0.1440  0.1450 -0.3875
  169DOPC  H11R20552   5.887   3.767  13.360  2.5835 -0.9202  1.1458
  169DOPC  H11S20553   6.024   3.739  13.256 -0.2472 -0.7493  0.9397
  169DOPC  C21220554   5.870   3.869  13.163  0.1466  0.0153  0.5694
  169DOPC  H12R20555   5.932   3.943  13.107 -0.1277  0.6893  1.1415
  169DOPC  H12S20556   5.780   3.920  13.201 -1.6616 -0.6155 -2.5371
  169DOPC  C21320557   5.831   3.773  13.064  0.6246 -0.0791  0.5968
  169DOPC  H13R20558   5.763   3.693  13.099  0.2721  0.1145  0.3689
  169DOPC  H13S20559   5.914   3.720  13.013  0.2381  1.0726 -1.3243
  169DOPC  C21420560   5.752   3.851  12.960  0.1368  0.2326 -0.2651
  169DOPC  H14R20561   5.812   3.938  12.926  0.7701 -0.3424 -0.6573
  169DOPC  H14S20562   5.649   3.868  12.997  0.1505  1.1211 -0.6110
  169DOPC  C21520563   5.728   3.759  12.843 -0.4494  0.4187  0.0402
  169DOPC  H15R20564   5.658   3.683  12.885 -0.2939 -1.4646 -2.8178
  169DOPC  H15S20565   5.820   3.705  12.814  0.3301  0.1025  2.8659
  169DOPC  C21620566   5.652   3.829  12.734 -0.3596  0.1372  0.3464
  169DOPC  H16R20567   5.722   3.904  12.692  1.3343 -0.7747  1.3869
  169DOPC  H16S20568   5.565   3.883  12.777 -0.4508  0.7788 -0.6209
  169DOPC  C21720569   5.604   3.719  12.642 -0.2843 -0.8725  0.1329
  169DOPC  H17R20570   5.547   3.783  12.571  1.7117  3.0150  1.7166
  169DOPC  H17S20571   5.537   3.653  12.700 -0.6128 -2.2499 -1.7183
  169DOPC  C21820572   5.714   3.645  12.561 -0.4975 -0.1967  0.4643
  169DOPC  H18R20573   5.783   3.717  12.514  1.1382 -2.7332 -1.2790
  169DOPC  H18S20574   5.662   3.585  12.483 -0.3957 -0.0549  0.2861
  169DOPC  H18T20575   5.778   3.577  12.621  1.8927  1.8138  0.3167
  169DOPC   C3320576   6.412   3.219  14.244  0.1975  0.0252  0.4338
  169DOPC   H3X20577   6.413   3.109  14.260  0.8246 -0.1387 -0.6377
  169DOPC   H3Y20578   6.493   3.267  14.302 -0.2183  1.9659 -0.5109
  169DOPC   C3420579   6.439   3.258  14.096  0.5807  0.0160  0.7915
  169DOPC   H4X20580   6.546   3.235  14.077  0.4020 -0.8319  0.7702
  169DOPC   H4Y20581   6.418   3.367  14.095 -0.7069 -0.2147  0.2728
  169DOPC   C3520582   6.351   3.178  13.999 -0.0864 -0.2184  0.1317
  169DOPC   H5X20583   6.246   3.178  14.035 -1.0585 -2.5916 -2.3876
  169DOPC   H5Y20584   6.382   3.072  14.002 -0.0436 -0.2289 -0.5124
  169DOPC   C3620585   6.356   3.238  13.858  0.1980  0.0803 -0.2293
  169DOPC   H6X20586   6.255   3.233  13.811 -0.1066 -0.2688  0.4526
  169DOPC   H6Y20587   6.364   3.348  13.870 -1.6556  0.0857  1.5585
  169DOPC   C3720588   6.455   3.175  13.756  0.0704  0.5586  0.4294
  169DOPC   H7X20589   6.552   3.163  13.808  1.7873  2.1181 -2.1688
  169DOPC   H7Y20590   6.417   3.075  13.726  1.5592 -0.9094  3.0918
  169DOPC   C3820591   6.474   3.270  13.636 -0.4781 -0.3158  0.0020
  169DOPC   H8X20592   6.563   3.241  13.575 -1.6677  1.1311 -2.6086
  169DOPC   H8Y20593   6.491   3.375  13.667 -2.8998  0.5560 -1.3364
  169DOPC   C3920594   6.351   3.272  13.541 -0.3626  0.5651  0.0305
  169DOPC   H9X20595   6.251   3.248  13.582 -0.4206 -1.9264 -1.3623
  169DOPC  C31020596   6.343   3.253  13.406  0.8270 -0.3942 -0.9356
  169DOPC  H10X20597   6.248   3.268  13.352  0.3827  2.1181  0.3840
  169DOPC  C31120598   6.458   3.255  13.316 -0.6461 -0.3331 -0.5963
  169DOPC  H11X20599   6.551   3.241  13.375 -0.4401 -0.1724 -0.8759
  169DOPC  H11Y20600   6.473   3.353  13.267 -0.9369  0.3810  0.7087
  169DOPC  C31220601   6.461   3.140  13.217  0.0211  0.7751 -0.2535
  169DOPC  H12X20602   6.442   3.045  13.271 -1.0492  1.3794  0.4485
  169DOPC  H12Y20603   6.569   3.144  13.190  0.9193 -2.1909  2.3713
  169DOPC  C31320604   6.373   3.160  13.096 -0.0425 -0.8099  0.2491
  169DOPC  H13X20605   6.356   3.056  13.059 -0.2979 -0.3129 -1.0561
  169DOPC  H13Y20606   6.274   3.201  13.127  0.8190  2.6628 -1.2103
  169DOPC  C31420607   6.440   3.257  12.997  0.0276  0.2975 -0.1296
  169DOPC  H14X20608   6.448   3.348  13.061  0.9804 -0.6515  1.1662
  169DOPC  H14Y20609   6.544   3.231  12.967  0.3349  1.1665  0.1484
  169DOPC  C31520610   6.363   3.259  12.866 -0.2106 -0.2844 -0.0807
  169DOPC  H15X20611   6.385   3.350  12.806  0.9532 -1.8794 -2.1966
  169DOPC  H15Y20612   6.254   3.265  12.886 -0.2863  0.7381 -0.7350
  169DOPC  C31620613   6.394   3.145  12.763  0.2269  0.4699  0.0424
  169DOPC  H16X20614   6.502   3.141  12.739 -0.1435 -1.8518 -1.5463
  169DOPC  H16Y20615   6.360   3.050  12.808  1.2226 -1.5094 -3.1093
  169DOPC  C31720616   6.313   3.174  12.634  0.1900  0.2782 -0.6390
  169DOPC  H17X20617   6.205   3.186  12.659  1.0368  0.2741  3.8522
  169DOPC  H17Y20618   6.342   3.274  12.598 -0.4365  0.2057 -1.3835
  169DOPC  C31820619   6.346   3.084  12.517  0.3950  0.3495 -0.0798
  169DOPC  H18X20620   6.279   3.107  12.431  0.2594 -0.6963 -0.2574
  169DOPC  H18Y20621   6.445   3.107  12.472  1.6067 -0.9882  1.7797
  169DOPC  H18Z20622   6.327   2.978  12.543 -2.2631  1.0106  1.0488
  170DOPC     N20623   4.855   2.429  15.373 -0.1017 -0.6995 -0.0194
  170DOPC   C1220624   4.876   2.471  15.224 -0.1195 -0.0381 -0.0302
  170DOPC  H12A20625   4.960   2.414  15.187 -0.3899  0.7852 -2.0336
  170DOPC  H12B20626   4.913   2.570  15.205 -0.5460 -0.2739 -2.4644
  170DOPC   C1320627   4.984   2.458  15.441 -0.1461 -0.0653 -0.3284
  170DOPC  H13A20628   5.008   2.563  15.445  0.7569 -0.2303 -1.0431
  170DOPC  H13B20629   4.981   2.419  15.542 -1.8674 -1.7878 -0.9944
  170DOPC  H13C20630   5.065   2.400  15.398 -0.3652 -1.0128  0.4834
  170DOPC   C1420631   4.840   2.280  15.385 -0.3649  0.7064  0.1218
  170DOPC  H14A20632   4.809   2.260  15.487  0.2182  1.5520  0.4667
  170DOPC  H14B20633   4.768   2.245  15.312 -2.0541  0.3231  1.8856
  170DOPC  H14C20634   4.930   2.223  15.369 -0.0009  0.9228  1.3336
  170DOPC   C1520635   4.741   2.498  15.437  0.4685  0.0457 -0.9629
  170DOPC  H15A20636   4.745   2.480  15.543 -1.4764  1.2939 -0.6326
  170DOPC  H15B20637   4.647   2.465  15.397 -0.0566  0.6841 -0.2713
  170DOPC  H15C20638   4.737   2.606  15.434 -2.3782  0.0059 -1.2065
  170DOPC   C1120639   4.760   2.453  15.126  0.5406  0.1188  0.6428
  170DOPC  H11A20640   4.663   2.470  15.178 -0.2668 -1.0544 -0.4212
  170DOPC  H11B20641   4.770   2.528  15.046 -2.4709 -0.6114 -0.5525
  170DOPC     P20642   4.877   2.270  14.973  0.0999 -0.1104 -0.0640
  170DOPC   O1320643   4.830   2.155  14.898  0.4411  0.1469  0.0648
  170DOPC   O1420644   5.009   2.263  15.045  0.3811  0.0458  0.1483
  170DOPC   O1220645   4.761   2.316  15.071 -0.2813  0.4892 -0.0399
  170DOPC   O1120646   4.890   2.386  14.875 -0.4710  0.0955  0.0369
  170DOPC    C120647   4.817   2.389  14.755  0.2047 -0.8943 -0.0583
  170DOPC    HA20648   4.709   2.368  14.767  0.1006 -1.7436 -2.0291
  170DOPC    HB20649   4.844   2.310  14.681  2.0461 -0.9282  0.5949
  170DOPC    C220650   4.839   2.527  14.689  0.1741  0.3280 -0.2627
  170DOPC    HS20651   4.816   2.604  14.766  0.4992 -0.4110  0.5905
  170DOPC   O2120652   4.753   2.547  14.570 -0.4185  0.3513 -0.6371
  170DOPC   C2120653   4.747   2.669  14.527  0.1250 -0.1077  0.0367
  170DOPC   O2220654   4.786   2.767  14.585  0.4818 -0.2433 -0.0822
  170DOPC   C2220655   4.699   2.662  14.389  0.3726  0.8912  0.1889
  170DOPC   H2R20656   4.715   2.766  14.352 -0.9492  0.4254 -1.8566
  170DOPC   H2S20657   4.593   2.628  14.386  0.9824 -1.6593  3.1046
  170DOPC    C320658   4.994   2.535  14.649  0.2052 -0.6598  0.1320
  170DOPC    HX20659   5.049   2.530  14.745  0.2310 -1.0309  0.1023
  170DOPC    HY20660   4.999   2.637  14.606 -0.4544  0.3489  2.3304
  170DOPC   O3120661   5.035   2.437  14.557  0.1737 -0.1804  0.3347
  170DOPC   C3120662   5.159   2.395  14.558 -0.3328 -0.3064  0.7216
  170DOPC   O3220663   5.250   2.437  14.624 -0.2518 -0.4534 -0.1451
  170DOPC   C3220664   5.167   2.291  14.450  0.2482 -0.1194 -0.0633
  170DOPC   H2X20665   5.261   2.233  14.462 -0.0189 -1.0243 -1.9201
  170DOPC   H2Y20666   5.079   2.227  14.474  0.5572  0.1840  2.0501
  170DOPC   C2320667   4.787   2.564  14.308 -0.2106  0.9254 -0.2834
  170DOPC   H3R20668   4.801   2.468  14.362  1.0130  1.2361 -0.0271
  170DOPC   H3S20669   4.887   2.609  14.290  0.4135 -0.3319 -0.0301
  170DOPC   C2420670   4.728   2.530  14.172 -0.2224  0.5821  0.3314
  170DOPC   H4R20671   4.622   2.500  14.185 -0.4614  0.4187 -1.6909
  170DOPC   H4S20672   4.780   2.439  14.134 -1.3387 -0.6494  1.6267
  170DOPC   C2520673   4.736   2.634  14.065 -0.3431 -0.8157  0.3495
  170DOPC   H5R20674   4.829   2.692  14.080 -1.3543  1.1083 -0.5249
  170DOPC   H5S20675   4.658   2.712  14.070  1.4653  1.2710 -1.9688
  170DOPC   C2620676   4.733   2.578  13.918 -0.3192 -0.3467 -0.0491
  170DOPC   H6R20677   4.642   2.514  13.912  0.1258 -0.8691 -1.7286
  170DOPC   H6S20678   4.818   2.507  13.911 -0.5158 -0.6030  0.1495
  170DOPC   C2720679   4.726   2.689  13.812  0.2090  0.1621  0.0411
  170DOPC   H7R20680   4.821   2.741  13.788 -0.8816  3.4598  2.1869
  170DOPC   H7S20681   4.663   2.771  13.852  0.2417  0.2418 -0.0707
  170DOPC   C2820682   4.677   2.627  13.678 -0.0131 -0.8299 -0.2413
  170DOPC   H8R20683   4.570   2.609  13.700 -1.1449  1.8385 -2.8452
  170DOPC   H8S20684   4.743   2.538  13.676  0.3710 -0.5999  1.0402
  170DOPC   C2920685   4.699   2.716  13.561 -0.1322  0.2792 -0.0044
  170DOPC   H9R20686   4.691   2.826  13.565  2.4515  0.5172  0.3817
  170DOPC  C21020687   4.723   2.669  13.441 -0.2160  0.1667 -0.1088
  170DOPC  H10R20688   4.752   2.747  13.368  1.0836  0.1753  0.3814
  170DOPC  C21120689   4.739   2.521  13.408  0.7935 -0.3576  1.0084
  170DOPC  H11R20690   4.652   2.470  13.454 -2.1922  2.5106 -0.9748
  170DOPC  H11S20691   4.827   2.470  13.451  0.8920  0.2017  1.4824
  170DOPC  C21220692   4.736   2.490  13.262  0.7187  0.2536  0.3524
  170DOPC  H12R20693   4.758   2.383  13.241 -0.0267  0.2013 -0.1966
  170DOPC  H12S20694   4.819   2.541  13.208 -1.4469  1.5562 -2.0053
  170DOPC  C21320695   4.602   2.528  13.181  0.6011  0.2626 -0.9572
  170DOPC  H13R20696   4.567   2.629  13.210  1.0232  0.4391 -1.0528
  170DOPC  H13S20697   4.527   2.467  13.236  0.9027  2.5862  2.3035
  170DOPC  C21420698   4.621   2.499  13.034  0.0287 -0.0170  0.8217
  170DOPC  H14R20699   4.516   2.495  13.000 -0.1708 -2.6150  1.5405
  170DOPC  H14S20700   4.662   2.397  13.016 -1.6564 -0.7041  0.7500
  170DOPC  C21520701   4.707   2.604  12.965 -0.1252  0.3796 -0.4836
  170DOPC  H15R20702   4.816   2.584  12.963 -0.6428 -3.0115  0.0265
  170DOPC  H15S20703   4.690   2.702  13.016 -2.8836  0.2189 -0.9426
  170DOPC  C21620704   4.661   2.628  12.817 -0.3644  0.6396 -0.2842
  170DOPC  H16R20705   4.560   2.672  12.811 -1.5100 -1.8906 -1.0098
  170DOPC  H16S20706   4.661   2.530  12.765  0.5440  0.0661  0.7573
  170DOPC  C21720707   4.753   2.719  12.740 -0.3626 -0.2531 -0.2902
  170DOPC  H17R20708   4.705   2.749  12.644 -1.1117  0.8945  0.4319
  170DOPC  H17S20709   4.851   2.669  12.725  0.3200  1.4809 -2.1072
  170DOPC  C21820710   4.789   2.846  12.812  0.5000 -0.2608 -1.2895
  170DOPC  H18R20711   4.708   2.921  12.814 -1.3714 -2.2225 -0.3655
  170DOPC  H18S20712   4.875   2.903  12.768  0.8716 -1.0942 -1.6703
  170DOPC  H18T20713   4.818   2.829  12.918 -0.6695  0.1306 -0.8928
  170DOPC   C3320714   5.162   2.338  14.302  0.3716 -0.7902  0.8030
  170DOPC   H3X20715   5.240   2.416  14.289 -0.3306 -0.2840 -0.5544
  170DOPC   H3Y20716   5.073   2.402  14.288  2.3083  2.8883  3.3402
  170DOPC   C3420717   5.165   2.224  14.205 -0.1689 -0.4972 -0.4396
  170DOPC   H4X20718   5.086   2.147  14.219  2.9184 -3.7359  0.3924
  170DOPC   H4Y20719   5.249   2.156  14.227 -2.3991 -2.7768  1.7613
  170DOPC   C3520720   5.173   2.265  14.053 -0.1437 -0.1519  0.1239
  170DOPC   H5X20721   5.254   2.338  14.036  1.2669 -1.5112  0.7839
  170DOPC   H5Y20722   5.073   2.310  14.033 -0.5436 -1.6398 -1.4152
  170DOPC   C3620723   5.177   2.135  13.968 -0.2986 -0.0463  0.0033
  170DOPC   H6X20724   5.262   2.074  14.006 -0.9480  0.0860  1.7549
  170DOPC   H6Y20725   5.078   2.087  13.986 -0.2543 -0.8456 -1.6330
  170DOPC   C3720726   5.179   2.168  13.814  0.1405 -0.3475  0.2198
  170DOPC   H7X20727   5.162   2.073  13.759  1.0809 -0.0220 -0.6787
  170DOPC   H7Y20728   5.092   2.236  13.798 -0.8738 -1.9323 -1.3786
  170DOPC   C3820729   5.315   2.229  13.768  0.8098 -0.0411 -0.1488
  170DOPC   H8X20730   5.397   2.154  13.766 -0.7304 -1.8036 -1.8243
  170DOPC   H8Y20731   5.346   2.315  13.830 -2.8338  1.5016 -0.2365
  170DOPC   C3920732   5.290   2.281  13.628  0.4243 -0.1525  0.1112
  170DOPC   H9X20733   5.211   2.358  13.619  1.0293  0.3946 -0.5852
  170DOPC  C31020734   5.359   2.243  13.510 -0.2253 -0.2550 -0.7983
  170DOPC  H10X20735   5.350   2.299  13.416 -2.6137  1.1082  0.1553
  170DOPC  C31120736   5.471   2.141  13.503  0.0085  0.1336  1.1865
  170DOPC  H11X20737   5.476   2.059  13.578  0.4357 -1.0020 -0.0250
  170DOPC  H11Y20738   5.566   2.190  13.533 -0.3884  1.5350  0.2508
  170DOPC  C31220739   5.485   2.076  13.362 -1.1537  0.4008 -0.3654
  170DOPC  H12X20740   5.578   2.016  13.374 -2.8440 -2.2546  0.4097
  170DOPC  H12Y20741   5.505   2.151  13.283  0.5485  1.0583  0.6387
  170DOPC  C31320742   5.372   1.970  13.339  0.0423  0.3458  0.1994
  170DOPC  H13X20743   5.385   1.896  13.421 -2.2012 -2.4405 -1.7480
  170DOPC  H13Y20744   5.275   2.024  13.347  1.4189  2.8004  1.5319
  170DOPC  C31420745   5.371   1.882  13.213 -0.1069 -0.0289  0.3101
  170DOPC  H14X20746   5.474   1.848  13.190 -0.1404  1.2156 -1.9401
  170DOPC  H14Y20747   5.314   1.787  13.222 -1.0278  0.6104  1.6708
  170DOPC  C31520748   5.307   1.952  13.088  0.4624  0.0673  0.1191
  170DOPC  H15X20749   5.366   2.041  13.058  2.2098 -1.6290 -1.7903
  170DOPC  H15Y20750   5.202   1.978  13.114  0.6324  0.5313  0.3595
  170DOPC  C31620751   5.303   1.865  12.959  0.3896 -0.0351 -0.6970
  170DOPC  H16X20752   5.405   1.874  12.917  0.3433  1.5862 -0.5411
  170DOPC  H16Y20753   5.277   1.761  12.988  1.1799  0.0171  0.2653
  170DOPC  C31720754   5.199   1.921  12.865 -0.9057  0.1661  0.2896
  170DOPC  H17X20755   5.097   1.903  12.905 -1.6509  2.0717 -0.6204
  170DOPC  H17Y20756   5.211   2.031  12.867  3.7977 -0.0341 -2.7751
  170DOPC  C31820757   5.208   1.864  12.724  0.2740 -0.0294 -0.0116
  170DOPC  H18X20758   5.299   1.913  12.683  1.1322 -0.3897  1.3982
  170DOPC  H18Y20759   5.216   1.754  12.723 -1.1845 -0.1868 -2.2539
  170DOPC  H18Z20760   5.123   1.893  12.657 -0.9012 -1.6214  0.7177
  171DOPC     N20761   3.135   0.055   9.466  0.0606  0.2645  0.3757
  171DOPC   C1220762   3.200  -0.047   9.557 -0.2046 -0.0609  0.1280
  171DOPC  H12A20763   3.307  -0.055   9.550 -0.3650 -2.6369 -0.3558
  171DOPC  H12B20764   3.171  -0.145   9.525 -0.9139  0.5471 -1.1594
  171DOPC   C1320765   2.991   0.049   9.464 -0.3510  0.4296  0.8342
  171DOPC  H13A20766   2.959  -0.018   9.386 -2.4556  1.8916  0.3635
  171DOPC  H13B20767   2.952   0.020   9.561 -2.0760 -0.3229 -0.0479
  171DOPC  H13C20768   2.943   0.140   9.431 -2.7847 -0.5929  1.3701
  171DOPC   C1420769   3.185   0.043   9.323  0.5574 -0.2669  0.4317
  171DOPC  H14A20770   3.293   0.050   9.327  0.5685  0.5832 -0.7782
  171DOPC  H14B20771   3.176  -0.057   9.285 -0.6065  0.1777 -0.5339
  171DOPC  H14C20772   3.148   0.123   9.260  2.1344  0.3621  0.2404
  171DOPC   C1520773   3.170   0.197   9.512 -0.2949  0.2394  0.2108
  171DOPC  H15A20774   3.277   0.194   9.525  0.0192 -3.2029 -1.8228
  171DOPC  H15B20775   3.116   0.221   9.602 -3.1627 -2.4822 -0.5917
  171DOPC  H15C20776   3.147   0.271   9.437  1.0874 -0.0855 -0.5832
  171DOPC   C1120777   3.159  -0.028   9.708  0.2643  0.0243 -0.0962
  171DOPC  H11A20778   3.193   0.072   9.743 -1.0802  0.5168 -0.1313
  171DOPC  H11B20779   3.049  -0.040   9.713  0.0764  1.8872  1.2514
  171DOPC     P20780   3.379  -0.119   9.823  0.4060 -0.2207  0.0508
  171DOPC   O1320781   3.456  -0.127   9.697  0.4220  0.0680 -0.5957
  171DOPC   O1420782   3.413  -0.222   9.924 -0.2792  0.3824 -0.5516
  171DOPC   O1220783   3.223  -0.126   9.788  0.5109 -0.1418 -0.5089
  171DOPC   O1120784   3.387   0.027   9.890 -0.4731  0.0379 -0.1306
  171DOPC    C120785   3.477   0.066   9.990  0.2343  0.7540 -0.0710
  171DOPC    HA20786   3.505   0.172   9.971 -0.7405  0.8382 -1.0945
  171DOPC    HB20787   3.570   0.005   9.998 -0.2182 -0.0737 -0.9191
  171DOPC    C220788   3.412   0.060  10.128 -0.1132 -0.1678  0.0810
  171DOPC    HS20789   3.490   0.096  10.198  2.2279  0.4176 -2.6302
  171DOPC   O2120790   3.377  -0.074  10.153  0.1710  0.3181 -0.1574
  171DOPC   C2120791   3.473  -0.150  10.208 -0.1419  0.0499  0.5670
  171DOPC   O2220792   3.588  -0.114  10.231  0.6256  0.3365 -0.3003
  171DOPC   C2220793   3.408  -0.277  10.269 -0.2078 -0.2553 -0.1665
  171DOPC   H2R20794   3.489  -0.350  10.291 -0.7268 -0.3530  1.6170
  171DOPC   H2S20795   3.334  -0.315  10.195  0.5841 -0.2039 -1.0085
  171DOPC    C320796   3.282   0.146  10.138 -0.2825  0.3029  0.6658
  171DOPC    HX20797   3.206   0.106  10.068 -1.7967  1.0234  1.8443
  171DOPC    HY20798   3.311   0.250  10.111 -0.7722  0.2348 -0.1649
  171DOPC   O3120799   3.232   0.149  10.275  0.2955  0.0760 -0.3056
  171DOPC   C3120800   3.128   0.082  10.308  0.7173 -0.2585  0.5229
  171DOPC   O3220801   3.054   0.017  10.232  0.7585 -0.0040  0.1257
  171DOPC   C3220802   3.119   0.087  10.460 -0.1930 -0.1506 -0.3302
  171DOPC   H2X20803   3.221   0.082  10.503  0.1462 -2.6147 -1.2636
  171DOPC   H2Y20804   3.076   0.186  10.486 -2.4604 -0.3651 -2.8575
  171DOPC   C2320805   3.329  -0.241  10.397  0.7917 -0.3183 -0.5801
  171DOPC   H3R20806   3.249  -0.319  10.400  2.4038 -2.0419 -0.3202
  171DOPC   H3S20807   3.276  -0.144  10.392 -0.4945 -0.9892 -0.5634
  171DOPC   C2420808   3.407  -0.262  10.531 -0.4472 -0.1418  0.0114
  171DOPC   H4R20809   3.498  -0.198  10.524 -1.2334  1.1033  0.7723
  171DOPC   H4S20810   3.420  -0.372  10.526  0.6634  0.0400 -2.5080
  171DOPC   C2520811   3.341  -0.214  10.659 -0.6202  0.5758  0.0339
  171DOPC   H5R20812   3.240  -0.259  10.672 -0.6030 -0.2517 -2.1779
  171DOPC   H5S20813   3.329  -0.104  10.671  0.3228  0.7069 -0.1795
  171DOPC   C2620814   3.422  -0.267  10.780 -0.0276 -0.1953 -0.1719
  171DOPC   H6R20815   3.500  -0.189  10.794 -1.2100  0.8544  0.8315
  171DOPC   H6S20816   3.473  -0.360  10.747  0.0578 -1.2459  2.6222
  171DOPC   C2720817   3.325  -0.283  10.896  0.1942 -0.4740 -0.1369
  171DOPC   H7R20818   3.244  -0.356  10.872 -0.1583 -1.0547  2.4714
  171DOPC   H7S20819   3.265  -0.194  10.923  1.4771  0.4704 -0.3456
  171DOPC   C2820820   3.389  -0.341  11.029  0.6189  0.6781  0.6301
  171DOPC   H8R20821   3.417  -0.447  11.007  2.3903  0.7227  2.3889
  171DOPC   H8S20822   3.317  -0.336  11.113  1.4614  0.2629  1.3998
  171DOPC   C2920823   3.517  -0.273  11.080  0.3368 -0.4999 -0.8841
  171DOPC   H9R20824   3.551  -0.189  11.018  0.2257  1.1973  1.2435
  171DOPC  C21020825   3.599  -0.320  11.173  0.7200  0.2030 -0.3930
  171DOPC  H10R20826   3.691  -0.268  11.201  1.5362 -0.1233 -2.3241
  171DOPC  C21120827   3.574  -0.434  11.265 -0.0082  0.3585  0.2415
  171DOPC  H11R20828   3.648  -0.516  11.260 -1.1217 -0.7845  1.6948
  171DOPC  H11S20829   3.476  -0.474  11.231 -1.0928  2.2192  0.9751
  171DOPC  C21220830   3.535  -0.391  11.412 -0.6640 -0.3865  0.2845
  171DOPC  H12R20831   3.477  -0.296  11.413 -0.2609 -0.1188 -0.6010
  171DOPC  H12S20832   3.640  -0.375  11.444  0.4775  1.3699 -3.6680
  171DOPC  C21320833   3.484  -0.508  11.491  0.2487 -0.1458 -0.5440
  171DOPC  H13R20834   3.557  -0.589  11.511  0.4217  0.5307  1.8498
  171DOPC  H13S20835   3.402  -0.558  11.436  0.6422 -0.2121 -1.0849
  171DOPC  C21420836   3.435  -0.455  11.625  0.0881  0.0677  0.3813
  171DOPC  H14R20837   3.370  -0.526  11.681  1.2512 -0.6868  0.8105
  171DOPC  H14S20838   3.373  -0.365  11.608  1.1612  0.7112 -0.2102
  171DOPC  C21520839   3.550  -0.414  11.715  0.1099 -0.5337  0.4224
  171DOPC  H15R20840   3.614  -0.337  11.668 -0.2776 -1.6144 -1.9927
  171DOPC  H15S20841   3.615  -0.503  11.712  0.7395 -0.0523 -2.3386
  171DOPC  C21620842   3.497  -0.373  11.860 -0.1715  0.1311 -0.0771
  171DOPC  H16R20843   3.453  -0.460  11.914 -1.2543  0.0419 -1.0767
  171DOPC  H16S20844   3.419  -0.296  11.851 -0.0970  0.1738 -0.3733
  171DOPC  C21720845   3.619  -0.325  11.954  0.0131  0.1573  0.4842
  171DOPC  H17R20846   3.671  -0.246  11.895  0.0619 -1.1327 -1.2724
  171DOPC  H17S20847   3.697  -0.404  11.955 -2.4323 -2.4173  2.0572
  171DOPC  C21820848   3.586  -0.278  12.099 -0.0293  0.5856  0.0876
  171DOPC  H18R20849   3.521  -0.189  12.102 -0.2960  0.3694  1.1707
  171DOPC  H18S20850   3.681  -0.254  12.152  1.1289  0.5310 -1.8704
  171DOPC  H18T20851   3.540  -0.359  12.159  0.6702  0.6619  0.7476
  171DOPC   C3320852   3.032  -0.034  10.514 -0.9954  0.0910  0.2026
  171DOPC   H3X20853   3.087  -0.130  10.511 -0.5435  0.3717 -1.0638
  171DOPC   H3Y20854   2.940  -0.035  10.451 -2.3462 -0.8118  2.1011
  171DOPC   C3420855   2.985   0.007  10.655 -0.0948  0.0468  0.0869
  171DOPC   H4X20856   2.932   0.104  10.655 -2.1590 -0.9886 -1.6258
  171DOPC   H4Y20857   3.074   0.017  10.721  0.3042 -1.8757 -0.0869
  171DOPC   C3520858   2.892  -0.104  10.717 -0.4028 -0.2633  0.2468
  171DOPC   H5X20859   2.960  -0.190  10.736 -1.4420 -1.5696 -1.6342
  171DOPC   H5Y20860   2.813  -0.125  10.641 -0.1996 -0.1620  0.0065
  171DOPC   C3620861   2.826  -0.067  10.849 -0.3689  0.2940  0.6130
  171DOPC   H6X20862   2.748   0.009  10.825  0.3669  0.3193 -1.9473
  171DOPC   H6Y20863   2.772  -0.152  10.896  1.9569 -2.3772 -1.2090
  171DOPC   C3720864   2.918  -0.005  10.956  0.4299 -0.4540  0.0271
  171DOPC   H7X20865   2.979   0.079  10.916  1.6245 -0.1196  2.4146
  171DOPC   H7Y20866   2.854   0.036  11.037 -0.8854 -1.7656 -0.3152
  171DOPC   C3820867   3.003  -0.114  11.031 -0.1823 -0.4231  0.5032
  171DOPC   H8X20868   3.042  -0.179  10.950  0.2138 -1.3753  1.4298
  171DOPC   H8Y20869   2.928  -0.178  11.082  0.0935  0.3911  1.9889
  171DOPC   C3920870   3.108  -0.063  11.131 -0.9601  0.2167  0.0474
  171DOPC   H9X20871   3.175   0.020  11.104  0.8372 -1.5356 -1.2564
  171DOPC  C31020872   3.151  -0.135  11.240  0.5306 -0.1308  0.1191
  171DOPC  H10X20873   3.236  -0.093  11.295  1.3318  1.0644 -1.9466
  171DOPC  C31120874   3.089  -0.260  11.300 -0.1722  0.3894  0.4360
  171DOPC  H11X20875   3.151  -0.348  11.274 -3.2468 -2.0255  0.5701
  171DOPC  H11Y20876   2.991  -0.280  11.250  1.4028 -0.4064 -2.5370
  171DOPC  C31220877   3.084  -0.247  11.455 -0.6762  0.5584  0.1695
  171DOPC  H12X20878   3.021  -0.160  11.482  0.9290  2.0897 -0.8347
  171DOPC  H12Y20879   3.187  -0.215  11.484 -0.6738  1.7745 -1.0890
  171DOPC  C31320880   3.054  -0.381  11.528 -0.4961  0.3726 -0.0809
  171DOPC  H13X20881   2.963  -0.428  11.485  0.9187 -0.8593 -1.8979
  171DOPC  H13Y20882   3.138  -0.452  11.513  0.4538  1.3960  0.2709
  171DOPC  C31420883   3.046  -0.359  11.689 -0.2402 -0.1624 -0.2702
  171DOPC  H14X20884   3.139  -0.304  11.716 -1.5878  1.6960  0.8600
  171DOPC  H14Y20885   2.954  -0.304  11.717 -0.0891  1.7028 -2.9785
  171DOPC  C31520886   3.039  -0.495  11.750  0.4899 -0.1869  0.0659
  171DOPC  H15X20887   3.124  -0.555  11.713  1.4015  1.1462 -0.0826
  171DOPC  H15Y20888   2.948  -0.550  11.718  1.3924 -0.8502 -1.4869
  171DOPC  C31620889   3.031  -0.476  11.903 -1.0763 -0.3363 -0.3816
  171DOPC  H16X20890   2.941  -0.420  11.938  0.8853  2.1148  1.0764
  171DOPC  H16Y20891   3.029  -0.579  11.943  1.1264  0.3254  1.6660
  171DOPC  C31720892   3.161  -0.412  11.960 -0.3713  0.1787  0.4677
  171DOPC  H17X20893   3.250  -0.457  11.911 -0.6302  0.9896 -0.8061
  171DOPC  H17Y20894   3.170  -0.305  11.932  3.0331  0.1208  0.9649
  171DOPC  C31820895   3.161  -0.427  12.111 -0.2908 -0.7795  0.0081
  171DOPC  H18X20896   3.063  -0.414  12.160  1.4481  2.6953  3.0373
  171DOPC  H18Y20897   3.183  -0.535  12.124 -1.4224 -1.0817 -0.4790
  171DOPC  H18Z20898   3.228  -0.362  12.171 -0.3384 -0.9577  0.2567
  172DOPC     N20899   2.257   0.900   9.619  0.3873 -0.2898  0.1004
  172DOPC   C1220900   2.188   1.010   9.703  0.4194  0.1115 -0.0765
  172DOPC  H12A20901   2.092   1.039   9.662  0.2953 -0.3797 -0.1420
  172DOPC  H12B20902   2.247   1.100   9.709 -3.2939  2.8273 -0.4090
  172DOPC   C1320903   2.360   0.837   9.699  0.1765 -0.4594 -0.1789
  172DOPC  H13A20904   2.309   0.799   9.786 -2.6793  0.6270 -1.2926
  172DOPC  H13B20905   2.406   0.755   9.645 -2.3669 -1.9936 -0.1794
  172DOPC  H13C20906   2.432   0.912   9.728  0.2588 -1.0440  1.1945
  172DOPC   C1420907   2.320   0.965   9.495 -1.3053 -0.1935  0.2646
  172DOPC  H14A20908   2.243   1.003   9.430  0.4653  0.8550 -1.3373
  172DOPC  H14B20909   2.387   1.040   9.534 -2.8065  0.4684  1.6676
  172DOPC  H14C20910   2.370   0.882   9.447 -2.5012 -0.0703 -1.2642
  172DOPC   C1520911   2.160   0.795   9.574 -0.4132 -0.4579  0.0176
  172DOPC  H15A20912   2.217   0.710   9.537  1.2098  1.0207 -1.0137
  172DOPC  H15B20913   2.093   0.836   9.500 -0.2465 -0.3051 -0.0482
  172DOPC  H15C20914   2.106   0.771   9.665 -0.9140  0.5111 -0.0173
  172DOPC   C1120915   2.154   0.974   9.851 -0.2021 -0.0134  0.4197
  172DOPC  H11A20916   2.255   0.954   9.891 -0.1073 -1.0149 -0.2828
  172DOPC  H11B20917   2.114   1.064   9.903 -0.3639  0.0332  0.2148
  172DOPC     P20918   1.915   0.878   9.850 -0.0344 -0.1498 -0.2766
  172DOPC   O1320919   1.839   0.759   9.885  0.7831  0.3807 -0.2437
  172DOPC   O1420920   1.893   0.930   9.712  0.7621  0.1128  0.6750
  172DOPC   O1220921   2.075   0.853   9.876 -0.2866  0.4228  0.1988
  172DOPC   O1120922   1.881   0.990   9.951  0.2597 -0.1164 -0.4712
  172DOPC    C120923   1.914   0.978  10.087  0.1740  0.8815 -0.1216
  172DOPC    HA20924   1.973   1.065  10.122  2.2740 -0.5291 -0.0390
  172DOPC    HB20925   1.990   0.900  10.105 -1.2382 -0.6345 -0.4635
  172DOPC    C220926   1.798   0.966  10.191 -0.3109  0.7201 -0.0442
  172DOPC    HS20927   1.829   0.968  10.297  3.3163 -1.0622 -0.9175
  172DOPC   O2120928   1.710   0.857  10.173 -0.0834 -0.4235  0.0520
  172DOPC   C2120929   1.755   0.740  10.195  0.6531  0.0659 -0.1213
  172DOPC   O2220930   1.867   0.708  10.241 -0.2014 -0.3162  0.0766
  172DOPC   C2220931   1.647   0.631  10.161 -0.9385 -0.9671  0.2734
  172DOPC   H2R20932   1.627   0.638  10.051 -0.6008 -2.7647  0.0590
  172DOPC   H2S20933   1.559   0.673  10.215 -0.7014  1.5884 -1.1523
  172DOPC    C320934   1.720   1.097  10.168 -0.4095  0.6516  0.1436
  172DOPC    HX20935   1.620   1.095  10.216 -0.4829  2.1428  0.0995
  172DOPC    HY20936   1.717   1.108  10.058 -0.1610  0.8515  0.1568
  172DOPC   O3120937   1.801   1.201  10.221 -0.4460 -0.3028 -0.4635
  172DOPC   C3120938   1.765   1.321  10.176 -0.3665 -0.2397 -0.8089
  172DOPC   O3220939   1.664   1.348  10.113 -0.7150  0.1733 -0.3488
  172DOPC   C3220940   1.873   1.428  10.223  0.4659 -0.1974  0.1566
  172DOPC   H2X20941   1.968   1.388  10.181 -0.5857 -1.0642 -1.5344
  172DOPC   H2Y20942   1.842   1.525  10.178 -0.1224  0.3102  1.5939
  172DOPC   C2320943   1.681   0.496  10.214 -0.3485  0.1212 -0.0777
  172DOPC   H3R20944   1.728   0.506  10.314 -0.6161 -0.3281  0.0926
  172DOPC   H3S20945   1.752   0.451  10.140 -2.3841 -1.2892 -1.2713
  172DOPC   C2420946   1.562   0.405  10.233  0.0277 -0.2771 -0.5575
  172DOPC   H4R20947   1.591   0.300  10.254 -1.1060 -1.4122 -3.9554
  172DOPC   H4S20948   1.515   0.401  10.132 -1.0240 -1.8330 -0.0456
  172DOPC   C2520949   1.468   0.449  10.339 -0.0101 -0.2591  0.0704
  172DOPC   H5R20950   1.379   0.382  10.337 -1.0675  0.8541  3.2679
  172DOPC   H5S20951   1.425   0.551  10.340 -0.4589 -0.4227  1.9381
  172DOPC   C2620952   1.523   0.426  10.487  0.3490  0.6034 -0.3609
  172DOPC   H6R20953   1.626   0.460  10.511  0.5039  1.3952 -1.9630
  172DOPC   H6S20954   1.536   0.316  10.497 -0.1809  0.6370  0.8638
  172DOPC   C2720955   1.426   0.473  10.603  1.0572 -0.0394  0.0690
  172DOPC   H7R20956   1.329   0.422  10.587 -0.1162  1.6774  1.2751
  172DOPC   H7S20957   1.408   0.581  10.589  0.4242 -0.2428 -0.7466
  172DOPC   C2820958   1.480   0.451  10.751  0.0976 -0.0822  0.3274
  172DOPC   H8R20959   1.588   0.451  10.727  0.0892 -3.1543 -0.0678
  172DOPC   H8S20960   1.453   0.350  10.789  1.0218 -1.2357 -1.9169
  172DOPC   C2920961   1.445   0.558  10.848 -0.4735 -0.4811  0.1753
  172DOPC   H9R20962   1.479   0.654  10.807  1.5874 -0.7879  1.0924
  172DOPC  C21020963   1.355   0.557  10.954  0.7086 -0.3568  0.2761
  172DOPC  H10R20964   1.346   0.648  11.015 -2.2817 -0.6550  0.4152
  172DOPC  C21120965   1.276   0.442  11.015 -0.2550 -0.3977 -0.2357
  172DOPC  H11R20966   1.307   0.426  11.120  1.3079 -2.3558 -0.9339
  172DOPC  H11S20967   1.284   0.354  10.947 -4.1205 -0.3969 -0.9475
  172DOPC  C21220968   1.136   0.475  11.023  1.2054 -0.3318  0.4433
  172DOPC  H12R20969   1.069   0.386  11.017 -0.9897  1.2072  1.2805
  172DOPC  H12S20970   1.103   0.538  10.938 -1.6682 -2.6727 -0.3376
  172DOPC  C21320971   1.079   0.548  11.154 -0.5633 -0.0817 -0.1408
  172DOPC  H13R20972   1.122   0.650  11.160 -0.3312 -0.0666 -1.6029
  172DOPC  H13S20973   1.115   0.492  11.243  0.0844  3.3712  1.9473
  172DOPC  C21420974   0.927   0.558  11.165  0.0516 -0.3605  0.0162
  172DOPC  H14R20975   0.886   0.455  11.170  0.8759 -0.7177 -0.4573
  172DOPC  H14S20976   0.895   0.597  11.066 -0.5109 -0.1548  0.2717
  172DOPC  C21520977   0.882   0.645  11.280  0.0338 -0.1808  0.5554
  172DOPC  H15R20978   0.772   0.643  11.295 -0.1016 -0.7080 -0.4273
  172DOPC  H15S20979   0.904   0.748  11.244 -0.6867 -0.0046  0.5975
  172DOPC  C21620980   0.948   0.606  11.412 -0.1751  0.1965  0.2956
  172DOPC  H16R20981   1.054   0.639  11.403 -0.3796  0.3016 -2.4792
  172DOPC  H16S20982   0.957   0.496  11.414  2.0127  0.3325  2.3905
  172DOPC  C21720983   0.880   0.655  11.538  0.0059  0.7558 -0.0268
  172DOPC  H17R20984   0.933   0.609  11.625  1.8135 -0.5849 -1.7497
  172DOPC  H17S20985   0.772   0.630  11.529 -0.0679  0.9898  0.2054
  172DOPC  C21820986   0.908   0.811  11.566  0.2650 -0.4322 -0.3226
  172DOPC  H18R20987   1.017   0.834  11.571 -0.1786  1.7565  0.5054
  172DOPC  H18S20988   0.860   0.855  11.657  1.3929  0.8385 -0.3123
  172DOPC  H18T20989   0.874   0.870  11.478  0.2545  0.7375  0.4389
  172DOPC   C3320990   1.879   1.425  10.380  0.9617  0.8760  0.7231
  172DOPC   H3X20991   1.855   1.330  10.432 -1.0303  0.9943  0.1095
  172DOPC   H3Y20992   1.801   1.494  10.420 -0.3415 -0.0628 -0.0980
  172DOPC   C3420993   2.010   1.471  10.441  0.3042  0.0640  0.1279
  172DOPC   H4X20994   2.030   1.578  10.418  0.8250 -0.1923 -0.6489
  172DOPC   H4Y20995   2.090   1.410  10.394  0.5518  0.5698 -0.1182
  172DOPC   C3520996   2.025   1.459  10.594  0.1172 -0.6316  0.0967
  172DOPC   H5X20997   2.010   1.354  10.626 -1.0969 -0.2093  0.9864
  172DOPC   H5Y20998   1.943   1.524  10.633 -1.1894 -1.1146 -1.7326
  172DOPC   C3620999   2.167   1.499  10.650  0.2593  0.0826 -0.1785
  172DOPC   H6X21000   2.243   1.425  10.619  0.4853  1.1046 -2.3026
  172DOPC   H6Y21001   2.196   1.598  10.608 -0.1754  0.4900  0.4722
  172DOPC   C3721002   2.172   1.525  10.799  0.5828 -0.1235 -0.1710
  172DOPC   H7X21003   2.102   1.606  10.830 -0.2088 -0.2377 -1.5560
  172DOPC   H7Y21004   2.130   1.439  10.855  1.0344 -0.2212  0.0271
  172DOPC   C3821005   2.313   1.566  10.855 -0.4578 -0.4592 -0.8121
  172DOPC   H8X21006   2.331   1.671  10.822 -0.5444 -0.3265 -0.4446
  172DOPC   H8Y21007   2.397   1.501  10.823 -1.0570 -1.1089 -1.0898
  172DOPC   C3921008   2.311   1.596  11.007 -0.0897  0.9468 -0.1831
  172DOPC   H9X21009   2.298   1.704  11.026 -0.3874  0.9847 -0.5643
  172DOPC  C31021010   2.348   1.520  11.110  1.0630 -0.3022  0.1880
  172DOPC  H10X21011   2.356   1.583  11.199  1.9949 -0.1439 -0.0019
  172DOPC  C31121012   2.386   1.371  11.117 -0.2104 -0.2893 -0.7878
  172DOPC  H11X21013   2.496   1.377  11.131 -0.0814 -1.4128 -1.2099
  172DOPC  H11Y21014   2.369   1.322  11.018  0.3535 -0.5155 -0.7719
  172DOPC  C31221015   2.325   1.273  11.222 -0.0964 -0.1498  0.6906
  172DOPC  H12X21016   2.384   1.179  11.218  0.5163  0.2762 -1.3607
  172DOPC  H12Y21017   2.221   1.247  11.190 -1.1570  0.7500  3.1634
  172DOPC  C31321018   2.329   1.319  11.364  0.3746 -0.4383 -0.3632
  172DOPC  H13X21019   2.426   1.371  11.374  0.3743 -0.4595 -0.2402
  172DOPC  H13Y21020   2.253   1.393  11.397  1.6385  1.0410 -0.6767
  172DOPC  C31421021   2.324   1.202  11.467  0.7379 -0.2721 -0.0363
  172DOPC  H14X21022   2.228   1.147  11.474  0.7667 -0.1576  2.4208
  172DOPC  H14Y21023   2.400   1.128  11.433  0.7016  0.1633 -1.0835
  172DOPC  C31521024   2.365   1.254  11.610  0.0893 -0.3634  0.2528
  172DOPC  H15X21025   2.282   1.322  11.640  0.8561  2.0591 -2.5492
  172DOPC  H15Y21026   2.457   1.316  11.614 -1.4235  2.0449  0.3555
  172DOPC  C31621027   2.374   1.147  11.709 -0.1896  0.4655 -0.4622
  172DOPC  H16X21028   2.293   1.071  11.702 -0.6075  0.8305  0.2392
  172DOPC  H16Y21029   2.465   1.084  11.710 -0.7487 -0.5066  2.8323
  172DOPC  C31721030   2.366   1.214  11.847 -0.2447 -0.2110  0.1113
  172DOPC  H17X21031   2.413   1.315  11.841 -1.0749  0.0990 -2.6575
  172DOPC  H17Y21032   2.259   1.235  11.867 -0.4033 -1.6339  0.8652
  172DOPC  C31821033   2.424   1.136  11.966  0.3926  0.3097 -0.4660
  172DOPC  H18X21034   2.526   1.113  11.927  0.1923  0.1535 -0.9017
  172DOPC  H18Y21035   2.422   1.187  12.065  1.5169 -1.1152  0.3443
  172DOPC  H18Z21036   2.373   1.038  11.983 -0.7558  0.8491 -0.7200
  173DOPC     N21037   1.769   6.458   9.521 -0.1426 -0.9225  0.0521
  173DOPC   C1221038   1.722   6.410   9.656 -0.1926 -0.1478  0.7276
  173DOPC  H12A21039   1.758   6.308   9.662  1.8100  0.2099 -2.5427
  173DOPC  H12B21040   1.615   6.419   9.658 -0.5112 -1.5208 -2.7501
  173DOPC   C1321041   1.757   6.613   9.502 -0.1734  0.1231  0.0167
  173DOPC  H13A21042   1.775   6.665   9.409 -2.2426  1.5748  0.3410
  173DOPC  H13B21043   1.659   6.652   9.527 -0.9827 -1.3302 -0.7542
  173DOPC  H13C21044   1.814   6.657   9.583 -0.7655 -2.2481  1.8346
  173DOPC   C1421045   1.692   6.397   9.413 -0.4024 -0.2437 -0.1909
  173DOPC  H14A21046   1.588   6.424   9.408 -0.0234  1.0756 -1.9343
  173DOPC  H14B21047   1.732   6.421   9.316  0.0915 -1.1388 -0.2255
  173DOPC  H14C21048   1.707   6.290   9.406  0.3000 -0.1092 -0.9324
  173DOPC   C1521049   1.921   6.418   9.496  1.2341 -0.3772  0.2029
  173DOPC  H15A21050   1.954   6.459   9.402  0.2654 -1.0549 -0.4427
  173DOPC  H15B21051   1.932   6.311   9.485  1.3860 -0.2303 -1.3167
  173DOPC  H15C21052   1.981   6.464   9.573  1.4249  1.0727 -0.7617
  173DOPC   C1121053   1.780   6.477   9.784  0.7834 -0.0556  0.0978
  173DOPC  H11A21054   1.771   6.403   9.866  2.2165  0.4131  0.7155
  173DOPC  H11B21055   1.890   6.493   9.781  0.5424  1.6234 -1.1649
  173DOPC     P21056   1.593   6.618   9.904  0.7097  0.1447  0.0872
  173DOPC   O1321057   1.480   6.530   9.864 -0.7302  0.2970  0.4609
  173DOPC   O1421058   1.564   6.760   9.911 -0.0253  0.1901  0.2254
  173DOPC   O1221059   1.709   6.603   9.799  0.7225 -0.3657  0.5418
  173DOPC   O1121060   1.663   6.572  10.029 -0.3443  0.0549 -0.3783
  173DOPC    C121061   1.753   6.660  10.105 -0.0174 -0.2404  0.7245
  173DOPC    HA21062   1.814   6.714  10.030 -2.4038  0.0602 -1.1357
  173DOPC    HB21063   1.828   6.597  10.157  1.3246  2.1625  1.8487
  173DOPC    C221064   1.671   6.745  10.212 -0.3369  0.4169  0.7195
  173DOPC    HS21065   1.601   6.819  10.169 -0.3675  0.7691  1.3540
  173DOPC   O2121066   1.763   6.818  10.303  0.5816  0.2191  0.2058
  173DOPC   C2121067   1.812   6.925  10.246 -0.0978  0.5956  0.5666
  173DOPC   O2221068   1.792   6.964  10.129 -0.2388  0.0810  0.2530
  173DOPC   C2221069   1.895   7.009  10.340  0.2194  0.9720 -0.4093
  173DOPC   H2R21070   1.864   7.115  10.347 -1.2501  0.4643  1.5138
  173DOPC   H2S21071   1.996   7.001  10.293  1.0062 -2.3872  1.5368
  173DOPC    C321072   1.585   6.636  10.281  0.6138  0.0494  0.2373
  173DOPC    HX21073   1.652   6.552  10.308  1.1141 -0.1133 -1.4289
  173DOPC    HY21074   1.505   6.601  10.213 -0.3751 -0.6635  1.7214
  173DOPC   O3121075   1.534   6.677  10.404  0.3248 -0.0942 -0.4434
  173DOPC   C3121076   1.443   6.776  10.397  0.1533  0.0335 -0.0963
  173DOPC   O3221077   1.410   6.823  10.292  0.2084  0.4546  0.2347
  173DOPC   C3221078   1.413   6.835  10.540  0.2993  0.1934  0.2008
  173DOPC   H2X21079   1.512   6.848  10.589 -0.3297 -0.8149  1.8210
  173DOPC   H2Y21080   1.371   6.937  10.525 -0.3331 -0.0271  0.4113
  173DOPC   C2321081   1.909   6.939  10.479  0.5695 -0.1601  0.0935
  173DOPC   H3R21082   1.996   6.984  10.532 -0.3150 -1.0684  2.4649
  173DOPC   H3S21083   1.920   6.829  10.467 -1.6009 -0.3883 -0.2634
  173DOPC   C2421084   1.790   6.970  10.579 -0.6121  0.1097  0.4771
  173DOPC   H4R21085   1.700   6.946  10.519 -0.0612  3.4202 -1.9971
  173DOPC   H4S21086   1.784   7.080  10.597  0.0942  0.0897  0.8724
  173DOPC   C2521087   1.801   6.898  10.715  0.5887 -0.3322  0.7884
  173DOPC   H5R21088   1.907   6.890  10.747  0.6798 -0.1035  0.5480
  173DOPC   H5S21089   1.777   6.790  10.702 -1.2686  0.1322  0.1415
  173DOPC   C2621090   1.699   6.961  10.818 -0.1500  0.7595 -0.4709
  173DOPC   H6R21091   1.600   6.956  10.767  0.4777  0.4831 -1.7191
  173DOPC   H6S21092   1.732   7.065  10.836 -3.2831  1.6324  0.9360
  173DOPC   C2721093   1.698   6.884  10.955  0.4360 -0.0107  0.2466
  173DOPC   H7R21094   1.799   6.885  11.001  0.6711 -1.0861 -0.2020
  173DOPC   H7S21095   1.662   6.781  10.934 -0.1854  0.5904 -1.8978
  173DOPC   C2821096   1.585   6.935  11.056  0.0188 -0.0570 -0.1645
  173DOPC   H8R21097   1.580   6.867  11.144 -0.6864  2.8810  2.2337
  173DOPC   H8S21098   1.490   6.937  10.999  0.2080  0.9207 -0.4743
  173DOPC   C2921099   1.626   7.073  11.098  0.0563 -0.4786  0.1465
  173DOPC   H9R21100   1.660   7.139  11.017 -1.3022  0.6200  0.4200
  173DOPC  C21021101   1.607   7.122  11.225 -0.1898 -0.3502 -0.1291
  173DOPC  H10R21102   1.643   7.222  11.252 -0.2720 -0.3130 -0.1580
  173DOPC  C21121103   1.541   7.054  11.342  0.0525 -0.0877  0.4097
  173DOPC  H11R21104   1.613   7.047  11.427  0.5849 -0.9332 -0.0882
  173DOPC  H11S21105   1.522   6.947  11.318  0.4535  0.0487 -0.5450
  173DOPC  C21221106   1.415   7.127  11.397 -0.3968  0.4583 -0.1914
  173DOPC  H12R21107   1.398   7.087  11.499 -1.3770 -1.5072 -1.0614
  173DOPC  H12S21108   1.329   7.096  11.333 -0.2225  0.0321 -0.2227
  173DOPC  C21321109   1.434   7.282  11.415 -0.7220  0.0527  0.4320
  173DOPC  H13R21110   1.417   7.342  11.324  1.1628  2.5260  1.5998
  173DOPC  H13S21111   1.542   7.302  11.432 -0.8507  1.0417  0.0896
  173DOPC  C21421112   1.353   7.337  11.535 -0.9049  0.6559  0.2543
  173DOPC  H14R21113   1.260   7.277  11.534  0.9596 -2.4657  0.7504
  173DOPC  H14S21114   1.326   7.444  11.519 -0.3753  1.0744  1.9661
  173DOPC  C21521115   1.425   7.316  11.671 -0.1262  0.0151  0.4479
  173DOPC  H15R21116   1.531   7.350  11.661  0.0336 -0.7516 -0.6734
  173DOPC  H15S21117   1.435   7.207  11.692 -0.9962  0.3087  2.6622
  173DOPC  C21621118   1.353   7.383  11.793  0.5079  0.7614  0.5035
  173DOPC  H16R21119   1.360   7.493  11.785  0.8608  0.6054 -2.1702
  173DOPC  H16S21120   1.393   7.337  11.886 -2.1924 -0.2519  1.2758
  173DOPC  C21721121   1.201   7.345  11.793 -0.4026  0.3818  0.3044
  173DOPC  H17R21122   1.201   7.238  11.822 -0.4119 -0.0402 -1.1881
  173DOPC  H17S21123   1.148   7.352  11.695  0.9663 -0.3576 -0.5158
  173DOPC  C21821124   1.116   7.412  11.900  0.1881 -0.3768 -1.0946
  173DOPC  H18R21125   1.018   7.361  11.897  0.2841 -0.6022 -0.4445
  173DOPC  H18S21126   1.093   7.520  11.887  0.4026 -0.0799  0.7173
  173DOPC  H18T21127   1.167   7.408  11.998  2.6925 -1.1863 -2.3372
  173DOPC   C3321128   1.322   6.742  10.623  0.4477 -0.1090 -0.4121
  173DOPC   H3X21129   1.321   6.633  10.599 -1.1501 -0.4035  0.8459
  173DOPC   H3Y21130   1.218   6.775  10.604  1.1455  1.3990 -1.8450
  173DOPC   C3421131   1.339   6.765  10.773  0.0509 -0.4889  0.0291
  173DOPC   H4X21132   1.348   6.875  10.776 -1.2464 -0.3615 -0.1324
  173DOPC   H4Y21133   1.436   6.740  10.820 -1.3073 -1.0305  2.7261
  173DOPC   C3521134   1.225   6.718  10.863  0.3774  0.2332  1.2549
  173DOPC   H5X21135   1.253   6.613  10.888  1.6155  0.3253  0.3187
  173DOPC   H5Y21136   1.123   6.722  10.819 -0.1524  0.7975  2.4726
  173DOPC   C3621137   1.218   6.800  10.989 -0.2453 -0.1773 -0.8599
  173DOPC   H6X21138   1.321   6.805  11.031  0.0662 -0.3657 -1.5769
  173DOPC   H6Y21139   1.184   6.905  10.981  1.4632  0.5483  0.7923
  173DOPC   C3721140   1.137   6.732  11.107  0.5577  0.6637  0.4151
  173DOPC   H7X21141   1.032   6.735  11.069 -0.2648 -0.3995  2.4854
  173DOPC   H7Y21142   1.176   6.628  11.104 -0.4473  0.2798  0.4245
  173DOPC   C3821143   1.150   6.796  11.245  0.1197 -0.3190  0.0444
  173DOPC   H8X21144   1.260   6.799  11.261  0.0683 -0.5203  0.4545
  173DOPC   H8Y21145   1.115   6.722  11.320 -3.0768  0.4323 -0.5897
  173DOPC   C3921146   1.085   6.934  11.261  0.9349  0.1283 -0.1652
  173DOPC   H9X21147   1.114   7.020  11.199  3.0741 -0.7299 -0.4585
  173DOPC  C31021148   0.982   6.961  11.343  0.3009 -0.0338 -0.0227
  173DOPC  H10X21149   0.940   7.061  11.327  2.7977  0.7645 -2.1926
  173DOPC  C31121150   0.917   6.865  11.442 -0.4060 -0.5422  0.0468
  173DOPC  H11X21151   0.924   6.762  11.402  2.0336 -0.6550  0.6337
  173DOPC  H11Y21152   0.810   6.892  11.459  0.0103  1.5354 -0.3496
  173DOPC  C31221153   0.995   6.858  11.575 -0.5957 -0.5196  0.5645
  173DOPC  H12X21154   1.098   6.822  11.555  0.9451  2.0350  3.1292
  173DOPC  H12Y21155   0.949   6.780  11.639  0.1239 -0.5558  1.0522
  173DOPC  C31321156   1.009   6.984  11.660  0.0244 -0.3117  0.3873
  173DOPC  H13X21157   1.065   7.071  11.619 -1.9471  0.4962 -0.7251
  173DOPC  H13Y21158   0.906   7.020  11.681  0.0376 -0.4414  0.6822
  173DOPC  C31421159   1.078   6.959  11.792  0.7590  0.1143 -0.7585
  173DOPC  H14X21160   1.067   7.044  11.863  0.0155 -2.9816  3.1622
  173DOPC  H14Y21161   1.027   6.876  11.844  0.1444  0.8514 -0.1605
  173DOPC  C31521162   1.223   6.926  11.783  0.5101 -0.1707 -0.2836
  173DOPC  H15X21163   1.262   7.006  11.716  1.4042 -0.9280 -0.6981
  173DOPC  H15Y21164   1.228   6.828  11.732 -0.7876  0.1446 -1.0818
  173DOPC  C31621165   1.303   6.930  11.912  0.1029  0.2430  0.3469
  173DOPC  H16X21166   1.266   7.005  11.985  1.1317  0.1843  0.9570
  173DOPC  H16Y21167   1.296   6.831  11.962 -0.0520  0.2764  0.3910
  173DOPC  C31721168   1.446   6.966  11.899 -0.1866 -0.3495 -0.7183
  173DOPC  H17X21169   1.442   7.073  11.869 -0.5142  0.2614  1.3246
  173DOPC  H17Y21170   1.497   6.963  11.997 -2.1342 -0.2167  0.3432
  173DOPC  C31821171   1.536   6.894  11.792 -0.4556 -0.3074  0.6070
  173DOPC  H18X21172   1.639   6.933  11.779 -0.1630 -1.5667 -1.0973
  173DOPC  H18Y21173   1.548   6.793  11.837  0.2656 -0.2856  0.4794
  173DOPC  H18Z21174   1.496   6.879  11.690 -0.4893 -1.4884  0.7760
  174DOPC     N21175   3.900   6.201   9.350 -0.3722  0.0603  0.0150
  174DOPC   C1221176   4.020   6.249   9.439 -0.2959  0.2003  0.2935
  174DOPC  H12A21177   4.000   6.220   9.541 -0.0335  0.6617  0.4776
  174DOPC  H12B21178   4.015   6.356   9.445 -2.7433  0.1920 -0.5213
  174DOPC   C1321179   3.917   6.231   9.203 -0.4331 -0.3444 -0.3664
  174DOPC  H13A21180   3.949   6.332   9.183 -0.8987 -0.3817 -1.3607
  174DOPC  H13B21181   3.990   6.165   9.158  1.1899  1.4135 -0.4447
  174DOPC  H13C21182   3.824   6.213   9.152 -0.6298  0.5745 -0.3484
  174DOPC   C1421183   3.779   6.263   9.404 -0.2412 -0.2741 -0.1581
  174DOPC  H14A21184   3.776   6.246   9.510  1.5344  0.1478 -0.0029
  174DOPC  H14B21185   3.780   6.370   9.387  0.1663 -0.4303 -1.2021
  174DOPC  H14C21186   3.691   6.225   9.354 -0.2508 -0.8496  0.2958
  174DOPC   C1521187   3.870   6.054   9.365 -0.0714 -0.2950 -0.4463
  174DOPC  H15A21188   3.966   6.004   9.369 -1.5419 -3.6160 -2.8272
  174DOPC  H15B21189   3.815   6.017   9.280  0.9157 -1.1755 -0.7325
  174DOPC  H15C21190   3.824   6.039   9.462  1.8874  1.8021  0.9427
  174DOPC   C1121191   4.158   6.182   9.408 -0.1521  0.2104 -0.0629
  174DOPC  H11A21192   4.169   6.182   9.297  0.2447  0.2589 -0.0269
  174DOPC  H11B21193   4.235   6.246   9.457  1.9153 -0.4769 -2.2085
  174DOPC     P21194   4.180   6.011   9.607 -0.4004  0.1106 -0.2926
  174DOPC   O1321195   4.317   6.031   9.663 -0.2762  0.2380 -0.3565
  174DOPC   O1421196   4.126   5.876   9.617  1.0271  0.1513  0.2099
  174DOPC   O1221197   4.167   6.054   9.457 -0.2733  0.1240  0.6717
  174DOPC   O1121198   4.080   6.107   9.685 -0.3103 -0.2008 -0.2327
  174DOPC    C121199   4.127   6.221   9.756  0.6683 -0.5954 -0.6804
  174DOPC    HA21200   4.057   6.304   9.736 -0.0880 -1.2891 -0.9683
  174DOPC    HB21201   4.226   6.259   9.722  1.0666 -0.1989  0.8513
  174DOPC    C221202   4.140   6.204   9.909 -0.1536 -0.8923 -0.1176
  174DOPC    HS21203   4.230   6.147   9.940  0.1589  0.3331  1.3636
  174DOPC   O2121204   4.017   6.153   9.960  0.1097  0.1885 -0.0112
  174DOPC   C2121205   4.018   6.026   9.992  0.4730 -0.5383  0.0411
  174DOPC   O2221206   4.115   5.954  10.000 -0.3038 -0.1361  0.4520
  174DOPC   C2221207   3.878   5.971  10.035  0.0455  0.4551 -1.1349
  174DOPC   H2R21208   3.828   5.922   9.949 -2.3037  0.5692  0.0815
  174DOPC   H2S21209   3.805   6.049  10.066 -1.4872 -2.2153  2.6951
  174DOPC    C321210   4.164   6.342   9.977  0.2786  0.1756 -0.1456
  174DOPC    HX21211   4.085   6.403   9.928 -1.5183  0.8140  3.2467
  174DOPC    HY21212   4.267   6.375   9.951  0.6821  0.1552  1.3217
  174DOPC   O3121213   4.149   6.344  10.119  0.2369  0.2484 -0.5856
  174DOPC   C3121214   4.252   6.295  10.188 -0.3926  0.0399 -0.1313
  174DOPC   O3221215   4.354   6.252  10.142  0.2854  0.5099  0.6150
  174DOPC   C3221216   4.207   6.273  10.339 -0.1495 -0.2786  0.5612
  174DOPC   H2X21217   4.130   6.350  10.358  0.7873  0.4617  1.4876
  174DOPC   H2Y21218   4.161   6.172  10.338 -0.0061 -0.3656 -1.4292
  174DOPC   C2321219   3.888   5.881  10.167 -0.3105  0.2566  0.4670
  174DOPC   H3R21220   3.955   5.797  10.138  0.1216  1.2135 -1.5233
  174DOPC   H3S21221   3.791   5.843  10.205 -0.1331 -0.8765 -0.1842
  174DOPC   C2421222   3.949   5.948  10.288 -0.2785 -0.0574  0.7039
  174DOPC   H4R21223   3.895   6.044  10.282  0.1824  0.1245 -0.9017
  174DOPC   H4S21224   4.051   5.976  10.252 -1.3542  0.3157 -2.3068
  174DOPC   C2521225   3.943   5.874  10.423 -0.0115  0.3203 -0.4482
  174DOPC   H5R21226   4.002   5.780  10.419 -0.7559 -0.1691 -0.1963
  174DOPC   H5S21227   3.839   5.840  10.444 -0.3502  1.7995  0.3640
  174DOPC   C2621228   3.991   5.964  10.544 -0.2507  0.0270  0.4285
  174DOPC   H6R21229   3.914   6.040  10.569 -1.4018 -1.5278  1.9033
  174DOPC   H6S21230   4.093   6.005  10.528 -0.4254  0.4681  0.4396
  174DOPC   C2721231   4.011   5.883  10.671 -0.7234  0.2126 -0.5781
  174DOPC   H7R21232   4.061   5.783  10.664  0.4054  0.6738  0.4342
  174DOPC   H7S21233   3.913   5.855  10.715  1.0976 -1.2912  2.9497
  174DOPC   C2821234   4.079   5.965  10.775 -0.7766  0.6933  0.1383
  174DOPC   H8R21235   4.010   6.047  10.800  0.1044  0.8872  2.1265
  174DOPC   H8S21236   4.167   6.018  10.733 -1.8781  3.0262  0.6234
  174DOPC   C2921237   4.127   5.866  10.886  0.0496  0.0667  0.0984
  174DOPC   H9R21238   4.233   5.836  10.877  0.1038  0.2485  0.1265
  174DOPC  C21021239   4.055   5.820  10.990 -0.1455  0.7128  0.3822
  174DOPC  H10R21240   4.101   5.740  11.049  0.4321  0.6497 -0.1509
  174DOPC  C21121241   3.901   5.824  11.010 -0.7553 -0.1716  0.0058
  174DOPC  H11R21242   3.856   5.722  11.007 -0.0649 -0.5856  2.1916
  174DOPC  H11S21243   3.839   5.882  10.938  0.6347  2.7635  1.0391
  174DOPC  C21221244   3.868   5.879  11.150 -0.0761 -0.0256  0.5421
  174DOPC  H12R21245   3.758   5.892  11.152 -0.1070  0.0286 -0.9005
  174DOPC  H12S21246   3.912   5.981  11.158 -1.6100  0.6829  0.1715
  174DOPC  C21321247   3.904   5.783  11.267 -0.3280 -0.7680  0.0874
  174DOPC  H13R21248   4.013   5.779  11.289 -0.3821  0.8714  0.7889
  174DOPC  H13S21249   3.871   5.679  11.243  1.3688 -1.4179  0.4096
  174DOPC  C21421250   3.849   5.837  11.402 -0.4278 -0.2324 -0.0991
  174DOPC  H14R21251   3.854   5.762  11.485 -0.6255  0.4812  0.5696
  174DOPC  H14S21252   3.741   5.857  11.385  0.1463  0.1258 -4.2313
  174DOPC  C21521253   3.905   5.970  11.444  0.1403 -0.0318  0.1699
  174DOPC  H15R21254   3.827   6.048  11.432  0.2160  0.2392  1.3365
  174DOPC  H15S21255   3.995   6.005  11.389  0.1079 -1.2066 -0.6758
  174DOPC  C21621256   3.946   5.967  11.596  0.5016  0.2592 -0.0136
  174DOPC  H16R21257   4.020   5.885  11.597  2.2416  1.6515 -2.4387
  174DOPC  H16S21258   3.854   5.953  11.656 -0.1761  0.5638 -0.9530
  174DOPC  C21721259   4.010   6.099  11.651  0.2546  0.0851 -0.0462
  174DOPC  H17R21260   3.937   6.179  11.628  1.2738  1.0694  0.0388
  174DOPC  H17S21261   4.109   6.120  11.604  0.8546  0.6158  1.4005
  174DOPC  C21821262   4.056   6.102  11.794  0.0697 -0.1537  0.3028
  174DOPC  H18R21263   3.982   6.051  11.860 -0.1703  1.5939  1.4605
  174DOPC  H18S21264   4.090   6.203  11.827  0.1893 -0.2412  0.4464
  174DOPC  H18T21265   4.145   6.037  11.790 -0.0720 -0.2985 -0.8690
  174DOPC   C3321266   4.322   6.284  10.433  0.4967  0.3825 -0.3114
  174DOPC   H3X21267   4.376   6.381  10.426 -0.6038  0.9810 -0.6703
  174DOPC   H3Y21268   4.403   6.213  10.403 -0.5041 -2.0409  2.2810
  174DOPC   C3421269   4.287   6.266  10.577  0.0017 -0.2870  0.3947
  174DOPC   H4X21270   4.213   6.185  10.592 -1.2296  0.7942  0.4010
  174DOPC   H4Y21271   4.230   6.357  10.606  2.0540  1.5184 -0.8473
  174DOPC   C3521272   4.409   6.265  10.672 -0.4168 -0.7416 -0.3897
  174DOPC   H5X21273   4.474   6.354  10.656  0.3479 -1.6285 -2.5981
  174DOPC   H5Y21274   4.467   6.181  10.628  1.5204  0.3478 -0.0504
  174DOPC   C3621275   4.369   6.231  10.822 -0.4419 -0.7163  0.4282
  174DOPC   H6X21276   4.321   6.325  10.858  1.3091  0.5731 -0.4632
  174DOPC   H6Y21277   4.300   6.144  10.819 -3.1129  1.2347  1.4754
  174DOPC   C3721278   4.494   6.191  10.897  0.0234  0.8394 -0.3890
  174DOPC   H7X21279   4.558   6.113  10.851 -0.0895 -1.7911  3.4482
  174DOPC   H7Y21280   4.561   6.279  10.892 -0.3842  1.1355 -0.8771
  174DOPC   C3821281   4.477   6.155  11.052 -0.5386  0.3684  0.4453
  174DOPC   H8X21282   4.456   6.252  11.102 -1.3848  0.3736  0.0995
  174DOPC   H8Y21283   4.577   6.124  11.090 -1.4790 -1.9584  1.2042
  174DOPC   C3921284   4.372   6.060  11.085 -0.2053 -0.3557  0.6350
  174DOPC   H9X21285   4.354   5.986  11.005  1.5548  2.9108 -3.0852
  174DOPC  C31021286   4.306   6.052  11.201  0.0553  0.2070 -0.0896
  174DOPC  H10X21287   4.238   5.966  11.208  0.8466 -0.3123  1.6804
  174DOPC  C31121288   4.321   6.127  11.328 -0.2210  0.0119  0.3388
  174DOPC  H11X21289   4.227   6.134  11.386  0.1209 -1.9287  1.2359
  174DOPC  H11Y21290   4.348   6.232  11.308  1.6136 -0.2243  1.3441
  174DOPC  C31221291   4.437   6.082  11.429  0.0137  0.3787  0.3186
  174DOPC  H12X21292   4.525   6.040  11.375  0.7456  1.6286  0.4771
  174DOPC  H12Y21293   4.397   5.989  11.473 -0.2661 -0.0363 -0.7914
  174DOPC  C31321294   4.474   6.176  11.544  0.7747  0.5430  0.2048
  174DOPC  H13X21295   4.548   6.244  11.497  0.7937 -0.9702 -2.0886
  174DOPC  H13Y21296   4.387   6.244  11.558  0.4101  0.7885 -2.6692
  174DOPC  C31421297   4.504   6.105  11.675  0.2056  0.4084  0.2634
  174DOPC  H14X21298   4.430   6.035  11.720  1.2158 -1.3638 -0.7018
  174DOPC  H14Y21299   4.588   6.039  11.646  1.5252  1.0580  2.3893
  174DOPC  C31521300   4.560   6.193  11.788 -0.2145 -0.1505  0.0641
  174DOPC  H15X21301   4.650   6.252  11.763  0.0912 -0.0661  1.3102
  174DOPC  H15Y21302   4.602   6.121  11.861 -1.2770 -2.0001 -1.0662
  174DOPC  C31621303   4.443   6.278  11.852  0.7319  0.2675 -0.0533
  174DOPC  H16X21304   4.431   6.376  11.802  0.5640  0.5608  0.5609
  174DOPC  H16Y21305   4.349   6.221  11.833  1.1579 -0.3959 -0.2239
  174DOPC  C31721306   4.468   6.305  11.996  0.1305 -0.5471 -0.7722
  174DOPC  H17X21307   4.474   6.209  12.053  0.9163  1.2543  2.4403
  174DOPC  H17Y21308   4.566   6.356  11.998 -0.3127  0.3915  2.2112
  174DOPC  C31821309   4.357   6.399  12.052  0.4349 -0.6949  0.7115
  174DOPC  H18X21310   4.265   6.344  12.079 -0.7876  0.7000 -0.4602
  174DOPC  H18Y21311   4.387   6.449  12.147  0.2844 -1.7133  1.3151
  174DOPC  H18Z21312   4.338   6.480  11.978 -0.8683  2.2928  4.0159
  175DOPC     N21313   1.761   3.268   9.600 -0.1114 -0.5410  0.0717
  175DOPC   C1221314   1.697   3.352   9.707 -0.4006 -0.1419  0.2597
  175DOPC  H12A21315   1.652   3.284   9.776 -3.0843  0.8349 -0.4007
  175DOPC  H12B21316   1.615   3.404   9.659 -1.9208 -2.3534  0.3216
  175DOPC   C1321317   1.856   3.170   9.655  0.1365  0.0263  0.4735
  175DOPC  H13A21318   1.944   3.227   9.681  0.0304 -1.1733  3.8759
  175DOPC  H13B21319   1.818   3.138   9.751 -1.6532  2.8919  0.8290
  175DOPC  H13C21320   1.885   3.098   9.580 -0.8893 -1.4712  1.4820
  175DOPC   C1421321   1.820   3.362   9.501 -0.3198 -0.0162 -0.4393
  175DOPC  H14A21322   1.747   3.433   9.467 -1.2401 -1.0095 -0.5904
  175DOPC  H14B21323   1.908   3.418   9.526 -2.1055  2.6829  0.1901
  175DOPC  H14C21324   1.847   3.302   9.415 -2.0013 -0.0490 -0.9840
  175DOPC   C1521325   1.659   3.174   9.532 -0.7105  0.0316 -0.7517
  175DOPC  H15A21326   1.612   3.110   9.606  2.6200 -1.6714  0.0927
  175DOPC  H15B21327   1.713   3.102   9.473 -2.2849 -3.3779  1.6122
  175DOPC  H15C21328   1.589   3.232   9.473 -0.1808  3.2155  1.5306
  175DOPC   C1121329   1.786   3.450   9.788  0.3841 -0.4061 -0.1899
  175DOPC  H11A21330   1.849   3.502   9.713 -1.5074 -0.2854 -1.7896
  175DOPC  H11B21331   1.722   3.514   9.852 -0.4302 -2.2341  0.8944
  175DOPC     P21332   1.810   3.299   9.992 -0.4845 -0.0962  0.0518
  175DOPC   O1321333   1.917   3.268  10.090 -0.3679  0.3139  0.1964
  175DOPC   O1421334   1.736   3.188   9.939 -0.1097  0.4670  0.2628
  175DOPC   O1221335   1.879   3.375   9.868 -0.2177  0.1754  0.1972
  175DOPC   O1121336   1.699   3.396  10.051 -0.0366 -0.1802  0.2000
  175DOPC    C121337   1.735   3.518  10.120 -0.9142  0.0872  0.0174
  175DOPC    HA21338   1.703   3.594  10.045 -2.0775 -1.5587 -1.2521
  175DOPC    HB21339   1.845   3.527  10.121 -0.9079  0.6163 -1.8904
  175DOPC    C221340   1.680   3.530  10.267  0.6456  0.2151 -0.1933
  175DOPC    HS21341   1.739   3.469  10.339  1.0266  0.8079  0.0040
  175DOPC   O2121342   1.542   3.489  10.256  0.1856 -0.3013  0.1476
  175DOPC   C2121343   1.530   3.360  10.252 -0.0158  0.5075  0.3526
  175DOPC   O2221344   1.606   3.273  10.291 -0.4479 -0.3560 -0.1219
  175DOPC   C2221345   1.386   3.332  10.219  0.1356  0.2653 -0.1326
  175DOPC   H2R21346   1.377   3.252  10.142 -0.2144 -0.9051  1.0998
  175DOPC   H2S21347   1.331   3.418  10.174 -0.2648  0.0183 -0.1201
  175DOPC    C321348   1.696   3.674  10.332 -0.0724 -0.3665  0.3076
  175DOPC    HX21349   1.661   3.745  10.255  1.2072  2.7511  2.4103
  175DOPC    HY21350   1.800   3.705  10.354 -0.1286  1.8569 -2.1294
  175DOPC   O3121351   1.619   3.690  10.454 -1.1286  0.0663  0.1931
  175DOPC   C3121352   1.669   3.638  10.563 -0.1781  0.2450  0.1063
  175DOPC   O3221353   1.774   3.584  10.568 -0.4860 -0.2482 -0.2031
  175DOPC   C3221354   1.570   3.645  10.684 -0.0661 -0.7591 -0.5934
  175DOPC   H2X21355   1.565   3.750  10.722 -0.8262 -0.6612 -0.9334
  175DOPC   H2Y21356   1.468   3.625  10.643 -0.2023 -0.3490 -0.4642
  175DOPC   C2321357   1.296   3.281  10.340 -0.4164 -0.0983  0.3054
  175DOPC   H3R21358   1.360   3.207  10.394  1.7943  0.9606 -0.7122
  175DOPC   H3S21359   1.211   3.227  10.293  1.4477 -1.1810 -2.0647
  175DOPC   C2421360   1.266   3.398  10.437 -0.4608  0.0814 -0.0394
  175DOPC   H4R21361   1.237   3.491  10.384 -1.3519  0.5929  1.2969
  175DOPC   H4S21362   1.360   3.437  10.483 -0.2140 -1.2725  0.6798
  175DOPC   C2521363   1.168   3.360  10.540  0.1596 -0.4437 -0.2143
  175DOPC   H5R21364   1.207   3.292  10.619  0.3589 -2.2522 -1.8079
  175DOPC   H5S21365   1.075   3.319  10.495 -1.0645 -0.5056  2.1735
  175DOPC   C2621366   1.112   3.485  10.616 -0.0236  0.5516  0.0641
  175DOPC   H6R21367   1.069   3.559  10.546 -1.8735 -0.9055 -0.4454
  175DOPC   H6S21368   1.193   3.530  10.677  0.1543  1.2087 -0.6435
  175DOPC   C2721369   0.999   3.429  10.712 -0.0634  0.4246 -0.2817
  175DOPC   H7R21370   0.940   3.351  10.659 -1.5921  0.6991  0.9462
  175DOPC   H7S21371   0.923   3.508  10.732 -0.7605  0.2574 -2.0225
  175DOPC   C2821372   1.054   3.362  10.839 -0.8672  0.1100  0.2288
  175DOPC   H8R21373   1.142   3.297  10.820 -0.4114  0.2363  1.7649
  175DOPC   H8S21374   0.981   3.294  10.888  1.5401 -3.0317 -0.1846
  175DOPC   C2921375   1.104   3.456  10.950 -0.1052 -0.0921 -0.4204
  175DOPC   H9R21376   1.145   3.554  10.920 -0.7890  0.1197 -0.6869
  175DOPC  C21021377   1.099   3.429  11.084 -0.0771 -0.6208 -0.4137
  175DOPC  H10R21378   1.133   3.507  11.154 -0.2889 -1.8737  1.1443
  175DOPC  C21121379   1.033   3.317  11.162 -0.1427 -1.0964 -0.0245
  175DOPC  H11R21380   1.104   3.238  11.194  0.4335  0.4620  2.8796
  175DOPC  H11S21381   0.947   3.282  11.101 -0.0331 -0.8663 -0.3130
  175DOPC  C21221382   0.971   3.357  11.292 -0.3363 -0.5652  0.0867
  175DOPC  H12R21383   0.923   3.263  11.327  1.1447 -0.8647  1.4436
  175DOPC  H12S21384   0.884   3.424  11.280 -0.4013 -0.8141 -0.9432
  175DOPC  C21321385   1.072   3.396  11.399  0.1980  0.2091 -0.3344
  175DOPC  H13R21386   1.137   3.480  11.368  2.3091 -0.8448  0.9996
  175DOPC  H13S21387   1.134   3.308  11.428 -0.3129 -0.6612 -1.7256
  175DOPC  C21421388   1.002   3.438  11.529 -0.6834  0.0575 -0.3333
  175DOPC  H14R21389   0.931   3.363  11.570 -0.1573  0.2529  0.9834
  175DOPC  H14S21390   0.952   3.535  11.511  1.5855  1.8090  2.0492
  175DOPC  C21521391   1.112   3.463  11.627  0.1146  0.5141  0.0822
  175DOPC  H15R21392   1.162   3.558  11.598 -0.4997  0.8154 -0.0157
  175DOPC  H15S21393   1.197   3.393  11.618 -1.2472 -1.1922  0.0922
  175DOPC  C21621394   1.073   3.474  11.775  0.1415 -0.0753  0.5868
  175DOPC  H16R21395   1.168   3.497  11.829  0.3371 -0.3371  0.3570
  175DOPC  H16S21396   1.025   3.378  11.803 -0.0913  0.2116  1.1910
  175DOPC  C21721397   0.977   3.590  11.793 -0.0012  0.6043 -0.0363
  175DOPC  H17R21398   0.883   3.559  11.743  0.0082  0.3457  0.1037
  175DOPC  H17S21399   1.026   3.668  11.732  0.7529 -1.2708 -1.9584
  175DOPC  C21821400   0.953   3.636  11.945  0.6798  0.4902 -0.2598
  175DOPC  H18R21401   0.919   3.742  11.941  0.3866  0.4126  0.1680
  175DOPC  H18S21402   1.052   3.629  11.996  2.0270 -2.6184 -2.9137
  175DOPC  H18T21403   0.880   3.577  12.003 -1.5944  2.0190 -1.4140
  175DOPC   C3321404   1.623   3.557  10.798  0.2506  0.7316  0.9491
  175DOPC   H3X21405   1.713   3.605  10.842  0.4972 -0.6639  2.0189
  175DOPC   H3Y21406   1.657   3.457  10.762  3.0964  1.9770 -0.2040
  175DOPC   C3421407   1.513   3.520  10.901 -0.2511 -0.8411 -0.0716
  175DOPC   H4X21408   1.565   3.471  10.986 -1.5079  0.1591  1.3323
  175DOPC   H4Y21409   1.438   3.451  10.856 -0.7660  1.2267 -2.6205
  175DOPC   C3521410   1.433   3.643  10.954 -0.1573  0.2042  0.5216
  175DOPC   H5X21411   1.364   3.682  10.877  0.1267 -1.3664 -0.5715
  175DOPC   H5Y21412   1.499   3.732  10.970  0.2191 -0.1272  0.8427
  175DOPC   C3621413   1.395   3.611  11.099 -0.3809  1.2128 -0.5742
  175DOPC   H6X21414   1.291   3.644  11.118 -1.9566 -2.9058 -0.9756
  175DOPC   H6Y21415   1.390   3.501  11.110 -1.3848  1.2969 -0.1384
  175DOPC   C3721416   1.489   3.680  11.192 -0.4249  0.5920 -0.3600
  175DOPC   H7X21417   1.594   3.645  11.187 -0.4193  0.6605 -0.8405
  175DOPC   H7Y21418   1.508   3.784  11.159  1.9300 -0.1443 -1.5831
  175DOPC   C3821419   1.429   3.682  11.341 -0.1963  0.4665  0.6714
  175DOPC   H8X21420   1.323   3.714  11.329 -0.3198 -0.6961 -2.3988
  175DOPC   H8Y21421   1.486   3.752  11.406 -0.8824  1.3009  0.3928
  175DOPC   C3921422   1.423   3.545  11.395  0.3958 -0.2245 -0.2736
  175DOPC   H9X21423   1.372   3.466  11.338  3.4006 -3.1008  0.7260
  175DOPC  C31021424   1.460   3.504  11.518 -0.0921  0.6967 -0.2829
  175DOPC  H10X21425   1.438   3.399  11.539 -1.7179  0.8493 -1.0934
  175DOPC  C31121426   1.527   3.579  11.629  1.0086  0.4611  0.0604
  175DOPC  H11X21427   1.552   3.683  11.600  1.1261  0.2491 -0.5983
  175DOPC  H11Y21428   1.609   3.523  11.679  0.3860 -0.2325  0.3242
  175DOPC  C31221429   1.428   3.576  11.748  0.1294  0.1708 -0.3295
  175DOPC  H12X21430   1.401   3.471  11.771  2.1702  0.0846  2.2298
  175DOPC  H12Y21431   1.338   3.625  11.705  1.4862  2.6219 -0.5709
  175DOPC  C31321432   1.464   3.665  11.870 -0.1663 -0.0436 -0.9056
  175DOPC  H13X21433   1.555   3.613  11.906  0.2498  0.6507 -0.9391
  175DOPC  H13Y21434   1.472   3.769  11.834 -1.3737  0.8301  1.1604
  175DOPC  C31421435   1.353   3.669  11.972  0.0436 -0.6490 -0.2778
  175DOPC  H14X21436   1.264   3.717  11.926 -0.3212 -0.7337  0.3246
  175DOPC  H14Y21437   1.316   3.570  12.007 -2.4459  0.3612  0.1199
  175DOPC  C31521438   1.399   3.750  12.097 -0.4151  0.0926  0.2870
  175DOPC  H15X21439   1.426   3.850  12.056 -0.3011  0.1743  0.5577
  175DOPC  H15Y21440   1.492   3.713  12.145 -0.5297 -0.5768 -0.0055
  175DOPC  C31621441   1.287   3.783  12.193 -0.2819  0.1798  0.1875
  175DOPC  H16X21442   1.200   3.821  12.135 -0.1561  0.0183 -0.1086
  175DOPC  H16Y21443   1.260   3.688  12.244 -0.2669 -0.0927 -0.3011
  175DOPC  C31721444   1.332   3.884  12.305 -0.7135  0.1921 -0.8258
  175DOPC  H17X21445   1.376   3.978  12.264  1.5392 -0.4127  0.0419
  175DOPC  H17Y21446   1.235   3.923  12.343 -0.6247 -0.9477  0.6694
  175DOPC  C31821447   1.411   3.812  12.412  0.0658  0.0460  0.0356
  175DOPC  H18X21448   1.349   3.730  12.455  1.6398 -1.5815 -0.6855
  175DOPC  H18Y21449   1.505   3.770  12.371  1.3017  3.5629 -1.0387
  175DOPC  H18Z21450   1.439   3.875  12.499 -0.8563 -0.1439  0.4883
  176DOPC     N21451   3.482   4.915   9.798  0.2326 -0.8182  0.1650
  176DOPC   C1221452   3.366   4.986   9.728 -0.1515  0.3523 -0.0188
  176DOPC  H12A21453   3.403   5.068   9.668  0.1164  0.7299  0.6559
  176DOPC  H12B21454   3.305   5.034   9.803  0.2718  2.2708 -0.8595
  176DOPC   C1321455   3.552   4.829   9.701 -0.3864  0.1350 -0.1245
  176DOPC  H13A21456   3.571   4.888   9.612 -1.0710  2.0930  0.9632
  176DOPC  H13B21457   3.644   4.783   9.736 -0.7671 -1.6051 -1.2951
  176DOPC  H13C21458   3.483   4.753   9.668  1.6816 -1.8636 -0.1220
  176DOPC   C1421459   3.424   4.838   9.911  0.9969 -0.7715  0.2097
  176DOPC  H14A21460   3.501   4.801   9.977  1.2077 -0.7952 -0.0479
  176DOPC  H14B21461   3.356   4.902   9.966  0.9747 -0.5718 -0.0426
  176DOPC  H14C21462   3.367   4.755   9.872  1.3818 -0.9414  0.0072
  176DOPC   C1521463   3.584   5.018   9.851  0.3524 -0.1456 -0.3043
  176DOPC  H15A21464   3.528   5.085   9.915 -1.3278 -2.0994  0.3911
  176DOPC  H15B21465   3.639   5.064   9.770 -0.0332  1.9570  0.5746
  176DOPC  H15C21466   3.659   4.965   9.908  1.1069 -0.3384 -1.4308
  176DOPC   C1121467   3.260   4.901   9.650 -0.5573  0.1772  0.3619
  176DOPC  H11A21468   3.208   4.964   9.575 -3.1145 -0.7378  1.2620
  176DOPC  H11B21469   3.309   4.826   9.585 -0.3750  1.3163 -0.8384
  176DOPC     P21470   3.071   4.736   9.667 -0.5709 -0.2838  0.1339
  176DOPC   O1321471   3.132   4.643   9.571  0.1470  0.4526  0.1451
  176DOPC   O1421472   2.955   4.809   9.608  0.1699  0.0130 -0.8406
  176DOPC   O1221473   3.172   4.830   9.739  0.4061 -0.2262  0.5464
  176DOPC   O1121474   3.004   4.645   9.780 -0.8381 -0.0939 -0.1987
  176DOPC    C121475   3.035   4.657   9.920 -0.4389 -0.0510 -0.8029
  176DOPC    HA21476   3.086   4.752   9.946 -1.5364  0.2221  0.4448
  176DOPC    HB21477   3.105   4.576   9.949 -1.3995 -0.5858  0.0612
  176DOPC    C221478   2.910   4.635  10.001  0.5247 -0.4896 -0.3512
  176DOPC    HS21479   2.852   4.549   9.961  2.3608 -1.0594 -1.9494
  176DOPC   O2121480   2.832   4.759   9.983  0.3052 -0.3164 -0.3634
  176DOPC   C2121481   2.702   4.754  10.021 -0.3234  1.0316  0.2330
  176DOPC   O2221482   2.634   4.647  10.031  0.1550  0.1678  0.5106
  176DOPC   C2221483   2.651   4.893  10.045 -0.1604 -0.0073  0.3407
  176DOPC   H2R21484   2.589   4.926   9.959  0.9590 -0.0961 -0.5253
  176DOPC   H2S21485   2.742   4.955  10.045  0.9547 -1.4788 -2.2834
  176DOPC    C321486   2.939   4.611  10.150  0.1339 -0.2967 -0.1652
  176DOPC    HX21487   3.022   4.676  10.185 -0.7261  0.5258  0.3724
  176DOPC    HY21488   2.988   4.511  10.151  1.3977  0.2140 -2.4432
  176DOPC   O3121489   2.825   4.632  10.239 -0.2937 -0.4652 -0.2634
  176DOPC   C3121490   2.761   4.524  10.273 -0.3026 -0.2109  0.3469
  176DOPC   O3221491   2.781   4.412  10.230 -0.0331  0.0485 -0.3516
  176DOPC   C3221492   2.662   4.553  10.380  0.5787 -0.1798 -0.6766
  176DOPC   H2X21493   2.585   4.626  10.348  0.6898  1.3903  2.2419
  176DOPC   H2Y21494   2.613   4.455  10.397  0.6149 -0.3241 -1.4054
  176DOPC   C2321495   2.577   4.906  10.178 -0.1039  0.5573 -0.0968
  176DOPC   H3R21496   2.638   4.853  10.253  0.8990  1.3994 -0.2794
  176DOPC   H3S21497   2.483   4.849  10.168  0.5091 -0.6417  0.6902
  176DOPC   C2421498   2.529   5.044  10.216  0.2335  0.3125  0.4329
  176DOPC   H4R21499   2.459   5.084  10.139 -0.0869  0.9277  1.0267
  176DOPC   H4S21500   2.608   5.122  10.212 -1.1548  1.7262 -1.8291
  176DOPC   C2521501   2.474   5.059  10.362 -0.6536  0.1871 -0.1514
  176DOPC   H5R21502   2.386   4.995  10.383  0.2416 -0.7144  1.0092
  176DOPC   H5S21503   2.441   5.165  10.369 -1.2072  0.1066 -1.4379
  176DOPC   C2621504   2.588   5.038  10.472 -0.3568 -0.0641 -0.1996
  176DOPC   H6R21505   2.669   5.109  10.445 -1.0540  0.4014 -1.1529
  176DOPC   H6S21506   2.617   4.932  10.460 -0.7947 -0.1723 -0.3344
  176DOPC   C2721507   2.517   5.079  10.604 -0.1988  0.4947 -0.1249
  176DOPC   H7R21508   2.410   5.051  10.604 -0.1141  0.1629  0.1233
  176DOPC   H7S21509   2.519   5.189  10.618 -0.4223  0.2693  1.9415
  176DOPC   C2821510   2.573   5.021  10.739 -0.5376  0.6156 -0.5813
  176DOPC   H8R21511   2.672   5.061  10.769  0.8031 -1.6262 -1.7484
  176DOPC   H8S21512   2.584   4.912  10.722 -2.6190  0.3618 -0.6107
  176DOPC   C2921513   2.483   5.043  10.852  0.0225  0.1850  0.1715
  176DOPC   H9R21514   2.468   5.147  10.884 -1.6253  0.1842 -0.5117
  176DOPC  C21021515   2.437   4.955  10.942 -0.6236 -0.1166 -0.2400
  176DOPC  H10R21516   2.356   4.989  11.008 -1.2542 -2.1967  0.1026
  176DOPC  C21121517   2.454   4.806  10.947  0.0787 -0.6920 -0.2766
  176DOPC  H11R21518   2.527   4.776  10.869  0.5941 -0.3874  0.0796
  176DOPC  H11S21519   2.351   4.769  10.927 -1.0376  2.0257 -0.0619
  176DOPC  C21221520   2.515   4.738  11.070 -0.3533  0.0019 -0.1193
  176DOPC  H12R21521   2.588   4.810  11.111 -0.1567  0.5996 -1.4634
  176DOPC  H12S21522   2.581   4.652  11.045  2.4161  1.8344  0.4345
  176DOPC  C21321523   2.413   4.693  11.187  0.7415  0.0089  0.1792
  176DOPC  H13R21524   2.335   4.633  11.135  0.4854 -0.8156  1.4683
  176DOPC  H13S21525   2.362   4.784  11.225 -0.5506 -0.5863 -0.0618
  176DOPC  C21421526   2.465   4.610  11.304 -0.0096  0.5166  0.6845
  176DOPC  H14R21527   2.549   4.656  11.360 -0.0558 -0.5326  1.6732
  176DOPC  H14S21528   2.502   4.513  11.265  0.5097  0.9913 -0.0207
  176DOPC  C21521529   2.353   4.599  11.412 -0.0026 -0.1221  0.0822
  176DOPC  H15R21530   2.375   4.515  11.482 -3.1848 -1.2451 -0.1043
  176DOPC  H15S21531   2.260   4.573  11.356  1.4837 -2.7597 -1.3120
  176DOPC  C21621532   2.343   4.729  11.494 -0.5254  0.3659 -0.4832
  176DOPC  H16R21533   2.290   4.812  11.442 -1.8199  2.1767  3.3323
  176DOPC  H16S21534   2.446   4.752  11.530  0.8964  0.3487 -4.1179
  176DOPC  C21721535   2.253   4.710  11.617  0.0153  0.6875  0.1409
  176DOPC  H17R21536   2.307   4.637  11.681 -1.9609 -0.4686  0.5666
  176DOPC  H17S21537   2.156   4.660  11.597 -0.6517  1.1535  2.0752
  176DOPC  C21821538   2.216   4.839  11.683 -0.5847  0.4776 -0.7916
  176DOPC  H18R21539   2.301   4.904  11.712  0.5684 -0.3882 -2.1412
  176DOPC  H18S21540   2.153   4.830  11.775  1.8010  1.3677  1.0337
  176DOPC  H18T21541   2.162   4.902  11.609  0.4539  2.0564 -0.2592
  176DOPC   C3321542   2.721   4.592  10.512 -0.6046  0.1749 -0.1490
  176DOPC   H3X21543   2.778   4.686  10.492  0.1608 -0.1855  0.2831
  176DOPC   H3Y21544   2.786   4.510  10.549 -3.1074 -1.4669  0.8933
  176DOPC   C3421545   2.622   4.614  10.621 -0.1637  0.5095  0.0704
  176DOPC   H4X21546   2.541   4.684  10.592 -1.5693 -0.6291  1.1003
  176DOPC   H4Y21547   2.669   4.661  10.710  2.5910  0.8917 -1.4727
  176DOPC   C3521548   2.569   4.477  10.662  0.5285  0.1479 -0.0665
  176DOPC   H5X21549   2.648   4.402  10.683 -0.1564  0.1129  2.7028
  176DOPC   H5Y21550   2.499   4.423  10.594  0.2436 -0.1943  0.4890
  176DOPC   C3621551   2.485   4.481  10.789  0.3695 -0.3994  0.2368
  176DOPC   H6X21552   2.550   4.502  10.876  1.0497 -1.1791 -0.0759
  176DOPC   H6Y21553   2.410   4.563  10.777  2.9022  2.2455  1.2936
  176DOPC   C3721554   2.407   4.345  10.813 -0.1918  0.1719  1.0603
  176DOPC   H7X21555   2.349   4.319  10.721 -0.2940  1.0460  0.8710
  176DOPC   H7Y21556   2.494   4.277  10.827  1.8779  2.1387 -1.1877
  176DOPC   C3821557   2.313   4.353  10.928  0.1213 -0.2986  0.5116
  176DOPC   H8X21558   2.241   4.433  10.900 -0.2545  0.5599  3.5751
  176DOPC   H8Y21559   2.360   4.404  11.015 -1.8782  1.3301  0.7088
  176DOPC   C3921560   2.251   4.219  10.954  0.5342 -0.8127 -0.2622
  176DOPC   H9X21561   2.180   4.188  10.875  3.1047 -1.3341 -2.5087
  176DOPC  C31021562   2.259   4.141  11.060 -0.7445 -0.1510  0.4913
  176DOPC  H10X21563   2.230   4.035  11.057  1.9219 -0.9976  1.7718
  176DOPC  C31121564   2.354   4.182  11.171  0.2983 -0.6619  0.2137
  176DOPC  H11X21565   2.383   4.289  11.176 -2.5593  0.2687 -0.6674
  176DOPC  H11Y21566   2.449   4.124  11.164  1.0847  0.6201  0.0089
  176DOPC  C31221567   2.291   4.151  11.314 -0.3312 -0.4948 -0.2536
  176DOPC  H12X21568   2.259   4.044  11.318 -0.7678 -0.5160 -2.6758
  176DOPC  H12Y21569   2.203   4.217  11.326  1.1852  1.3072  1.7797
  176DOPC  C31321570   2.383   4.192  11.431 -0.0037  0.0269  1.0155
  176DOPC  H13X21571   2.484   4.146  11.436  1.1387  2.0403 -1.2977
  176DOPC  H13Y21572   2.396   4.302  11.418  3.0085 -0.4774 -1.3365
  176DOPC  C31421573   2.311   4.166  11.568 -0.4503 -0.0300  0.6022
  176DOPC  H14X21574   2.253   4.071  11.563  1.2313 -1.0490 -0.2033
  176DOPC  H14Y21575   2.375   4.176  11.658  1.1077 -0.1414 -0.4583
  176DOPC  C31521576   2.206   4.273  11.587 -0.7280 -0.3301  0.3570
  176DOPC  H15X21577   2.102   4.241  11.563  0.4833 -2.3171 -3.0697
  176DOPC  H15Y21578   2.225   4.353  11.512 -1.6081 -0.1197  0.3434
  176DOPC  C31621579   2.222   4.345  11.724 -0.2143  0.9447  0.1321
  176DOPC  H16X21580   2.327   4.375  11.746  0.5683 -1.3269 -0.2401
  176DOPC  H16Y21581   2.151   4.430  11.736 -2.1075 -0.3064 -1.5065
  176DOPC  C31721582   2.185   4.250  11.838  0.2916 -0.2896 -0.2897
  176DOPC  H17X21583   2.093   4.197  11.807 -0.5601  0.5658  0.7130
  176DOPC  H17Y21584   2.270   4.179  11.852  1.7079  1.1994 -0.9021
  176DOPC  C31821585   2.154   4.316  11.975 -0.5169  0.0124 -0.8699
  176DOPC  H18X21586   2.235   4.377  12.020 -1.4294  0.0769  0.7606
  176DOPC  H18Y21587   2.054   4.365  11.980 -1.8069 -2.5453  0.3552
  176DOPC  H18Z21588   2.148   4.233  12.048 -0.4860  0.7511 -0.0131
  177DOPC     N21589   2.993   2.507  10.103 -0.3825 -0.0274  0.8302
  177DOPC   C1221590   2.977   2.386  10.191  0.4264 -0.6467 -0.1433
  177DOPC  H12A21591   2.895   2.324  10.157 -0.3977 -1.0218  2.3369
  177DOPC  H12B21592   2.936   2.419  10.285  0.0444 -0.3753 -0.4026
  177DOPC   C1321593   3.021   2.459   9.963 -0.0970 -0.5102 -0.5263
  177DOPC  H13A21594   2.933   2.409   9.925 -0.9379 -0.2009  0.9094
  177DOPC  H13B21595   3.056   2.545   9.908 -2.4958  0.5255 -0.5382
  177DOPC  H13C21596   3.096   2.382   9.972 -0.5919 -1.3610 -3.1302
  177DOPC   C1421597   3.103   2.602  10.142  0.5549 -0.3731 -0.2531
  177DOPC  H14A21598   3.111   2.692  10.084  0.8592  0.9576  1.7719
  177DOPC  H14B21599   3.088   2.628  10.245 -1.7733 -0.2667 -0.5610
  177DOPC  H14C21600   3.198   2.551  10.129 -0.9367 -4.3843  2.5122
  177DOPC   C1521601   2.869   2.591  10.108  0.0245 -0.2730  0.1013
  177DOPC  H15A21602   2.877   2.684  10.055  0.1927 -0.1580  0.3286
  177DOPC  H15B21603   2.845   2.627  10.207  0.3217 -1.4470  0.6239
  177DOPC  H15C21604   2.779   2.546  10.071  0.0108  0.5129 -0.8433
  177DOPC   C1121605   3.102   2.299  10.214 -0.2865  0.2345 -0.2787
  177DOPC  H11A21606   3.192   2.365  10.210  0.1193 -0.2815  0.2405
  177DOPC  H11B21607   3.085   2.253  10.313 -2.3662  1.4153 -0.0269
  177DOPC     P21608   3.045   2.069  10.118 -0.2473 -0.0883 -0.1756
  177DOPC   O1321609   3.049   2.011   9.985  0.8796 -0.0634 -0.0984
  177DOPC   O1421610   2.910   2.091  10.180 -0.4065 -0.1113 -0.0913
  177DOPC   O1221611   3.121   2.203  10.115  0.0933  0.2487  0.0753
  177DOPC   O1121612   3.133   1.980  10.215  0.4246  0.6081  0.4804
  177DOPC    C121613   3.276   1.979  10.206  0.2053  0.1706  0.1717
  177DOPC    HA21614   3.319   2.081  10.193  0.1111  0.0198 -1.4091
  177DOPC    HB21615   3.309   1.919  10.119 -0.8294  0.1376 -0.2130
  177DOPC    C221616   3.349   1.932  10.343 -0.6251 -0.2859  0.5809
  177DOPC    HS21617   3.330   1.823  10.356 -0.5113 -0.3287  0.4021
  177DOPC   O2121618   3.308   2.003  10.455  0.2362  0.2707  0.4306
  177DOPC   C2121619   3.193   1.968  10.512  0.0392  0.1995  0.6427
  177DOPC   O2221620   3.135   1.862  10.496 -0.2680  0.0738  0.2771
  177DOPC   C2221621   3.129   2.094  10.576  0.8687 -0.0553  0.4960
  177DOPC   H2R21622   3.030   2.062  10.616 -0.1488  0.1073 -1.7019
  177DOPC   H2S21623   3.102   2.166  10.495  1.9920 -1.8855 -1.6310
  177DOPC    C321624   3.507   1.946  10.315 -0.2233  0.5113 -0.9071
  177DOPC    HX21625   3.526   2.055  10.316  0.1372  0.4435 -0.2333
  177DOPC    HY21626   3.536   1.915  10.212  0.8828 -0.2125 -0.3918
  177DOPC   O3121627   3.571   1.877  10.418 -0.2165  0.5447  0.5234
  177DOPC   C3121628   3.590   1.742  10.416  0.3563 -0.6076 -0.3080
  177DOPC   O3221629   3.537   1.667  10.340 -0.1014 -0.5910  0.0923
  177DOPC   C3221630   3.656   1.695  10.539 -0.0772  0.2101 -0.0506
  177DOPC   H2X21631   3.718   1.606  10.515 -2.0588 -1.7518  1.6986
  177DOPC   H2Y21632   3.722   1.780  10.565  1.3466 -0.6036 -0.9133
  177DOPC   C2321633   3.220   2.142  10.688  0.2128 -0.4608 -0.0840
  177DOPC   H3R21634   3.174   2.232  10.734 -0.3461 -0.7861  0.0099
  177DOPC   H3S21635   3.321   2.178  10.661  0.3084 -0.1551  0.6695
  177DOPC   C2421636   3.228   2.035  10.799 -0.2953 -0.4585  0.7560
  177DOPC   H4R21637   3.322   1.981  10.777 -0.3001  0.1905 -1.0085
  177DOPC   H4S21638   3.137   1.971  10.802 -0.6533  0.0313  0.5180
  177DOPC   C2521639   3.247   2.101  10.940  0.3354  0.5908  0.6256
  177DOPC   H5R21640   3.165   2.171  10.968  0.1103  0.4741  0.2636
  177DOPC   H5S21641   3.337   2.166  10.934  0.5162  0.2160 -1.4593
  177DOPC   C2621642   3.277   1.995  11.052 -0.2228 -0.6005 -0.2042
  177DOPC   H6R21643   3.338   1.912  11.011 -1.0277 -0.3668 -1.9464
  177DOPC   H6S21644   3.183   1.946  11.087 -0.6945  0.0997 -0.4703
  177DOPC   C2721645   3.350   2.052  11.174  0.1514 -0.1203 -0.3159
  177DOPC   H7R21646   3.418   2.130  11.135  0.7403 -0.2726  0.3789
  177DOPC   H7S21647   3.412   1.970  11.215 -0.0319  0.3932  1.0806
  177DOPC   C2821648   3.257   2.131  11.265 -0.3650  0.1751  0.3083
  177DOPC   H8R21649   3.213   2.205  11.195  1.5095  1.5964  0.5381
  177DOPC   H8S21650   3.312   2.189  11.341  0.4353 -1.2206  0.8300
  177DOPC   C2921651   3.144   2.047  11.321  0.1746  0.2298  0.1299
  177DOPC   H9R21652   3.077   2.010  11.242  0.6041  1.7561 -0.9960
  177DOPC  C21021653   3.138   2.004  11.441  0.1110 -0.2874 -0.7133
  177DOPC  H10R21654   3.063   1.926  11.461  1.1141 -0.7712  1.6409
  177DOPC  C21121655   3.234   2.021  11.553  0.2146 -0.0090  0.0270
  177DOPC  H11R21656   3.312   2.098  11.534 -0.6542  0.9035  0.0672
  177DOPC  H11S21657   3.296   1.930  11.568  0.6077  0.1509 -0.5720
  177DOPC  C21221658   3.175   2.066  11.688 -0.4885 -0.7869 -0.5432
  177DOPC  H12R21659   3.108   2.154  11.673  0.0637  0.2226  2.2612
  177DOPC  H12S21660   3.248   2.101  11.765 -1.7053 -0.3533  0.4575
  177DOPC  C21321661   3.096   1.952  11.763 -0.5358 -0.3365 -0.4338
  177DOPC  H13R21662   3.161   1.862  11.768  0.5081  0.4511  0.4206
  177DOPC  H13S21663   3.002   1.930  11.708 -0.4129  1.1406 -1.3100
  177DOPC  C21421664   3.050   2.005  11.900 -0.4699 -0.5630  0.5681
  177DOPC  H14R21665   3.004   2.105  11.889 -1.6093 -0.8384  2.5242
  177DOPC  H14S21666   3.139   2.005  11.967 -0.4795 -1.6224  0.5967
  177DOPC  C21521667   2.952   1.911  11.969 -0.7437 -0.7388 -0.2447
  177DOPC  H15R21668   2.975   1.803  11.953 -1.9395 -1.0552  0.0085
  177DOPC  H15S21669   2.850   1.923  11.925 -0.9193  0.9740  0.5534
  177DOPC  C21621670   2.939   1.929  12.120 -0.4552 -0.1720 -0.4130
  177DOPC  H16R21671   3.035   1.929  12.176 -0.0895  0.6657 -1.0178
  177DOPC  H16S21672   2.884   1.835  12.141  0.3796  0.0547  3.6455
  177DOPC  C21721673   2.869   2.056  12.154  0.0079 -0.4990  0.0119
  177DOPC  H17R21674   2.770   2.060  12.103  0.1012  0.2748 -0.1219
  177DOPC  H17S21675   2.926   2.140  12.109  1.2330 -1.8297 -0.9700
  177DOPC  C21821676   2.845   2.080  12.297 -0.3368 -0.0671 -0.3626
  177DOPC  H18R21677   2.776   2.007  12.345  2.0221 -2.1335  0.0647
  177DOPC  H18S21678   2.809   2.181  12.327 -2.7035 -1.1865  0.9073
  177DOPC  H18T21679   2.934   2.061  12.360 -1.5571 -1.7844  0.9621
  177DOPC   C3321680   3.552   1.685  10.656  0.1201 -0.1544 -0.0326
  177DOPC   H3X21681   3.454   1.641  10.629 -1.1628  2.1130  0.7144
  177DOPC   H3Y21682   3.525   1.792  10.668 -1.4697 -0.6319  0.9032
  177DOPC   C3421683   3.627   1.628  10.777  0.3708  0.7407  0.2421
  177DOPC   H4X21684   3.704   1.704  10.804  1.8518 -0.8522  0.6657
  177DOPC   H4Y21685   3.684   1.536  10.751  1.6292  1.3614  0.6698
  177DOPC   C3521686   3.535   1.598  10.894  0.0569  0.3690  0.1447
  177DOPC   H5X21687   3.480   1.503  10.881 -0.3201  0.3515  1.6400
  177DOPC   H5Y21688   3.468   1.687  10.898 -0.8687 -0.2500 -1.0314
  177DOPC   C3621689   3.622   1.581  11.021 -0.2969 -0.3850  0.9527
  177DOPC   H6X21690   3.689   1.493  11.013  1.2064  0.7831  0.0005
  177DOPC   H6Y21691   3.684   1.673  11.031 -1.2773  0.4198 -0.0997
  177DOPC   C3721692   3.545   1.572  11.151 -0.0197 -0.0578 -0.2114
  177DOPC   H7X21693   3.481   1.662  11.159 -0.8513 -0.7637  1.4625
  177DOPC   H7Y21694   3.469   1.493  11.133  1.7101 -1.6847 -0.7230
  177DOPC   C3821695   3.628   1.547  11.278 -0.1501 -0.7412  0.4521
  177DOPC   H8X21696   3.682   1.452  11.257 -0.4446 -0.9728  0.7264
  177DOPC   H8Y21697   3.561   1.535  11.366  0.6364 -1.8648  0.9295
  177DOPC   C3921698   3.716   1.664  11.311 -0.6334 -0.3561 -0.3678
  177DOPC   H9X21699   3.793   1.691  11.237 -2.1644 -1.1594 -2.3592
  177DOPC  C31021700   3.690   1.758  11.408 -0.6231 -0.0109  0.0332
  177DOPC  H10X21701   3.770   1.834  11.413 -0.5366 -0.1379  0.6221
  177DOPC  C31121702   3.579   1.777  11.498 -0.1551 -0.2551  0.1244
  177DOPC  H11X21703   3.493   1.712  11.471  1.1051 -1.4843 -1.1331
  177DOPC  H11Y21704   3.541   1.880  11.487 -0.1138 -0.4110 -1.7364
  177DOPC  C31221705   3.618   1.760  11.644  0.5815 -0.2520 -0.6333
  177DOPC  H12X21706   3.711   1.813  11.673  0.1077 -0.3004  1.1146
  177DOPC  H12Y21707   3.655   1.656  11.649  0.9773 -0.1421 -1.1910
  177DOPC  C31321708   3.512   1.784  11.752 -0.1402 -0.1792 -0.9668
  177DOPC  H13X21709   3.487   1.892  11.758 -0.2760 -0.2304  4.4640
  177DOPC  H13Y21710   3.423   1.720  11.736  0.1434 -0.7110 -0.4945
  177DOPC  C31421711   3.593   1.751  11.878 -0.1257  0.2278 -0.0546
  177DOPC  H14X21712   3.649   1.657  11.896 -2.0767 -0.6418  2.0762
  177DOPC  H14Y21713   3.665   1.834  11.892 -0.0886  0.9623 -3.7808
  177DOPC  C31521714   3.499   1.769  11.996  0.4409  0.7699 -0.1920
  177DOPC  H15X21715   3.419   1.692  11.988 -1.1466  2.4075 -0.8779
  177DOPC  H15Y21716   3.445   1.866  11.981 -0.5149  0.4663  1.1417
  177DOPC  C31621717   3.565   1.757  12.135 -0.2119  0.1030 -0.3629
  177DOPC  H16X21718   3.650   1.686  12.144 -0.5426 -0.2039  0.4238
  177DOPC  H16Y21719   3.620   1.854  12.144  0.2539  0.1055 -2.6611
  177DOPC  C31721720   3.480   1.717  12.255  0.3978  0.3332  0.4128
  177DOPC  H17X21721   3.535   1.715  12.351  1.9627 -0.7370 -0.4584
  177DOPC  H17Y21722   3.414   1.805  12.261 -0.0601  0.0179  0.1081
  177DOPC  C31821723   3.406   1.585  12.249 -0.5047 -0.5577  0.0402
  177DOPC  H18X21724   3.369   1.561  12.351 -2.0493 -0.4925 -0.4831
  177DOPC  H18Y21725   3.317   1.595  12.184 -0.4301 -1.0410 -0.1390
  177DOPC  H18Z21726   3.487   1.516  12.218  1.3704  1.3052  0.4800
  178DOPC     N21727   1.519   2.463   9.988 -0.4404 -0.1125  0.3238
  178DOPC   C1221728   1.569   2.536  10.116  0.1469 -0.6474  0.1809
  178DOPC  H12A21729   1.663   2.581  10.089 -0.7029  0.9932 -0.1984
  178DOPC  H12B21730   1.604   2.464  10.188  3.1790 -0.8875 -1.4034
  178DOPC   C1321731   1.482   2.569   9.887 -0.4697  0.5147 -0.4710
  178DOPC  H13A21732   1.440   2.529   9.796 -0.5254  0.8424 -0.5900
  178DOPC  H13B21733   1.417   2.642   9.934  0.0070  0.1070  0.8577
  178DOPC  H13C21734   1.574   2.622   9.867 -0.4361  1.3966  1.7237
  178DOPC   C1421735   1.407   2.375  10.028  0.1773 -0.1731  0.3595
  178DOPC  H14A21736   1.376   2.313   9.946 -2.8232  1.2594  0.2623
  178DOPC  H14B21737   1.436   2.310  10.110 -0.8108 -0.4340  0.5164
  178DOPC  H14C21738   1.319   2.427  10.062 -0.2693  0.3218 -1.4967
  178DOPC   C1521739   1.625   2.372   9.936 -0.3152 -0.0037 -0.4333
  178DOPC  H15A21740   1.600   2.321   9.845 -2.4445  0.1082  0.0481
  178DOPC  H15B21741   1.640   2.293  10.008 -2.4570 -0.4095 -0.3779
  178DOPC  H15C21742   1.723   2.418   9.923  1.1277 -3.1606 -1.6897
  178DOPC   C1121743   1.468   2.633  10.190 -0.0886  0.1641 -0.4666
  178DOPC  H11A21744   1.370   2.582  10.200  0.4796 -1.4187 -2.4025
  178DOPC  H11B21745   1.513   2.641  10.292 -0.3584  0.7353 -0.3885
  178DOPC     P21746   1.316   2.838  10.125  0.2732  0.0035  0.0534
  178DOPC   O1321747   1.203   2.773  10.050 -0.4467 -0.7901 -0.2706
  178DOPC   O1421748   1.342   2.982  10.103 -0.0195  0.1664  0.3949
  178DOPC   O1221749   1.449   2.751  10.112  0.1879 -0.0491 -0.1731
  178DOPC   O1121750   1.292   2.824  10.288  0.0992 -0.2378 -0.3076
  178DOPC    C121751   1.386   2.897  10.368 -0.3349  0.7801  0.3031
  178DOPC    HA21752   1.399   3.005  10.342  0.7665  0.5440 -0.1940
  178DOPC    HB21753   1.490   2.858  10.362 -0.9561 -0.9936  0.7186
  178DOPC    C221754   1.345   2.889  10.516 -0.2349  1.1110  0.4436
  178DOPC    HS21755   1.421   2.945  10.574  0.7024 -0.3988  0.7423
  178DOPC   O2121756   1.337   2.755  10.571  0.0008 -0.3599  0.3586
  178DOPC   C2121757   1.447   2.684  10.572 -0.7531  0.0505 -0.0500
  178DOPC   O2221758   1.563   2.716  10.541  0.1308  0.4063 -0.0334
  178DOPC   C2221759   1.413   2.541  10.623  0.6011 -0.2063 -0.3613
  178DOPC   H2R21760   1.510   2.488  10.636  0.7056  0.5876  2.9247
  178DOPC   H2S21761   1.342   2.498  10.549  0.6366 -0.1547 -0.4251
  178DOPC    C321762   1.211   2.964  10.543  0.5272  0.0283  0.4696
  178DOPC    HX21763   1.132   2.953  10.465  1.4020  3.1259 -1.0417
  178DOPC    HY21764   1.238   3.068  10.514 -0.3275  1.4449  4.1470
  178DOPC   O3121765   1.178   2.963  10.685  0.5342  0.0302  0.7159
  178DOPC   C3121766   1.096   2.860  10.713  0.2035  0.0022  0.7149
  178DOPC   O3221767   1.065   2.775  10.633 -0.5524 -0.1124 -0.4708
  178DOPC   C3221768   1.033   2.876  10.855 -0.8818 -0.1809 -0.1547
  178DOPC   H2X21769   1.009   2.982  10.876  0.4009  0.7212 -2.7563
  178DOPC   H2Y21770   0.941   2.814  10.843 -0.0695 -1.1968 -1.5232
  178DOPC   C2321771   1.337   2.550  10.760 -0.3371 -0.3138  0.0767
  178DOPC   H3R21772   1.309   2.446  10.785 -1.9060  0.2312  0.6938
  178DOPC   H3S21773   1.240   2.604  10.755  0.7840  1.7925 -0.0872
  178DOPC   C2421774   1.431   2.609  10.869 -0.3582  0.0436 -0.2365
  178DOPC   H4R21775   1.439   2.715  10.839  0.3534  0.7611  2.2787
  178DOPC   H4S21776   1.533   2.564  10.868 -0.7843 -1.0144 -2.3672
  178DOPC   C2521777   1.377   2.591  11.010 -0.4063  0.0142 -0.2100
  178DOPC   H5R21778   1.280   2.538  10.995  0.5910 -2.3211  1.1624
  178DOPC   H5S21779   1.353   2.686  11.063  2.5354  0.8497 -0.2253
  178DOPC   C2621780   1.471   2.507  11.108  0.2827  0.8816  0.2112
  178DOPC   H6R21781   1.576   2.543  11.103  0.9413 -1.0449 -2.3951
  178DOPC   H6S21782   1.482   2.403  11.070  0.6647  1.0526 -0.1517
  178DOPC   C2721783   1.405   2.486  11.249 -0.1178  0.3911  0.0180
  178DOPC   H7R21784   1.305   2.443  11.225  0.4671 -0.0312 -1.8430
  178DOPC   H7S21785   1.395   2.590  11.285  0.3868  0.5619 -0.3142
  178DOPC   C2821786   1.488   2.401  11.354 -0.2369  0.0468 -0.3399
  178DOPC   H8R21787   1.561   2.337  11.299  1.7041  0.9651  1.0332
  178DOPC   H8S21788   1.411   2.336  11.400  0.7247 -1.2335 -0.4619
  178DOPC   C2921789   1.558   2.494  11.454  0.5023  0.8049  0.1771
  178DOPC   H9R21790   1.643   2.550  11.411  0.9601 -0.1513 -0.1906
  178DOPC  C21021791   1.506   2.525  11.577  0.4389  0.6628 -0.4396
  178DOPC  H10R21792   1.565   2.596  11.637 -0.1777 -0.5268  1.6924
  178DOPC  C21121793   1.377   2.479  11.646  0.4967  0.0118  0.1131
  178DOPC  H11R21794   1.386   2.477  11.757 -1.7420  2.0075  0.4073
  178DOPC  H11S21795   1.361   2.373  11.617 -0.6998  0.1692  0.1424
  178DOPC  C21221796   1.256   2.561  11.595 -0.2574  0.3568  0.3620
  178DOPC  H12R21797   1.189   2.500  11.531 -0.0655  1.9994 -1.5122
  178DOPC  H12S21798   1.299   2.647  11.539  2.1325 -1.9915 -1.7225
  178DOPC  C21321799   1.168   2.616  11.715 -0.2407  0.0349  0.0077
  178DOPC  H13R21800   1.087   2.675  11.667 -0.5662 -1.7083 -1.7090
  178DOPC  H13S21801   1.231   2.673  11.787  0.5184 -0.0984 -0.5329
  178DOPC  C21421802   1.093   2.504  11.790  0.3129  0.1527  0.1778
  178DOPC  H14R21803   1.159   2.438  11.851 -1.1886 -1.4953  0.1101
  178DOPC  H14S21804   1.044   2.432  11.721 -1.5500 -0.1156  1.6777
  178DOPC  C21521805   0.981   2.548  11.891  0.2443 -0.4341 -0.1727
  178DOPC  H15R21806   0.939   2.454  11.932  3.0381 -1.4631  0.5316
  178DOPC  H15S21807   0.906   2.609  11.836 -0.2977  1.4506  2.4610
  178DOPC  C21621808   1.041   2.611  12.015 -0.2467 -0.0877  0.6409
  178DOPC  H16R21809   1.105   2.694  11.979  1.0490 -0.7222  1.4479
  178DOPC  H16S21810   1.102   2.538  12.072 -0.4540 -1.8753 -1.3001
  178DOPC  C21721811   0.926   2.672  12.103 -0.2567 -0.1676 -0.0405
  178DOPC  H17R21812   0.860   2.589  12.137 -0.7361 -0.1232 -0.8337
  178DOPC  H17S21813   0.869   2.748  12.045  0.0784  0.5116  0.5054
  178DOPC  C21821814   0.979   2.723  12.237 -0.1203  0.1318  0.3589
  178DOPC  H18R21815   1.048   2.648  12.280 -0.2164 -2.4690 -3.5097
  178DOPC  H18S21816   0.899   2.730  12.314 -0.5641  0.7213 -0.1452
  178DOPC  H18T21817   1.015   2.828  12.229  0.3684 -0.0181  0.6263
  178DOPC   C3321818   1.111   2.815  10.978  0.3526  0.1101  0.2428
  178DOPC   H3X21819   1.215   2.853  10.971 -0.3936  2.1072 -0.6964
  178DOPC   H3Y21820   1.108   2.704  10.969 -0.4222  0.0394  1.1985
  178DOPC   C3421821   1.041   2.850  11.108 -0.0065  0.3588  0.1807
  178DOPC   H4X21822   0.955   2.781  11.116  1.4741 -1.3616  2.2549
  178DOPC   H4Y21823   0.999   2.953  11.105  0.8968  0.7286 -1.3558
  178DOPC   C3521824   1.118   2.834  11.237 -0.3794  0.0137 -1.0201
  178DOPC   H5X21825   1.197   2.913  11.234  0.0781 -0.2438  1.8397
  178DOPC   H5Y21826   1.180   2.742  11.240  2.6868  1.9452 -1.1305
  178DOPC   C3621827   1.039   2.858  11.371 -0.0102  0.2779  0.2638
  178DOPC   H6X21828   0.955   2.788  11.388 -0.6639  0.7015 -1.0847
  178DOPC   H6Y21829   1.105   2.858  11.461  0.8434  3.7523 -0.1954
  178DOPC   C3721830   0.979   3.000  11.383 -0.5162 -0.2622  0.7909
  178DOPC   H7X21831   1.047   3.060  11.319 -0.0411  0.5960  2.0634
  178DOPC   H7Y21832   0.879   2.996  11.334 -0.1470 -1.0681  0.0736
  178DOPC   C3821833   0.971   3.044  11.531  0.7304 -0.5498 -0.0199
  178DOPC   H8X21834   0.921   3.142  11.544 -0.3645 -1.1192  0.1062
  178DOPC   H8Y21835   1.078   3.064  11.557  1.4149 -2.8825 -0.8152
  178DOPC   C3921836   0.901   2.949  11.627  0.4683  1.1630 -0.3273
  178DOPC   H9X21837   0.814   2.890  11.594 -0.5359  1.8654  0.9492
  178DOPC  C31021838   0.938   2.924  11.754  0.1248 -0.2925  0.3032
  178DOPC  H10X21839   0.881   2.848  11.809 -0.7597  0.8767  1.0518
  178DOPC  C31121840   1.059   2.986  11.827  0.4346  0.2672  0.5652
  178DOPC  H11X21841   1.113   3.055  11.758  1.5018 -0.4387  0.6679
  178DOPC  H11Y21842   1.131   2.905  11.852 -0.9926 -1.5111 -0.8270
  178DOPC  C31221843   1.012   3.061  11.954  0.7257 -0.2905 -1.0359
  178DOPC  H12X21844   0.947   3.001  12.022  0.9491  1.7630  1.1145
  178DOPC  H12Y21845   0.944   3.140  11.916  0.4183 -0.7124 -1.3774
  178DOPC  C31321846   1.134   3.109  12.024 -0.0920 -0.1341  0.3533
  178DOPC  H13X21847   1.187   3.022  12.069 -0.4578 -0.4668  0.1473
  178DOPC  H13Y21848   1.197   3.167  11.954 -0.7873  0.7539  0.4569
  178DOPC  C31421849   1.091   3.199  12.141  0.1608 -0.5671  0.5869
  178DOPC  H14X21850   1.003   3.261  12.114  1.2589  2.3377  3.1021
  178DOPC  H14Y21851   1.032   3.146  12.219 -0.2743 -0.5875  0.2434
  178DOPC  C31521852   1.202   3.294  12.183 -0.2145  0.5647  0.1816
  178DOPC  H15X21853   1.231   3.338  12.086  0.6443 -1.2228 -0.4154
  178DOPC  H15Y21854   1.290   3.236  12.219  0.4709  0.5034 -1.5298
  178DOPC  C31621855   1.170   3.396  12.292  0.2761  0.1103 -0.0748
  178DOPC  H16X21856   1.170   3.500  12.253  0.6660  0.4578  0.8357
  178DOPC  H16Y21857   1.064   3.377  12.320  0.6818  0.2753  1.6652
  178DOPC  C31721858   1.260   3.388  12.411 -0.2179  0.1699  0.1089
  178DOPC  H17X21859   1.251   3.281  12.442 -1.8324  0.3416  0.3017
  178DOPC  H17Y21860   1.368   3.403  12.387 -0.4647  2.1043  0.0434
  178DOPC  C31821861   1.211   3.478  12.531  1.0858 -0.2737 -0.5721
  178DOPC  H18X21862   1.274   3.478  12.622 -0.9558 -1.6760  0.9227
  178DOPC  H18Y21863   1.210   3.583  12.494 -1.8135 -0.4406 -1.2092
  178DOPC  H18Z21864   1.108   3.449  12.560  1.1093 -0.1324 -0.3464
  179DOPC     N21865   3.518   1.965   9.511 -0.4755  0.4329  0.3750
  179DOPC   C1221866   3.647   1.952   9.587 -0.2149 -0.2065  0.2516
  179DOPC  H12A21867   3.682   2.050   9.615 -2.0647  1.1162 -1.7670
  179DOPC  H12B21868   3.728   1.908   9.529 -0.4607  1.9921 -1.9269
  179DOPC   C1321869   3.474   1.834   9.444 -0.6003 -0.2967  0.5040
  179DOPC  H13A21870   3.548   1.796   9.375  0.7336  0.3953  1.5041
  179DOPC  H13B21871   3.466   1.759   9.521  2.5867 -0.2186  1.0799
  179DOPC  H13C21872   3.377   1.826   9.398 -0.9026 -3.7506  1.5217
  179DOPC   C1421873   3.550   2.064   9.402  0.4682  0.3547 -0.0848
  179DOPC  H14A21874   3.591   2.153   9.449 -2.8134  1.7734  0.3257
  179DOPC  H14B21875   3.623   2.017   9.338 -0.0098  2.1890 -2.1293
  179DOPC  H14C21876   3.468   2.092   9.338  0.7626  0.6525 -0.3386
  179DOPC   C1521877   3.409   2.011   9.595 -0.5232 -0.5762 -0.3903
  179DOPC  H15A21878   3.395   1.942   9.677  3.5878  1.1689  2.1020
  179DOPC  H15B21879   3.316   2.027   9.542 -0.0754  0.5925 -0.8678
  179DOPC  H15C21880   3.432   2.099   9.654 -2.9264 -0.6368  0.7708
  179DOPC   C1121881   3.646   1.869   9.721  0.1207 -0.7028 -0.4151
  179DOPC  H11A21882   3.740   1.891   9.777  1.3083  0.2752 -2.6421
  179DOPC  H11B21883   3.573   1.910   9.793  0.7839  0.0226 -0.1333
  179DOPC     P21884   3.736   1.631   9.665 -0.3750  0.3696  0.0670
  179DOPC   O1321885   3.830   1.677   9.553  0.1570 -0.0807 -0.0518
  179DOPC   O1421886   3.667   1.498   9.639 -0.2624  0.0244  0.6802
  179DOPC   O1221887   3.621   1.736   9.691  0.1390  0.1324  0.8091
  179DOPC   O1121888   3.815   1.626   9.805 -0.1403  0.1109 -0.2543
  179DOPC    C121889   3.739   1.641   9.933 -0.4141 -0.4851  0.6005
  179DOPC    HA21890   3.660   1.562   9.937  0.8316 -1.9292 -1.1267
  179DOPC    HB21891   3.704   1.745   9.947  2.4215  0.6425 -0.1003
  179DOPC    C221892   3.832   1.606  10.056 -0.1129 -0.0007  0.7363
  179DOPC    HS21893   3.756   1.612  10.136  1.2338 -0.2017  2.0692
  179DOPC   O2121894   3.933   1.700  10.086 -0.7287 -0.7377  0.1255
  179DOPC   C2121895   3.907   1.826  10.114 -0.5644  0.5090 -1.1480
  179DOPC   O2221896   3.803   1.882  10.094 -0.6176 -0.0846 -0.0499
  179DOPC   C2221897   4.029   1.894  10.170 -0.2488 -0.7329  0.2867
  179DOPC   H2R21898   3.999   1.999  10.191  1.5581 -0.6023  2.4665
  179DOPC   H2S21899   4.107   1.892  10.091  0.2809 -1.1477  0.8131
  179DOPC    C321900   3.882   1.456  10.047  0.6014  0.1628  0.4328
  179DOPC    HX21901   3.946   1.449   9.956 -0.0439 -1.0575  0.0468
  179DOPC    HY21902   3.787   1.400  10.034  0.3391  0.6355  0.2968
  179DOPC   O3121903   3.969   1.423  10.159 -0.0404 -0.1212 -0.0124
  179DOPC   C3121904   3.904   1.406  10.274 -0.1587  0.6440  0.5007
  179DOPC   O3221905   3.788   1.431  10.298  0.0230 -0.3711  0.1165
  179DOPC   C3221906   4.005   1.349  10.374  0.2003 -0.5252  0.0667
  179DOPC   H2X21907   4.042   1.247  10.353 -0.1267 -0.1541 -2.6439
  179DOPC   H2Y21908   4.098   1.408  10.361 -0.0098 -0.2989 -0.4577
  179DOPC   C2321909   4.100   1.831  10.291 -0.1795  0.1759 -0.8249
  179DOPC   H3R21910   4.184   1.902  10.305 -1.5187  2.1434 -2.0341
  179DOPC   H3S21911   4.121   1.725  10.268  0.3391  0.4204 -1.5357
  179DOPC   C2421912   4.022   1.824  10.423 -0.1674 -0.4411 -0.5863
  179DOPC   H4R21913   3.929   1.764  10.411 -0.5004 -0.3720  1.3091
  179DOPC   H4S21914   3.986   1.924  10.455  1.0793 -0.7506  2.0037
  179DOPC   C2521915   4.108   1.758  10.533  0.2171  0.3350 -0.0280
  179DOPC   H5R21916   4.214   1.754  10.502  0.6014 -1.1512  1.3448
  179DOPC   H5S21917   4.081   1.650  10.538  0.3535  0.2428 -1.1544
  179DOPC   C2621918   4.114   1.826  10.673  0.2288  0.8596 -0.1991
  179DOPC   H6R21919   4.007   1.842  10.696  0.3807  1.5415  0.0573
  179DOPC   H6S21920   4.156   1.928  10.663 -0.9991  1.5749  1.4676
  179DOPC   C2721921   4.188   1.739  10.778  0.3525  0.2907  0.2920
  179DOPC   H7R21922   4.288   1.720  10.735 -0.0825  0.7633 -0.9972
  179DOPC   H7S21923   4.129   1.646  10.788 -1.6005  1.0922 -2.3260
  179DOPC   C2821924   4.218   1.803  10.921  0.3024  0.7280 -0.1076
  179DOPC   H8R21925   4.284   1.889  10.892  1.8385  0.1973  1.6139
  179DOPC   H8S21926   4.274   1.725  10.977 -1.9616 -1.2897 -0.5063
  179DOPC   C2921927   4.094   1.835  10.991  0.0811  1.1042  1.5365
  179DOPC   H9R21928   4.012   1.856  10.921  2.6321  0.8621 -1.7874
  179DOPC  C21021929   4.075   1.838  11.124  0.2277  0.4836  0.2615
  179DOPC  H10R21930   3.993   1.895  11.171  1.6293  1.7707  1.2617
  179DOPC  C21121931   4.183   1.792  11.222  0.8506  0.7031 -0.7845
  179DOPC  H11R21932   4.269   1.859  11.241  0.5314  0.8132  0.3084
  179DOPC  H11S21933   4.226   1.696  11.185 -0.3535  0.3094 -1.2160
  179DOPC  C21221934   4.123   1.749  11.358 -0.0049 -1.0336  0.9035
  179DOPC  H12R21935   4.205   1.691  11.405  1.3878 -0.2055 -0.4020
  179DOPC  H12S21936   4.039   1.678  11.346  1.4703 -2.7728  0.5272
  179DOPC  C21321937   4.061   1.864  11.439 -0.0597 -0.5353 -0.5661
  179DOPC  H13R21938   4.032   1.832  11.541 -0.3506  0.8151 -0.2111
  179DOPC  H13S21939   3.969   1.904  11.391  0.1839  0.7931  0.0517
  179DOPC  C21421940   4.149   1.986  11.454 -0.2206  0.7433  0.3158
  179DOPC  H14R21941   4.088   2.071  11.490 -1.3739 -0.0858  0.3906
  179DOPC  H14S21942   4.198   2.013  11.358 -1.4342  1.2973 -0.1652
  179DOPC  C21521943   4.258   1.942  11.546 -0.9439 -0.5482 -0.4657
  179DOPC  H15R21944   4.318   1.858  11.505 -0.2379  0.1339 -0.8486
  179DOPC  H15S21945   4.205   1.920  11.641 -0.4768  0.5662  0.0628
  179DOPC  C21621946   4.358   2.063  11.571 -0.6660 -0.2343 -0.1818
  179DOPC  H16R21947   4.304   2.143  11.627 -0.2304  1.4718 -2.0618
  179DOPC  H16S21948   4.389   2.104  11.472 -1.3445 -2.0185 -1.1734
  179DOPC  C21721949   4.479   2.020  11.657 -0.0068  0.1128  0.2520
  179DOPC  H17R21950   4.542   1.947  11.602  0.1739 -0.6226  1.3818
  179DOPC  H17S21951   4.429   1.964  11.740 -0.1465 -1.1796 -0.6712
  179DOPC  C21821952   4.559   2.138  11.712  0.5235  0.7192  0.4841
  179DOPC  H18R21953   4.591   2.206  11.631 -0.3456  1.3938  0.6897
  179DOPC  H18S21954   4.652   2.102  11.761  2.2760  1.9800 -1.7581
  179DOPC  H18T21955   4.503   2.200  11.785 -0.1916  1.0613 -0.3429
  179DOPC   C3321956   3.930   1.355  10.514 -0.5386  0.6002 -0.0200
  179DOPC   H3X21957   3.831   1.305  10.514 -1.7411  2.7979 -2.0188
  179DOPC   H3Y21958   3.894   1.458  10.531 -0.1253  1.3899 -3.2803
  179DOPC   C3421959   4.014   1.326  10.637  0.1440  0.3160  0.0028
  179DOPC   H4X21960   4.116   1.371  10.644  0.3346 -0.3789  2.8746
  179DOPC   H4Y21961   4.031   1.217  10.651  1.6895  0.4046 -0.9564
  179DOPC   C3521962   3.944   1.378  10.766 -0.3318  0.3558 -0.0014
  179DOPC   H5X21963   3.844   1.329  10.764 -0.4482  0.5917 -0.0384
  179DOPC   H5Y21964   3.925   1.486  10.744 -0.9651  0.2512 -0.0086
  179DOPC   C3621965   4.015   1.365  10.898  0.0243 -0.1319  0.2412
  179DOPC   H6X21966   4.038   1.258  10.917  0.5381 -0.5068 -2.1823
  179DOPC   H6Y21967   4.113   1.418  10.888  0.2648 -0.9095 -2.0802
  179DOPC   C3721968   3.946   1.432  11.017  0.1831 -0.4694 -0.3472
  179DOPC   H7X21969   3.902   1.529  10.983 -1.2118 -1.1285 -0.5004
  179DOPC   H7Y21970   3.867   1.357  11.038  2.5527 -3.5874 -1.8875
  179DOPC   C3821971   4.045   1.452  11.136 -0.1981 -1.0467  0.1364
  179DOPC   H8X21972   3.994   1.512  11.214 -0.4230  0.3103 -1.0148
  179DOPC   H8Y21973   4.136   1.512  11.111 -0.0719  0.2436  3.3151
  179DOPC   C3921974   4.082   1.321  11.194  0.3884  0.2709  0.6887
  179DOPC   H9X21975   4.166   1.273  11.141  0.4771  0.5990  0.5326
  179DOPC  C31021976   4.045   1.267  11.313  0.1192  0.2193 -0.3846
  179DOPC  H10X21977   4.087   1.171  11.344  0.6437  0.8405  0.9317
  179DOPC  C31121978   3.944   1.322  11.413 -0.2553  0.5164 -0.1160
  179DOPC  H11X21979   3.895   1.237  11.466 -0.8151  1.5509  1.0672
  179DOPC  H11Y21980   3.861   1.387  11.377 -0.6694 -0.0791 -0.2697
  179DOPC  C31221981   4.024   1.403  11.520 -0.5091  0.5015 -0.9691
  179DOPC  H12X21982   3.956   1.455  11.591  1.5355  2.0650 -0.0416
  179DOPC  H12Y21983   4.099   1.474  11.479 -0.1990  2.1256  2.0900
  179DOPC  C31321984   4.100   1.313  11.620  0.6094 -0.0015  0.1629
  179DOPC  H13X21985   4.025   1.237  11.652  0.4140  0.7941  1.6896
  179DOPC  H13Y21986   4.185   1.263  11.569  0.8591 -1.7380  2.1539
  179DOPC  C31421987   4.148   1.386  11.747  0.0290  0.0892 -0.1168
  179DOPC  H14X21988   4.063   1.429  11.803  0.7201  0.4367  0.6789
  179DOPC  H14Y21989   4.194   1.311  11.814 -2.4416 -0.7783  0.7085
  179DOPC  C31521990   4.239   1.505  11.717  0.0302  0.4176  0.0541
  179DOPC  H15X21991   4.179   1.593  11.684  0.5416  0.9255  0.4488
  179DOPC  H15Y21992   4.298   1.478  11.627 -0.4075  0.9415 -0.4055
  179DOPC  C31621993   4.347   1.552  11.828  0.4456  0.7018  0.2737
  179DOPC  H16X21994   4.276   1.607  11.893  0.9362  0.1188  1.3267
  179DOPC  H16Y21995   4.375   1.458  11.881  1.7527  0.9675  0.1084
  179DOPC  C31721996   4.457   1.632  11.763  0.0346 -0.6973 -0.6723
  179DOPC  H17X21997   4.503   1.554  11.699  1.6550  0.4352 -0.9552
  179DOPC  H17Y21998   4.413   1.714  11.703 -0.6609 -0.7009 -0.1817
  179DOPC  C31821999   4.565   1.679  11.865 -0.5735 -0.6055  0.4082
  179DOPC  H18X22000   4.644   1.603  11.877 -1.1446 -1.5263 -1.3133
  179DOPC  H18Y22001   4.616   1.767  11.819 -0.4355 -1.7721 -1.8031
  179DOPC  H18Z22002   4.519   1.716  11.959 -0.0940  0.5406  0.2107
  180DOPC     N22003   4.865   5.925   9.261 -0.2068 -0.0053 -0.6230
  180DOPC   C1222004   4.992   5.920   9.343 -0.3609 -0.2705  0.1952
  180DOPC  H12A22005   5.017   6.021   9.373 -1.7168  0.0502  0.3382
  180DOPC  H12B22006   5.061   5.883   9.269  0.2829 -0.1942  0.7455
  180DOPC   C1322007   4.761   5.981   9.352  0.9156 -0.0910  0.2191
  180DOPC  H13A22008   4.766   6.088   9.369 -2.9754  0.0561  1.5518
  180DOPC  H13B22009   4.664   5.965   9.306  0.7755 -1.1241  0.8280
  180DOPC  H13C22010   4.763   5.922   9.442  0.4289 -0.6051 -0.0980
  180DOPC   C1422011   4.814   5.794   9.200  0.2046  0.2132 -0.1854
  180DOPC  H14A22012   4.856   5.792   9.101  2.6487  1.0426  0.7729
  180DOPC  H14B22013   4.847   5.719   9.270 -0.5211  1.3824  1.4668
  180DOPC  H14C22014   4.707   5.794   9.185  0.3077 -0.9646 -1.0753
  180DOPC   C1522015   4.877   6.023   9.145  0.0126  0.1783  0.2129
  180DOPC  H15A22016   4.971   6.004   9.094 -0.3741  0.4825 -0.6256
  180DOPC  H15B22017   4.891   6.127   9.172 -0.3061  0.1671  0.4241
  180DOPC  H15C22018   4.796   6.016   9.074  0.6807 -1.2277 -0.4421
  180DOPC   C1122019   4.997   5.821   9.457 -0.1613  0.3827 -0.0352
  180DOPC  H11A22020   5.097   5.829   9.505  0.5811 -0.2439 -1.4096
  180DOPC  H11B22021   4.915   5.846   9.528  0.0982  0.6702  0.1641
  180DOPC     P22022   5.101   5.612   9.348  0.2253  0.1768  0.2282
  180DOPC   O1322023   5.171   5.710   9.260  0.3699  0.1128 -0.0469
  180DOPC   O1422024   5.053   5.487   9.282 -0.1389  0.7890 -0.0841
  180DOPC   O1222025   4.980   5.684   9.412  0.2285 -0.9729  0.0016
  180DOPC   O1122026   5.200   5.573   9.465 -0.4147  0.3264  0.0417
  180DOPC    C122027   5.141   5.503   9.575 -1.1241 -0.0707  0.8735
  180DOPC    HA22028   5.205   5.414   9.591  2.7041  1.7499 -2.4191
  180DOPC    HB22029   5.040   5.466   9.550 -0.0670 -1.4417 -1.6771
  180DOPC    C222030   5.132   5.590   9.705 -0.3343  0.1757  0.1389
  180DOPC    HS22031   5.047   5.660   9.694  2.8038  4.4252  0.6673
  180DOPC   O2122032   5.247   5.675   9.708 -0.9101 -0.2072 -0.1619
  180DOPC   C2122033   5.232   5.790   9.769  0.4134 -0.4095 -0.0680
  180DOPC   O2222034   5.124   5.830   9.815  0.2744 -0.0408  0.0750
  180DOPC   C2222035   5.364   5.870   9.766  0.2487  0.8548 -0.6370
  180DOPC   H2R22036   5.373   5.887   9.657 -1.4131 -0.6138 -1.0550
  180DOPC   H2S22037   5.452   5.811   9.798  0.3165  1.0412 -0.4757
  180DOPC    C322038   5.119   5.499   9.830  0.2161 -0.0794  0.6480
  180DOPC    HX22039   5.206   5.439   9.796 -0.1779  1.3706 -3.4801
  180DOPC    HY22040   5.027   5.436   9.829 -0.5865  1.0618 -0.0233
  180DOPC   O3122041   5.140   5.553   9.962 -0.6211 -0.1737 -0.0948
  180DOPC   C3122042   5.198   5.464  10.051  0.2140  0.4487 -0.4174
  180DOPC   O3222043   5.257   5.364  10.020 -0.5311 -0.0707 -0.6062
  180DOPC   C3222044   5.163   5.521  10.192 -0.3605  0.3347  0.9036
  180DOPC   H2X22045   5.217   5.619  10.193  1.1097 -0.3243 -2.2816
  180DOPC   H2Y22046   5.056   5.549  10.193 -0.1898  1.0939 -0.1928
  180DOPC   C2322047   5.349   6.002   9.845  0.1456 -0.2156 -0.6553
  180DOPC   H3R22048   5.320   5.967   9.947 -2.4373 -0.2234 -1.3257
  180DOPC   H3S22049   5.260   6.056   9.807  1.6703  0.7071 -3.0887
  180DOPC   C2422050   5.479   6.084   9.835  0.0579  0.0418  0.0206
  180DOPC   H4R22051   5.476   6.118   9.730  0.0731  1.9441  0.6006
  180DOPC   H4S22052   5.562   6.014   9.859  0.2908  0.0421 -0.7727
  180DOPC   C2522053   5.493   6.205   9.929  0.2492 -0.1756  0.8409
  180DOPC   H5R22054   5.405   6.269   9.909  0.4843  0.6805  2.4158
  180DOPC   H5S22055   5.591   6.247   9.898  0.2858 -0.1496  0.9939
  180DOPC   C2622056   5.499   6.171  10.083 -0.0183 -0.1300 -0.1679
  180DOPC   H6R22057   5.543   6.071  10.104 -1.4104 -0.3031  2.2981
  180DOPC   H6S22058   5.397   6.165  10.126 -0.3792 -1.0225 -1.0995
  180DOPC   C2722059   5.586   6.265  10.170 -0.3030 -0.1052  0.2715
  180DOPC   H7R22060   5.567   6.241  10.278 -2.4610  0.0589 -0.0298
  180DOPC   H7S22061   5.549   6.369  10.162  1.3859  0.5206  0.2139
  180DOPC   C2822062   5.738   6.267  10.132 -0.5475 -0.1123  0.3906
  180DOPC   H8R22063   5.788   6.342  10.197  0.2583  1.2285 -1.6661
  180DOPC   H8S22064   5.758   6.315  10.033 -1.4134  0.6114  0.5638
  180DOPC   C2922065   5.809   6.134  10.140 -0.6038 -0.4651 -0.1330
  180DOPC   H9R22066   5.796   6.065  10.056  3.3439 -1.2008 -0.3143
  180DOPC  C21022067   5.872   6.089  10.244 -0.8898  0.3462  0.0097
  180DOPC  H10R22068   5.904   5.984  10.233  1.4376  0.9228  0.7058
  180DOPC  C21122069   5.884   6.153  10.384  0.2086  0.1397 -0.3519
  180DOPC  H11R22070   5.813   6.236  10.404 -0.5568  0.0068 -2.3240
  180DOPC  H11S22071   5.979   6.209  10.377 -0.1632  0.6708 -1.3204
  180DOPC  C21222072   5.855   6.051  10.493 -0.0691  0.2144  0.0005
  180DOPC  H12R22073   5.935   5.974  10.483 -0.9339 -1.2053  2.8983
  180DOPC  H12S22074   5.757   6.005  10.472  1.0315 -2.2151 -0.1427
  180DOPC  C21322075   5.857   6.109  10.632 -0.1423  0.5022 -0.1476
  180DOPC  H13R22076   5.761   6.153  10.664 -0.1480  0.5676 -0.2560
  180DOPC  H13S22077   5.945   6.171  10.658 -1.1182  0.9515  2.3811
  180DOPC  C21422078   5.865   5.996  10.734 -0.8226 -0.1935  0.0614
  180DOPC  H14R22079   5.958   5.941  10.711 -1.2347 -0.7154 -0.3864
  180DOPC  H14S22080   5.782   5.923  10.719  0.3221 -1.6647  0.6806
  180DOPC  C21522081   5.859   6.048  10.877  0.2659 -0.2487 -0.1800
  180DOPC  H15R22082   5.762   6.100  10.894 -0.6080 -2.1916  1.1356
  180DOPC  H15S22083   5.944   6.120  10.879  1.1602 -1.2903 -0.0121
  180DOPC  C21622084   5.889   5.953  10.992  0.4792  0.1513 -0.2061
  180DOPC  H16R22085   5.998   5.933  10.987  0.2815 -1.0582  0.0831
  180DOPC  H16S22086   5.822   5.865  10.980 -2.1958  2.2347 -1.5934
  180DOPC  C21722087   5.856   6.024  11.123 -0.1315 -0.0784 -0.4014
  180DOPC  H17R22088   5.747   6.044  11.129 -0.2593 -0.3482 -1.6478
  180DOPC  H17S22089   5.906   6.123  11.133 -0.8946  0.3907 -1.1400
  180DOPC  C21822090   5.896   5.946  11.244  0.0136 -0.0515 -0.0946
  180DOPC  H18R22091   5.862   5.994  11.338  0.4987  0.9347 -0.4088
  180DOPC  H18S22092   6.007   5.936  11.252  0.0053  1.1867  3.3112
  180DOPC  H18T22093   5.845   5.848  11.255 -2.1424  1.1911  1.8579
  180DOPC   C3322094   5.204   5.430  10.312 -0.0094 -0.4107 -0.1057
  180DOPC   H3X22095   5.308   5.394  10.321 -0.2906 -1.4040 -0.6879
  180DOPC   H3Y22096   5.149   5.333  10.304 -0.5062 -0.2823  1.4075
  180DOPC   C3422097   5.156   5.477  10.448 -0.0507 -0.6288 -0.2600
  180DOPC   H4X22098   5.079   5.414  10.498 -1.5261  0.8235 -0.6151
  180DOPC   H4Y22099   5.107   5.577  10.446 -0.9695 -1.0171  1.0658
  180DOPC   C3522100   5.273   5.478  10.547 -0.4557 -0.6460  0.1638
  180DOPC   H5X22101   5.362   5.528  10.505 -0.7117 -0.4686 -0.1760
  180DOPC   H5Y22102   5.301   5.375  10.577  0.3498 -1.0192 -1.7010
  180DOPC   C3622103   5.235   5.553  10.673  0.0519 -0.3067  0.1927
  180DOPC   H6X22104   5.311   5.534  10.751  2.1950  1.9752 -1.1963
  180DOPC   H6Y22105   5.239   5.662  10.652 -1.0539 -0.3439 -0.3108
  180DOPC   C3722106   5.099   5.520  10.734 -0.7469 -0.3826  0.0672
  180DOPC   H7X22107   5.028   5.541  10.651  0.6946  3.3222 -0.4282
  180DOPC   H7Y22108   5.101   5.413  10.765  1.8144 -1.4604 -3.2909
  180DOPC   C3822109   5.074   5.605  10.853  0.5708 -0.4048 -0.4642
  180DOPC   H8X22110   5.074   5.712  10.823 -0.7082  0.1261  1.2759
  180DOPC   H8Y22111   5.156   5.593  10.927 -0.2762 -0.8271  0.4391
  180DOPC   C3922112   4.939   5.574  10.921  0.0256  1.4122 -1.0794
  180DOPC   H9X22113   4.862   5.515  10.869 -0.3995 -1.4710  2.3918
  180DOPC  C31022114   4.909   5.613  11.046  0.0818  1.4672  0.4037
  180DOPC  H10X22115   4.816   5.573  11.087  2.2121 -1.8459  2.5536
  180DOPC  C31122116   5.000   5.705  11.121  0.6320  0.0577  0.6041
  180DOPC  H11X22117   5.048   5.780  11.055  0.7104 -0.9310 -0.4898
  180DOPC  H11Y22118   5.086   5.645  11.157  1.4184  0.3467 -0.7118
  180DOPC  C31222119   4.927   5.778  11.245 -0.0065  0.6420 -0.2813
  180DOPC  H12X22120   4.843   5.843  11.211 -0.0478  0.7793  0.0823
  180DOPC  H12Y22121   4.994   5.863  11.271  0.9446 -0.5263  1.2160
  180DOPC  C31322122   4.904   5.698  11.373  0.4132  0.4184 -0.5026
  180DOPC  H13X22123   4.844   5.609  11.345  0.4495  0.8099 -1.8684
  180DOPC  H13Y22124   5.002   5.659  11.410 -0.3557  0.0143  1.2379
  180DOPC  C31422125   4.829   5.777  11.486 -0.2770  0.0668  0.9200
  180DOPC  H14X22126   4.784   5.867  11.438  1.1975  0.5213  0.3383
  180DOPC  H14Y22127   4.740   5.721  11.521 -0.7191 -2.0105 -2.9055
  180DOPC  C31522128   4.924   5.814  11.597  0.1070  0.3523 -0.4157
  180DOPC  H15X22129   5.005   5.869  11.544 -1.3822  1.1573 -1.9152
  180DOPC  H15Y22130   4.968   5.722  11.643  0.0404 -0.5927 -2.1837
  180DOPC  C31622131   4.852   5.899  11.707 -0.0365  0.0225  0.2501
  180DOPC  H16X22132   4.790   5.975  11.655  0.3382 -0.9166 -1.6602
  180DOPC  H16Y22133   4.774   5.831  11.747 -0.7255  1.7800  2.0694
  180DOPC  C31722134   4.937   5.946  11.817 -0.1077 -0.0845  0.0929
  180DOPC  H17X22135   4.989   5.863  11.868  0.5035 -0.4139 -1.0219
  180DOPC  H17Y22136   5.007   6.021  11.774  0.0373  0.1493  0.7364
  180DOPC  C31822137   4.863   6.037  11.914  0.5060  0.1106 -0.1226
  180DOPC  H18X22138   4.774   5.984  11.954 -0.9667  2.0813 -0.6215
  180DOPC  H18Y22139   4.925   6.071  11.999  1.6436  2.3759 -1.7608
  180DOPC  H18Z22140   4.830   6.131  11.865  2.1575  1.0194  0.4228
  181DOPC     N22141   6.582   6.289   9.531  0.5453 -0.6120  0.3386
  181DOPC   C1222142   6.519   6.333   9.663  0.0319 -0.0512  0.0815
  181DOPC  H12A22143   6.444   6.262   9.696  0.5215 -0.5403  0.1607
  181DOPC  H12B22144   6.461   6.422   9.645  0.3934 -0.0642 -1.2053
  181DOPC   C1322145   6.662   6.401   9.469  0.6832  0.1305 -0.5656
  181DOPC  H13A22146   6.604   6.490   9.448  0.5801  0.1939 -0.0346
  181DOPC  H13B22147   6.734   6.420   9.548 -0.4763 -2.3302  1.2044
  181DOPC  H13C22148   6.713   6.364   9.381  2.7007 -1.9201  1.3296
  181DOPC   C1422149   6.471   6.252   9.440 -0.0873  0.1784 -0.0192
  181DOPC  H14A22150   6.514   6.253   9.341  1.4533 -2.0406  0.5648
  181DOPC  H14B22151   6.433   6.156   9.470  0.7982 -0.0214  0.5119
  181DOPC  H14C22152   6.391   6.325   9.436  1.1205  1.4967 -1.2261
  181DOPC   C1522153   6.670   6.174   9.548 -0.4899 -0.3380 -0.4947
  181DOPC  H15A22154   6.713   6.158   9.450 -3.3052 -1.0839 -1.7022
  181DOPC  H15B22155   6.619   6.087   9.587 -0.2613  0.1257  0.8774
  181DOPC  H15C22156   6.755   6.184   9.613 -1.9701 -3.3288  2.1773
  181DOPC   C1122157   6.607   6.362   9.785  0.3848  0.4489 -0.2571
  181DOPC  H11A22158   6.681   6.431   9.741 -2.0211  2.4972 -1.3554
  181DOPC  H11B22159   6.545   6.417   9.859 -1.6888 -0.4990 -1.1777
  181DOPC     P22160   6.560   6.148   9.916 -0.3630 -0.0211  0.5462
  181DOPC   O1322161   6.642   6.037   9.968  0.3160 -0.0654 -0.6357
  181DOPC   O1422162   6.444   6.115   9.823 -0.3342  0.3847  0.1880
  181DOPC   O1222163   6.664   6.245   9.837 -0.6346  0.2314  0.6892
  181DOPC   O1122164   6.509   6.243  10.032 -0.1064  0.2453  0.2968
  181DOPC    C122165   6.596   6.285  10.141 -0.0015  0.7068 -0.0470
  181DOPC    HA22166   6.595   6.396  10.136 -1.1970  0.6996 -0.1597
  181DOPC    HB22167   6.703   6.257  10.125 -0.4983  0.0242 -2.7318
  181DOPC    C222168   6.551   6.241  10.285  0.3784  0.1479 -0.2177
  181DOPC    HS22169   6.606   6.300  10.362 -1.5636  0.5350  0.9695
  181DOPC   O2122170   6.572   6.099  10.314 -0.0240  0.5371  0.1205
  181DOPC   C2122171   6.687   6.045  10.300  0.1809  0.2217  0.1003
  181DOPC   O2222172   6.790   6.108  10.276  0.2893  0.2364 -0.3757
  181DOPC   C2222173   6.681   5.891  10.340  0.2308  0.7717  0.0634
  181DOPC   H2R22174   6.608   5.844  10.270 -0.7913  0.8921  1.0254
  181DOPC   H2S22175   6.635   5.889  10.441 -0.5348 -0.3423 -0.2927
  181DOPC    C322176   6.396   6.265  10.308  0.1731 -0.0347  0.2349
  181DOPC    HX22177   6.339   6.189  10.251 -1.0927  0.4189  0.8648
  181DOPC    HY22178   6.385   6.356  10.246  0.4735 -0.4314 -0.4069
  181DOPC   O3122179   6.365   6.273  10.448 -0.1586 -0.1250 -0.0695
  181DOPC   C3122180   6.285   6.182  10.501  0.2503 -0.6088 -0.9235
  181DOPC   O3222181   6.231   6.095  10.440  0.2221  0.0037 -0.4225
  181DOPC   C3222182   6.254   6.217  10.652 -1.1013  0.4390 -0.2439
  181DOPC   H2X22183   6.315   6.306  10.681  1.4665 -0.9364 -1.0803
  181DOPC   H2Y22184   6.149   6.251  10.658 -0.8774  1.0526  0.3095
  181DOPC   C2322185   6.820   5.820  10.344  0.5345 -0.1519  0.0639
  181DOPC   H3R22186   6.870   5.827  10.245 -1.3243 -0.4736 -0.9471
  181DOPC   H3S22187   6.803   5.711  10.362  1.0907 -0.1972  0.3318
  181DOPC   C2422188   6.915   5.879  10.447 -0.5441 -0.9796 -0.8002
  181DOPC   H4R22189   6.915   5.990  10.448 -0.9169 -0.9540 -2.0796
  181DOPC   H4S22190   7.013   5.842  10.409  0.5054  0.3516  0.4699
  181DOPC   C2522191   6.906   5.826  10.588 -0.7243  0.1552 -0.5771
  181DOPC   H5R22192   6.896   5.716  10.585  1.5066 -0.1188  0.0328
  181DOPC   H5S22193   6.830   5.880  10.649 -0.0199 -0.1224  0.5648
  181DOPC   C2622194   7.038   5.854  10.666  0.6643  0.1789  0.2699
  181DOPC   H6R22195   7.065   5.960  10.643 -0.5574  0.1523 -1.5047
  181DOPC   H6S22196   7.121   5.793  10.626 -0.7338 -0.5419 -1.6870
  181DOPC   C2722197   7.022   5.831  10.821  1.0033 -0.1331 -0.2187
  181DOPC   H7R22198   7.126   5.811  10.853  1.8847  2.2899 -1.3153
  181DOPC   H7S22199   6.946   5.752  10.841 -0.6914  1.4384 -0.1821
  181DOPC   C2822200   6.972   5.952  10.904 -0.2089 -0.0113  0.3908
  181DOPC   H8R22201   6.941   5.924  11.007  2.1195 -2.4389  0.5285
  181DOPC   H8S22202   6.879   5.995  10.860  1.4899  2.7015 -0.8358
  181DOPC   C2922203   7.086   6.052  10.892 -0.3016  0.0609 -0.0716
  181DOPC   H9R22204   7.096   6.106  10.796  0.5603 -0.8558 -0.5145
  181DOPC  C21022205   7.156   6.098  10.995 -0.5828 -0.3328 -0.0632
  181DOPC  H10R22206   7.229   6.177  10.973 -1.6571  1.5453  2.6512
  181DOPC  C21122207   7.132   6.064  11.140  0.5448  0.0019 -0.7997
  181DOPC  H11R22208   7.157   5.960  11.167 -0.9793 -0.3962 -0.8001
  181DOPC  H11S22209   7.026   6.071  11.172  0.6025 -0.6696 -0.4548
  181DOPC  C21222210   7.215   6.154  11.234  0.0932 -0.2987  0.6653
  181DOPC  H12R22211   7.209   6.260  11.203  1.4405 -0.3142  0.3043
  181DOPC  H12S22212   7.322   6.127  11.235  0.1318 -0.3127 -1.0810
  181DOPC  C21322213   7.167   6.149  11.376 -0.5022  0.1792 -0.3796
  181DOPC  H13R22214   7.199   6.054  11.424  1.3216  0.3349 -1.2056
  181DOPC  H13S22215   7.056   6.152  11.379 -0.4726  0.5650  1.0082
  181DOPC  C21422216   7.213   6.262  11.469 -0.7328  0.2600  0.3442
  181DOPC  H14R22217   7.178   6.360  11.428 -0.4918  0.2347  0.0772
  181DOPC  H14S22218   7.324   6.254  11.473 -0.7970 -0.4230  0.8888
  181DOPC  C21522219   7.159   6.233  11.613  0.0683 -0.4276 -0.2696
  181DOPC  H15R22220   7.207   6.316  11.668 -0.6338  0.2956 -0.7331
  181DOPC  H15S22221   7.196   6.134  11.647 -1.8765 -1.7343 -1.7442
  181DOPC  C21622222   7.015   6.240  11.630  0.5005  0.4880  0.4112
  181DOPC  H16R22223   6.971   6.156  11.571  0.8516  0.2389  0.5008
  181DOPC  H16S22224   6.968   6.336  11.600  1.0795  0.9020  0.8182
  181DOPC  C21722225   6.975   6.199  11.773 -0.7400 -0.4821 -1.3222
  181DOPC  H17R22226   6.957   6.089  11.775 -1.8426 -0.3212 -1.4673
  181DOPC  H17S22227   6.875   6.246  11.786 -0.3647 -0.1065  0.3931
  181DOPC  C21822228   7.065   6.249  11.884 -0.1376 -0.1737 -0.0039
  181DOPC  H18R22229   7.054   6.192  11.979  0.3851 -1.0886 -0.4866
  181DOPC  H18S22230   7.051   6.354  11.920 -0.1723 -0.4636  0.8678
  181DOPC  H18T22231   7.170   6.222  11.863 -0.0284 -0.1174  0.4422
  181DOPC   C3322232   6.289   6.096  10.742  0.2443 -0.4306 -0.3169
  181DOPC   H3X22233   6.399   6.081  10.731  0.3653 -1.3230  1.7333
  181DOPC   H3Y22234   6.233   6.004  10.714 -3.3308  1.8196 -1.2320
  181DOPC   C3422235   6.255   6.128  10.888  0.0501  0.1220 -0.6671
  181DOPC   H4X22236   6.291   6.042  10.949  1.1844 -0.0331 -1.5463
  181DOPC   H4Y22237   6.145   6.123  10.909  0.3382  0.0816  1.0242
  181DOPC   C3522238   6.324   6.254  10.937 -0.5224  0.1971 -0.0958
  181DOPC   H5X22239   6.270   6.345  10.902 -1.8781 -1.3173 -2.0884
  181DOPC   H5Y22240   6.424   6.249  10.887 -0.5884  0.6813 -0.2886
  181DOPC   C3622241   6.358   6.259  11.086 -0.0192 -0.3592 -0.3200
  181DOPC   H6X22242   6.424   6.174  11.112 -0.0357 -0.2225  0.1834
  181DOPC   H6Y22243   6.411   6.355  11.106  3.2555 -1.6416 -2.1495
  181DOPC   C3722244   6.242   6.235  11.184  0.0927 -0.0083 -0.6024
  181DOPC   H7X22245   6.170   6.320  11.180  0.5941  0.4167 -0.6684
  181DOPC   H7Y22246   6.194   6.140  11.153 -1.2333 -0.3723  2.2731
  181DOPC   C3822247   6.275   6.207  11.331 -0.1760 -0.1474 -0.5788
  181DOPC   H8X22248   6.354   6.132  11.353 -0.0809  0.5991  1.9731
  181DOPC   H8Y22249   6.179   6.166  11.371 -0.7725  1.9728  0.3064
  181DOPC   C3922250   6.312   6.335  11.396  0.1069 -0.3890  0.1951
  181DOPC   H9X22251   6.349   6.408  11.323  0.1800 -3.0959 -2.7192
  181DOPC  C31022252   6.292   6.378  11.521  0.6354 -0.0019 -0.7640
  181DOPC  H10X22253   6.333   6.473  11.558  0.5258  1.1245 -3.3404
  181DOPC  C31122254   6.225   6.292  11.628 -0.7605 -0.4734 -0.1078
  181DOPC  H11X22255   6.223   6.184  11.600 -1.2004 -0.6540  0.5795
  181DOPC  H11Y22256   6.129   6.345  11.645 -1.0854 -0.3736 -2.0439
  181DOPC  C31222257   6.302   6.313  11.761 -0.9048  0.8209  0.3035
  181DOPC  H12X22258   6.320   6.420  11.784  0.9565  0.4314  0.8156
  181DOPC  H12Y22259   6.403   6.271  11.746 -0.8653  1.5763 -1.8574
  181DOPC  C31322260   6.228   6.239  11.868  0.6782 -0.4524 -0.7171
  181DOPC  H13X22261   6.125   6.280  11.863 -0.0709 -2.2495 -0.6136
  181DOPC  H13Y22262   6.223   6.134  11.832  2.7882 -0.9131  0.1836
  181DOPC  C31422263   6.292   6.243  12.007 -0.6483  0.1626  0.3129
  181DOPC  H14X22264   6.224   6.191  12.079 -0.3044  1.3032  1.5106
  181DOPC  H14Y22265   6.395   6.203  12.003  0.5563  3.0895 -0.8752
  181DOPC  C31522266   6.286   6.383  12.073  0.6358 -0.2881 -0.6484
  181DOPC  H15X22267   6.176   6.398  12.082  0.8521  0.8733  0.3110
  181DOPC  H15Y22268   6.310   6.463  12.000 -2.0723  1.9760  0.7520
  181DOPC  C31622269   6.359   6.401  12.208 -0.5993 -0.1853  0.0195
  181DOPC  H16X22270   6.351   6.311  12.274 -0.5159  0.0651  0.3754
  181DOPC  H16Y22271   6.463   6.400  12.170 -1.1247 -0.7619 -1.4685
  181DOPC  C31722272   6.328   6.530  12.288  0.1100  0.0929 -0.0389
  181DOPC  H17X22273   6.217   6.537  12.283 -0.0913 -1.7279  0.9321
  181DOPC  H17Y22274   6.360   6.508  12.392 -0.1696  0.5144  0.1356
  181DOPC  C31822275   6.406   6.649  12.245  0.4065  0.3159  0.8251
  181DOPC  H18X22276   6.397   6.735  12.315 -2.0658  0.2223  0.7207
  181DOPC  H18Y22277   6.514   6.626  12.233  0.6000  1.5162  0.0847
  181DOPC  H18Z22278   6.382   6.690  12.145  1.6650 -1.7060 -0.3880
  182DOPC     N22279   0.919   4.467   9.396  0.4539  0.0671  1.0581
  182DOPC   C1222280   1.012   4.487   9.510  0.1174 -0.1602 -0.1702
  182DOPC  H12A22281   1.073   4.574   9.488  2.1273 -1.5647 -0.4636
  182DOPC  H12B22282   1.085   4.408   9.516  2.5336  1.7366 -1.9962
  182DOPC   C1322283   0.829   4.589   9.384 -0.2563 -0.1700 -0.4722
  182DOPC  H13A22284   0.770   4.600   9.474  1.2482 -2.1862  0.8749
  182DOPC  H13B22285   0.894   4.673   9.367  1.8657 -2.2054 -3.4030
  182DOPC  H13C22286   0.756   4.575   9.306  0.9346  0.5350 -1.7585
  182DOPC   C1422287   0.841   4.344   9.399  0.6535  0.6760 -0.0214
  182DOPC  H14A22288   0.788   4.328   9.491  0.3012 -0.6163 -0.4327
  182DOPC  H14B22289   0.766   4.341   9.321  0.8828  1.5132 -0.2890
  182DOPC  H14C22290   0.899   4.255   9.376 -1.8830 -0.5796 -2.0554
  182DOPC   C1522291   0.988   4.456   9.268  0.1777  0.1340  0.0426
  182DOPC  H15A22292   0.921   4.412   9.196  0.8054 -2.2352  0.8369
  182DOPC  H15B22293   1.082   4.403   9.267  0.2169  0.1788  0.8127
  182DOPC  H15C22294   1.011   4.556   9.232 -0.0925 -0.6405 -2.4642
  182DOPC   C1122295   0.943   4.516   9.651 -0.0719 -0.0204 -0.9275
  182DOPC  H11A22296   1.025   4.547   9.720  0.7022 -0.0590 -1.8093
  182DOPC  H11B22297   0.863   4.592   9.639 -0.2401 -0.0450 -0.0405
  182DOPC     P22298   0.949   4.286   9.779  0.0058 -0.0723  0.1964
  182DOPC   O1322299   1.040   4.203   9.692 -0.3159 -0.7585  0.3054
  182DOPC   O1422300   0.850   4.204   9.849 -0.2763  0.3763  0.0842
  182DOPC   O1222301   0.872   4.397   9.703 -0.4099  0.0164  0.5259
  182DOPC   O1122302   1.043   4.360   9.891  0.5646  0.4558 -0.0581
  182DOPC    C122303   0.969   4.450   9.980 -0.2243  0.3931 -0.5167
  182DOPC    HA22304   0.883   4.499   9.930 -0.8660 -1.1468 -1.0047
  182DOPC    HB22305   1.032   4.538  10.004 -1.4005  1.3090 -0.7137
  182DOPC    C222306   0.921   4.387  10.119  1.0284 -0.4739  0.1285
  182DOPC    HS22307   0.845   4.313  10.088  0.3803  0.7706 -1.4037
  182DOPC   O2122308   0.875   4.499  10.214  0.0806  0.4328  0.2752
  182DOPC   C2122309   0.784   4.461  10.301 -0.0034 -0.3634  0.8653
  182DOPC   O2222310   0.734   4.347  10.314 -0.1492  0.0729 -0.3327
  182DOPC   C2222311   0.753   4.581  10.386  0.5510 -0.2813  0.3275
  182DOPC   H2R22312   0.680   4.644  10.331 -0.8853 -0.9553  1.4022
  182DOPC   H2S22313   0.845   4.639  10.410 -0.1776  0.7006  0.8384
  182DOPC    C322314   1.043   4.316  10.179  0.1408  0.0863  0.6995
  182DOPC    HX22315   1.134   4.372  10.146  0.7354 -0.7229  0.9539
  182DOPC    HY22316   1.046   4.222  10.120  0.3196  0.3341  0.3086
  182DOPC   O3122317   1.041   4.279  10.317  0.3748  0.2115 -0.2679
  182DOPC   C3122318   1.081   4.370  10.403  0.2633  0.3602  0.1809
  182DOPC   O3222319   1.135   4.475  10.381 -0.0438  0.4154  0.0567
  182DOPC   C3222320   1.046   4.314  10.547  0.5023 -0.3691 -0.0209
  182DOPC   H2X22321   0.948   4.261  10.545  0.0026  0.5315  0.0885
  182DOPC   H2Y22322   1.118   4.231  10.563  0.3967 -0.6090 -0.7672
  182DOPC   C2322323   0.677   4.540  10.515  0.4863  0.1825  0.0622
  182DOPC   H3R22324   0.721   4.444  10.551 -2.4813 -2.0868 -1.7888
  182DOPC   H3S22325   0.569   4.518  10.502  1.0251 -2.5492 -0.4047
  182DOPC   C2422326   0.701   4.626  10.638  0.1013  0.1029  0.3850
  182DOPC   H4R22327   0.677   4.732  10.614  0.2681 -0.1229 -0.8331
  182DOPC   H4S22328   0.808   4.624  10.668  0.7242  0.0986 -1.6845
  182DOPC   C2522329   0.605   4.575  10.747  0.9982 -0.1037 -0.4126
  182DOPC   H5R22330   0.640   4.471  10.765 -1.8644 -0.9511  0.8117
  182DOPC   H5S22331   0.501   4.578  10.707  1.6897 -1.2571 -2.4398
  182DOPC   C2622332   0.622   4.648  10.877  0.6346 -0.1927 -0.0118
  182DOPC   H6R22333   0.579   4.750  10.871  1.7639  0.3999  1.3781
  182DOPC   H6S22334   0.729   4.668  10.896  0.7205 -0.2392 -0.4525
  182DOPC   C2722335   0.544   4.579  11.000 -0.5605 -0.2302  0.0325
  182DOPC   H7R22336   0.566   4.474  10.971  0.7130 -0.2831  1.1174
  182DOPC   H7S22337   0.435   4.600  10.995 -0.1931  2.0758  0.5309
  182DOPC   C2822338   0.601   4.619  11.146 -0.2794  0.1896  0.0753
  182DOPC   H8R22339   0.598   4.730  11.145  2.8834  0.3802 -0.3048
  182DOPC   H8S22340   0.710   4.598  11.156 -0.2652 -0.4084 -1.1817
  182DOPC   C2922341   0.526   4.551  11.255  0.0767 -0.1086 -0.1376
  182DOPC   H9R22342   0.544   4.443  11.271 -1.8795 -0.2156  1.5992
  182DOPC  C21022343   0.445   4.605  11.341  0.2257  0.3458 -0.2346
  182DOPC  H10R22344   0.415   4.543  11.427 -1.1557  0.3514 -0.6876
  182DOPC  C21122345   0.409   4.748  11.357  0.0062  0.2445  0.3752
  182DOPC  H11R22346   0.434   4.793  11.259  2.1621  0.8129  1.1412
  182DOPC  H11S22347   0.474   4.791  11.437  2.3165 -0.2687 -1.1389
  182DOPC  C21222348   0.255   4.773  11.393 -0.4405 -0.4866  0.1494
  182DOPC  H12R22349   0.192   4.712  11.326  1.3026 -1.3562 -0.7696
  182DOPC  H12S22350   0.218   4.877  11.383  0.7022 -0.1795 -1.3803
  182DOPC  C21322351   0.227   4.727  11.533  0.2026 -0.4688 -0.1535
  182DOPC  H13R22352   0.297   4.782  11.600  0.5829  0.8941 -1.5833
  182DOPC  H13S22353   0.244   4.619  11.549 -0.6028 -0.8372 -1.5902
  182DOPC  C21422354   0.083   4.749  11.563  0.5940 -0.2900  0.6072
  182DOPC  H14R22355   0.019   4.678  11.505 -1.4273  1.0606  1.0683
  182DOPC  H14S22356   0.045   4.849  11.533  1.0704 -0.6148 -1.1461
  182DOPC  C21522357   0.052   4.737  11.708 -0.1843  0.4533  0.0681
  182DOPC  H15R22358   0.131   4.782  11.772  0.5334 -0.4406 -0.1693
  182DOPC  H15S22359   0.043   4.633  11.747 -3.7401 -0.0065 -1.5077
  182DOPC  C21622360  -0.083   4.803  11.748  0.0743 -0.0298 -0.3169
  182DOPC  H16R22361  -0.174   4.744  11.724  0.2485 -0.2435 -0.4600
  182DOPC  H16S22362  -0.092   4.896  11.688  0.6968 -0.6230 -1.3700
  182DOPC  C21722363  -0.084   4.841  11.895 -0.2572  0.5225  0.1757
  182DOPC  H17R22364  -0.150   4.927  11.918 -0.5698 -0.3753  3.0585
  182DOPC  H17S22365   0.017   4.878  11.923  0.3280  0.5513 -1.8187
  182DOPC  C21822366  -0.116   4.726  11.997  0.3158 -0.3887  0.2105
  182DOPC  H18R22367  -0.207   4.671  11.967  0.9721 -1.1745 -0.4189
  182DOPC  H18S22368  -0.145   4.780  12.089 -2.3981  0.0305 -0.8297
  182DOPC  H18T22369  -0.027   4.661  12.015  1.7713  0.7475 -2.2774
  182DOPC   C3322370   1.049   4.422  10.665 -0.2291  0.2598  0.5114
  182DOPC   H3X22371   0.983   4.507  10.636  0.8544  0.8808 -0.2233
  182DOPC   H3Y22372   1.150   4.468  10.675  0.1567  0.3139 -2.4463
  182DOPC   C3422373   0.992   4.369  10.797  0.0321  0.5937  0.8566
  182DOPC   H4X22374   1.020   4.261  10.802 -0.8050  0.2621 -0.9617
  182DOPC   H4Y22375   0.881   4.369  10.793 -0.0409 -1.4961  1.6007
  182DOPC   C3522376   1.037   4.446  10.919 -0.0308  0.4195  0.3113
  182DOPC   H5X22377   0.971   4.534  10.935 -0.9174 -0.2236  0.2767
  182DOPC   H5Y22378   1.145   4.470  10.917  0.1534  0.0749  2.6345
  182DOPC   C3622379   1.014   4.355  11.042  1.4083  0.4006  0.2647
  182DOPC   H6X22380   0.910   4.316  11.031  1.1059  0.0523  3.3930
  182DOPC   H6Y22381   1.082   4.267  11.050  0.9024 -0.0736 -0.4480
  182DOPC   C3722382   1.019   4.434  11.175 -0.0434 -0.6710  0.4761
  182DOPC   H7X22383   1.103   4.506  11.165  1.9311 -2.9424 -0.2977
  182DOPC   H7Y22384   0.922   4.488  11.176  0.4460  0.3135  2.6910
  182DOPC   C3822385   1.034   4.358  11.310  0.0523 -0.5413  0.1157
  182DOPC   H8X22386   1.070   4.425  11.392 -0.0104 -1.9112  1.2923
  182DOPC   H8Y22387   1.108   4.279  11.284  1.3399  1.0028 -1.2415
  182DOPC   C3922388   0.902   4.306  11.355  0.1071  0.1647  0.1520
  182DOPC   H9X22389   0.860   4.213  11.316  1.1400 -1.0284  1.7709
  182DOPC  C31022390   0.814   4.373  11.432 -0.3076  0.5256  0.4306
  182DOPC  H10X22391   0.721   4.322  11.463 -0.0668  0.2768  0.7514
  182DOPC  C31122392   0.832   4.516  11.488 -0.1009  0.5020  0.3752
  182DOPC  H11X22393   0.741   4.580  11.486 -0.4198  0.0368 -0.2286
  182DOPC  H11Y22394   0.898   4.578  11.424 -0.6794  1.3373  0.5627
  182DOPC  C31222395   0.870   4.528  11.631  0.1678  0.4046 -0.8352
  182DOPC  H12X22396   0.793   4.494  11.703 -1.2686  2.5204 -1.2824
  182DOPC  H12Y22397   0.868   4.635  11.660  1.7809 -0.2720  2.2628
  182DOPC  C31322398   1.006   4.471  11.669 -0.0748  0.0344  0.1276
  182DOPC  H13X22399   1.014   4.361  11.655  1.5462  0.3549 -2.0200
  182DOPC  H13Y22400   1.080   4.510  11.595  0.4333 -0.7792  0.1917
  182DOPC  C31422401   1.049   4.506  11.813  0.5666  0.3569 -0.9256
  182DOPC  H14X22402   1.043   4.617  11.821 -1.6150  0.1616  0.8370
  182DOPC  H14Y22403   0.964   4.470  11.875  0.6936 -0.0118 -0.9633
  182DOPC  C31522404   1.189   4.463  11.860 -0.7431  0.7269 -0.4431
  182DOPC  H15X22405   1.255   4.507  11.782 -0.1675  1.3029  0.3620
  182DOPC  H15Y22406   1.189   4.353  11.843  0.0098  0.4359  1.2083
  182DOPC  C31622407   1.245   4.501  12.001 -0.0208 -0.3873  0.3634
  182DOPC  H16X22408   1.352   4.473  12.011 -0.0655 -1.1583 -1.0983
  182DOPC  H16Y22409   1.232   4.611  12.012 -0.9814 -0.5271  0.7580
  182DOPC  C31722410   1.167   4.431  12.113 -0.3622  0.0968 -0.0986
  182DOPC  H17X22411   1.058   4.426  12.091  0.0734  0.8146 -2.7550
  182DOPC  H17Y22412   1.202   4.326  12.111 -1.0762 -0.2401  2.2574
  182DOPC  C31822413   1.195   4.476  12.260  0.3855  0.2978  0.1019
  182DOPC  H18X22414   1.147   4.397  12.320  0.9767 -0.2940 -0.1971
  182DOPC  H18Y22415   1.303   4.480  12.285  0.8922 -0.9142 -1.6942
  182DOPC  H18Z22416   1.138   4.570  12.276 -0.2691 -0.3769  1.9757
  183DOPC     N22417   5.552   6.553   9.484 -0.3582 -0.3318 -0.2719
  183DOPC   C1222418   5.496   6.690   9.463  0.5837  0.4930 -0.4671
  183DOPC  H12A22419   5.514   6.748   9.552 -1.0104  0.9958 -0.4365
  183DOPC  H12B22420   5.388   6.685   9.458  0.5416  1.5251 -1.0586
  183DOPC   C1322421   5.481   6.490   9.595 -0.0301  0.3472 -0.0168
  183DOPC  H13A22422   5.510   6.387   9.605 -3.4176 -0.6193  1.5033
  183DOPC  H13B22423   5.499   6.535   9.692 -0.0136  0.0154  0.1360
  183DOPC  H13C22424   5.375   6.483   9.577 -0.0464 -0.4766  0.3638
  183DOPC   C1422425   5.698   6.562   9.520 -0.2825  0.5347  0.6509
  183DOPC  H14A22426   5.735   6.466   9.551 -0.7714  1.2773  3.8139
  183DOPC  H14B22427   5.753   6.604   9.436 -2.1358 -1.0726 -1.5123
  183DOPC  H14C22428   5.717   6.635   9.596  4.1282  1.3971 -0.9837
  183DOPC   C1522429   5.534   6.465   9.367  0.2228  0.4722  0.0098
  183DOPC  H15A22430   5.550   6.541   9.291  2.2691  1.1746  1.0665
  183DOPC  H15B22431   5.437   6.421   9.353  0.7776 -0.2189 -2.0707
  183DOPC  H15C22432   5.611   6.389   9.363  0.6179  0.8312  0.6777
  183DOPC   C1122433   5.537   6.772   9.337  0.0734  0.3512 -0.1308
  183DOPC  H11A22434   5.493   6.724   9.247 -2.2163  0.1000  1.0582
  183DOPC  H11B22435   5.499   6.876   9.347  0.4894  0.6037 -1.0695
  183DOPC     P22436   5.772   6.879   9.388  0.2244 -0.2799 -0.2795
  183DOPC   O1322437   5.833   6.964   9.282 -0.2266 -0.1502 -0.4174
  183DOPC   O1422438   5.868   6.794   9.470  0.1056  0.3019 -0.5092
  183DOPC   O1222439   5.681   6.775   9.313 -0.6454  0.3186  0.1163
  183DOPC   O1122440   5.676   6.966   9.482  0.0392 -0.0382  0.0264
  183DOPC    C122441   5.723   7.070   9.563  0.2134  0.3607  0.2487
  183DOPC    HA22442   5.654   7.156   9.571 -0.3273 -0.1153  0.8583
  183DOPC    HB22443   5.816   7.118   9.526 -0.3291  1.4452  0.2660
  183DOPC    C222444   5.745   6.998   9.696  0.3064 -0.1105  0.2252
  183DOPC    HS22445   5.807   6.911   9.667 -0.3666 -1.2710  2.0747
  183DOPC   O2122446   5.612   6.973   9.748 -0.7166 -0.1700  0.0782
  183DOPC   C2122447   5.586   6.844   9.784 -0.0827  0.0262  0.1203
  183DOPC   O2222448   5.660   6.748   9.769  0.3416 -0.6917 -0.4852
  183DOPC   C2222449   5.446   6.835   9.848 -0.1575  0.4537 -0.0682
  183DOPC   H2R22450   5.381   6.841   9.758  0.2782 -1.5005 -0.5442
  183DOPC   H2S22451   5.434   6.924   9.914  0.9398  0.4999  0.0883
  183DOPC    C322452   5.825   7.079   9.805  0.3997 -0.2740  0.4390
  183DOPC    HX22453   5.787   7.183   9.815  0.2288 -0.2636 -0.2607
  183DOPC    HY22454   5.926   7.078   9.760  0.5482  1.0703  0.7035
  183DOPC   O3122455   5.818   7.013   9.942 -0.3148  0.0511 -0.4772
  183DOPC   C3122456   5.902   7.074  10.025 -0.1966  0.1974 -0.8470
  183DOPC   O3222457   5.962   7.180  10.006 -0.1889  0.5085 -0.0911
  183DOPC   C3222458   5.948   6.969  10.133  0.2706  0.9563 -0.8781
  183DOPC   H2X22459   5.866   6.896  10.150  0.7463  0.7595  0.7784
  183DOPC   H2Y22460   6.033   6.914  10.088  1.3212  0.5190  1.4872
  183DOPC   C2322461   5.433   6.704   9.922  1.0082  0.8761 -0.1381
  183DOPC   H3R22462   5.506   6.626   9.891 -1.0828 -1.7372  1.0963
  183DOPC   H3S22463   5.332   6.659   9.912  1.5249 -1.1017  2.4410
  183DOPC   C2422464   5.451   6.710  10.074 -0.0513  0.6138  0.4148
  183DOPC   H4R22465   5.460   6.609  10.118 -0.8244 -0.6210 -2.0690
  183DOPC   H4S22466   5.365   6.761  10.123 -0.6061  0.0534  0.0475
  183DOPC   C2522467   5.570   6.790  10.128  0.4973  0.2006  1.0551
  183DOPC   H5R22468   5.539   6.893  10.101  0.8926 -0.0240 -0.3647
  183DOPC   H5S22469   5.659   6.773  10.063 -1.7122  2.7623 -3.1068
  183DOPC   C2622470   5.597   6.784  10.282 -0.1957 -0.1187  0.0610
  183DOPC   H6R22471   5.672   6.856  10.321 -0.9868 -0.7745  3.0597
  183DOPC   H6S22472   5.639   6.682  10.296 -0.6672 -0.0525  2.3648
  183DOPC   C2722473   5.476   6.805  10.371  0.5995 -0.3198  0.0127
  183DOPC   H7R22474   5.403   6.726  10.346  0.9709 -1.1814  1.5064
  183DOPC   H7S22475   5.423   6.896  10.336 -0.9349 -1.3448 -0.4174
  183DOPC   C2822476   5.500   6.811  10.523  0.0203 -0.7237  0.6252
  183DOPC   H8R22477   5.401   6.797  10.571  0.0131  0.9945  1.1712
  183DOPC   H8S22478   5.524   6.914  10.555 -0.9326 -0.6390  1.1098
  183DOPC   C2922479   5.596   6.707  10.576  0.1395  0.1829 -0.0424
  183DOPC   H9R22480   5.576   6.604  10.542 -1.1630 -1.0527  3.9586
  183DOPC  C21022481   5.677   6.718  10.682  0.2568 -0.2928  0.2245
  183DOPC  H10R22482   5.720   6.625  10.719 -0.1427  0.0705  1.6555
  183DOPC  C21122483   5.710   6.840  10.762  0.1737  0.2252  0.0879
  183DOPC  H11R22484   5.685   6.935  10.710 -0.5853  0.8015  1.4474
  183DOPC  H11S22485   5.817   6.845  10.789 -0.0593 -0.7453  1.3114
  183DOPC  C21222486   5.626   6.824  10.891  0.3608  0.4100 -0.4041
  183DOPC  H12R22487   5.615   6.714  10.906  0.9691  0.2549 -1.0138
  183DOPC  H12S22488   5.522   6.856  10.872  0.4501  0.7838 -0.2651
  183DOPC  C21322489   5.688   6.881  11.011  0.2078 -0.2489 -0.2609
  183DOPC  H13R22490   5.690   6.991  10.995 -1.8420 -0.2583 -0.9154
  183DOPC  H13S22491   5.795   6.850  11.017  0.9233  1.2340 -3.1684
  183DOPC  C21422492   5.609   6.843  11.143  0.4208  0.4456 -0.5486
  183DOPC  H14R22493   5.594   6.733  11.149  0.0815  0.5639  2.6747
  183DOPC  H14S22494   5.508   6.886  11.128  0.9918  1.5986 -1.2165
  183DOPC  C21522495   5.679   6.901  11.263  0.7200  0.0844 -0.6641
  183DOPC  H15R22496   5.665   7.011  11.270  0.2574 -0.0522  1.0671
  183DOPC  H15S22497   5.789   6.888  11.259  0.7216  0.2931 -1.7054
  183DOPC  C21622498   5.626   6.839  11.390 -0.3054 -0.6587 -0.3625
  183DOPC  H16R22499   5.665   6.735  11.384  0.2100 -0.4539 -0.6384
  183DOPC  H16S22500   5.515   6.839  11.391 -0.3614 -0.1121  2.5751
  183DOPC  C21722501   5.661   6.912  11.520  0.4071 -0.5381  0.3259
  183DOPC  H17R22502   5.626   7.017  11.507  2.1372  0.6431  3.8964
  183DOPC  H17S22503   5.771   6.926  11.527  0.6387 -0.6161 -2.2213
  183DOPC  C21822504   5.591   6.847  11.644  0.2288  0.5870  0.3496
  183DOPC  H18R22505   5.483   6.871  11.647  0.2940  0.8520  0.7363
  183DOPC  H18S22506   5.637   6.883  11.738  0.7465 -0.0174  0.3408
  183DOPC  H18T22507   5.608   6.737  11.637  1.3806  0.8182 -1.2113
  183DOPC   C3322508   5.978   7.033  10.277  0.0111  1.0163 -0.4153
  183DOPC   H3X22509   5.889   7.082  10.322  0.1191  2.0841 -1.3231
  183DOPC   H3Y22510   6.058   7.106  10.254  1.5600 -0.6311 -0.4604
  183DOPC   C3422511   6.028   6.914  10.368  0.0933  0.0350  0.5961
  183DOPC   H4X22512   6.132   6.886  10.342  0.0103  0.9551 -0.8252
  183DOPC   H4Y22513   5.955   6.833  10.347 -1.3731  1.2534  0.7970
  183DOPC   C3522514   6.020   6.946  10.514 -0.3814 -1.5077 -0.0508
  183DOPC   H5X22515   6.049   6.853  10.567 -2.2121 -1.4862  1.0682
  183DOPC   H5Y22516   5.919   6.973  10.551  0.9445 -0.6614  3.3075
  183DOPC   C3622517   6.121   7.057  10.559 -0.8545 -0.1540  0.4506
  183DOPC   H6X22518   6.221   7.032  10.517 -0.0512  0.7539  1.7209
  183DOPC   H6Y22519   6.097   7.160  10.523 -2.1100 -0.9612 -1.1972
  183DOPC   C3722520   6.148   7.060  10.715  0.0554 -0.3311  0.3163
  183DOPC   H7X22521   6.164   6.957  10.754  0.5186  0.4102  2.2241
  183DOPC   H7Y22522   6.247   7.103  10.739  0.5157 -1.8176  1.2666
  183DOPC   C3822523   6.036   7.134  10.786  0.0247 -0.4661 -0.6377
  183DOPC   H8X22524   5.936   7.122  10.740 -1.2857  3.2500  0.8683
  183DOPC   H8Y22525   6.051   7.243  10.768  1.0558 -0.7030 -1.3211
  183DOPC   C3922526   6.035   7.102  10.936 -0.2947 -0.2218  0.0293
  183DOPC   H9X22527   5.964   7.026  10.972  0.5725  0.1651  2.7869
  183DOPC  C31022528   6.112   7.159  11.035 -0.0979  0.9190  0.0954
  183DOPC  H10X22529   6.083   7.142  11.140 -0.0527  0.0486 -0.0264
  183DOPC  C31122530   6.216   7.262  11.003 -0.1888  0.2639 -0.6439
  183DOPC  H11X22531   6.195   7.305  10.903  0.0879  0.1626 -0.7457
  183DOPC  H11Y22532   6.312   7.206  11.004 -1.3114 -1.7560  0.5480
  183DOPC  C31222533   6.210   7.373  11.118 -0.3168 -0.2378  0.2910
  183DOPC  H12X22534   6.106   7.405  11.138 -0.5404 -1.2071  0.7580
  183DOPC  H12Y22535   6.270   7.464  11.096 -1.7878  0.2377 -2.2347
  183DOPC  C31322536   6.258   7.324  11.256 -0.4712 -0.4737 -0.1020
  183DOPC  H13X22537   6.170   7.270  11.297 -1.0931  1.7296  1.7226
  183DOPC  H13Y22538   6.342   7.252  11.255 -1.0656 -1.2379  1.5059
  183DOPC  C31422539   6.265   7.440  11.354 -0.1154 -0.1034 -0.3662
  183DOPC  H14X22540   6.358   7.493  11.324  0.8341 -1.5683 -0.1389
  183DOPC  H14Y22541   6.174   7.504  11.352 -0.0745 -0.0548 -1.4035
  183DOPC  C31522542   6.273   7.387  11.501  0.0844  0.3165  0.2030
  183DOPC  H15X22543   6.371   7.335  11.509 -0.0630  0.2140  1.5388
  183DOPC  H15Y22544   6.194   7.309  11.503 -1.1550  1.5656  0.8346
  183DOPC  C31622545   6.248   7.491  11.612  0.6812  1.0661  0.4510
  183DOPC  H16X22546   6.321   7.573  11.594 -0.3455  2.2529  1.5256
  183DOPC  H16Y22547   6.145   7.529  11.593 -0.2915 -0.7540  1.7232
  183DOPC  C31722548   6.260   7.454  11.759  0.4186  0.4733 -0.4322
  183DOPC  H17X22549   6.230   7.533  11.832 -1.1602 -1.8493  1.6342
  183DOPC  H17Y22550   6.191   7.371  11.788  0.0494  0.6010 -0.9350
  183DOPC  C31822551   6.400   7.406  11.794  0.2745 -0.0748  0.2324
  183DOPC  H18X22552   6.477   7.481  11.766  0.3015 -0.3858 -0.5243
  183DOPC  H18Y22553   6.411   7.377  11.901 -0.3095  0.7229  0.5193
  183DOPC  H18Z22554   6.419   7.313  11.737 -1.1529  0.1222 -0.5909
  184DOPC     N22555   3.851   3.570   9.718 -0.4853  0.1564 -0.6998
  184DOPC   C1222556   3.718   3.559   9.652 -0.1147  0.5514  0.3815
  184DOPC  H12A22557   3.722   3.562   9.544 -0.7153  1.6191  0.3797
  184DOPC  H12B22558   3.666   3.652   9.667 -0.6688  0.8087 -2.4779
  184DOPC   C1322559   3.950   3.466   9.660 -0.0648 -0.1118  0.2107
  184DOPC  H13A22560   3.916   3.367   9.689 -1.5777  0.4750  0.5700
  184DOPC  H13B22561   3.964   3.481   9.555 -0.0632  0.6732  0.3221
  184DOPC  H13C22562   4.044   3.473   9.713 -0.5007  2.0070  0.8007
  184DOPC   C1422563   3.844   3.556   9.864 -0.3274  0.0605 -0.1048
  184DOPC  H14A22564   3.800   3.464   9.900 -1.5120  0.7921  0.4077
  184DOPC  H14B22565   3.941   3.568   9.910 -0.9221  0.4413  1.1182
  184DOPC  H14C22566   3.781   3.631   9.912 -2.5198 -1.4041 -0.5327
  184DOPC   C1522567   3.907   3.704   9.690 -0.2385 -0.2882 -0.2182
  184DOPC  H15A22568   4.012   3.707   9.718 -0.3647  1.1528  0.1672
  184DOPC  H15B22569   3.856   3.784   9.742  0.4797  1.8202 -2.5698
  184DOPC  H15C22570   3.906   3.732   9.586  0.6937  3.1737  0.5765
  184DOPC   C1122571   3.623   3.441   9.695  0.6960  0.6701 -0.1539
  184DOPC  H11A22572   3.537   3.438   9.626 -0.8493 -3.3414  1.6813
  184DOPC  H11B22573   3.671   3.342   9.683  0.0527  0.2557  0.5939
  184DOPC     P22574   3.466   3.569   9.866  0.2517  0.1903 -0.1994
  184DOPC   O1322575   3.336   3.502   9.885 -0.5820 -0.5727  0.2150
  184DOPC   O1422576   3.479   3.677   9.765 -0.6690 -0.4606  0.2779
  184DOPC   O1222577   3.569   3.461   9.823 -0.0296  0.6664 -0.4988
  184DOPC   O1122578   3.520   3.608  10.006  0.4178  0.0590  0.3420
  184DOPC    C122579   3.549   3.501  10.107  0.2128  0.2641 -0.3970
  184DOPC    HA22580   3.622   3.421  10.082  0.0065 -0.6550  1.7302
  184DOPC    HB22581   3.457   3.440  10.123  1.2402 -2.1902 -2.8842
  184DOPC    C222582   3.579   3.562  10.250 -0.5518 -1.4451 -0.5488
  184DOPC    HS22583   3.516   3.505  10.321 -1.8133 -0.3117 -0.7229
  184DOPC   O2122584   3.550   3.699  10.262  0.6752 -0.0245  0.2782
  184DOPC   C2122585   3.414   3.724  10.272  0.1994  0.7732 -0.0691
  184DOPC   O2222586   3.327   3.648  10.241  0.6988 -0.5084  0.3415
  184DOPC   C2222587   3.392   3.871  10.314 -0.1441 -0.4303 -0.1822
  184DOPC   H2R22588   3.316   3.919  10.249  0.2811 -0.5618 -0.7832
  184DOPC   H2S22589   3.492   3.919  10.299  0.3223 -2.0497 -2.9646
  184DOPC    C322590   3.734   3.549  10.276  0.3663 -0.4126 -0.4416
  184DOPC    HX22591   3.766   3.627  10.204 -0.3720  0.9520  0.6702
  184DOPC    HY22592   3.781   3.453  10.245  2.5770  0.1417  0.9442
  184DOPC   O3122593   3.777   3.582  10.407  0.6193  0.2745 -0.3369
  184DOPC   C3122594   3.741   3.488  10.496  1.0560 -0.4100  0.1149
  184DOPC   O3222595   3.679   3.388  10.478 -0.1852 -0.1212  0.4268
  184DOPC   C3222596   3.817   3.521  10.628 -0.3209 -0.4033 -0.5635
  184DOPC   H2X22597   3.921   3.484  10.629 -0.5126 -0.9363 -0.3764
  184DOPC   H2Y22598   3.812   3.631  10.647  0.4324 -0.4090 -0.2823
  184DOPC   C2322599   3.341   3.887  10.460  0.1411  0.0080 -0.1241
  184DOPC   H3R22600   3.332   3.995  10.482 -0.2058 -0.2965  1.3679
  184DOPC   H3S22601   3.420   3.857  10.533 -1.3793  0.0372  1.5989
  184DOPC   C2422602   3.207   3.817  10.487  0.2992  0.3450 -0.5784
  184DOPC   H4R22603   3.230   3.709  10.487 -1.7670 -0.1316 -0.0121
  184DOPC   H4S22604   3.140   3.846  10.403 -2.5585  0.2653  1.5388
  184DOPC   C2522605   3.114   3.869  10.600 -0.4337 -0.4674  0.1188
  184DOPC   H5R22606   3.009   3.844  10.573  0.1544 -1.1794 -1.6550
  184DOPC   H5S22607   3.106   3.979  10.603  1.1104 -0.3502  0.3656
  184DOPC   C2622608   3.141   3.805  10.741 -0.7623 -0.8668  0.2875
  184DOPC   H6R22609   3.248   3.777  10.751 -1.0366 -1.6615  1.1444
  184DOPC   H6S22610   3.075   3.719  10.764 -0.4841 -0.6807  1.9289
  184DOPC   C2722611   3.123   3.910  10.852  0.4205  0.2403  0.2824
  184DOPC   H7R22612   3.021   3.949  10.834  0.4465  0.2015  0.0472
  184DOPC   H7S22613   3.197   3.993  10.841 -1.1987  1.5281 -1.3313
  184DOPC   C2822614   3.140   3.850  10.992  0.4656  0.1208 -0.0195
  184DOPC   H8R22615   3.240   3.802  10.997  0.0435 -0.6640  1.3278
  184DOPC   H8S22616   3.059   3.774  10.992  0.1316  0.4753 -0.0281
  184DOPC   C2922617   3.130   3.962  11.095 -0.1464 -0.1200 -0.5617
  184DOPC   H9R22618   3.199   4.047  11.086 -0.4143  0.3863  1.6017
  184DOPC  C21022619   3.057   3.950  11.212 -0.2469 -0.0217 -0.0101
  184DOPC  H10R22620   3.066   4.035  11.281 -0.0658 -0.1636  0.1426
  184DOPC  C21122621   2.955   3.833  11.240  0.3371 -0.2982  0.9992
  184DOPC  H11R22622   2.981   3.739  11.187  0.7050 -0.0147  0.6641
  184DOPC  H11S22623   2.854   3.858  11.201 -0.2386 -1.4131  1.7278
  184DOPC  C21222624   2.942   3.804  11.386  0.9706  0.4340  0.4509
  184DOPC  H12R22625   3.041   3.773  11.426  1.3681  0.6156 -0.3609
  184DOPC  H12S22626   2.874   3.717  11.397  2.0235 -0.5090 -0.2780
  184DOPC  C21322627   2.869   3.921  11.453  0.0169 -0.0736  0.2349
  184DOPC  H13R22628   2.786   3.940  11.382  1.5959 -1.0671 -2.0008
  184DOPC  H13S22629   2.943   4.003  11.461 -1.2600  1.1630 -0.1137
  184DOPC  C21422630   2.808   3.902  11.586  0.0780 -0.2396 -1.1007
  184DOPC  H14R22631   2.712   3.847  11.576  1.2168 -2.7392  0.7461
  184DOPC  H14S22632   2.790   4.002  11.630 -1.2729 -1.6750  1.9192
  184DOPC  C21522633   2.895   3.821  11.686  0.0388  0.4165 -0.5218
  184DOPC  H15R22634   2.996   3.867  11.689 -0.4788  1.5977 -0.2986
  184DOPC  H15S22635   2.897   3.714  11.659 -1.2371  0.1646  0.3009
  184DOPC  C21622636   2.849   3.838  11.836 -0.1739 -0.8737  0.2204
  184DOPC  H16R22637   2.761   3.775  11.860 -0.8845  0.3030  0.7725
  184DOPC  H16S22638   2.814   3.940  11.864  2.2821  0.1215 -0.1301
  184DOPC  C21722639   2.963   3.792  11.926 -0.4045  0.1598  0.0660
  184DOPC  H17R22640   3.040   3.870  11.912 -0.9390  0.4352 -1.4977
  184DOPC  H17S22641   3.009   3.700  11.885  1.5801  0.6543  1.0589
  184DOPC  C21822642   2.927   3.781  12.075  0.0956  0.4678  0.2365
  184DOPC  H18R22643   2.896   3.880  12.114  2.9401  2.1435 -1.3527
  184DOPC  H18S22644   3.018   3.743  12.126 -0.6854 -0.6944  0.8167
  184DOPC  H18T22645   2.845   3.709  12.096  1.1019 -0.0682  2.6978
  184DOPC   C3322646   3.736   3.470  10.750 -0.7702 -0.8798 -0.0740
  184DOPC   H3X22647   3.737   3.359  10.750  0.4376 -0.9220 -2.1421
  184DOPC   H3Y22648   3.637   3.520  10.743  0.8580  2.5267 -0.6585
  184DOPC   C3422649   3.794   3.513  10.889  0.6034  0.2785  0.6679
  184DOPC   H4X22650   3.753   3.614  10.912 -1.7958 -0.4268 -0.2394
  184DOPC   H4Y22651   3.904   3.526  10.876  0.7514  0.1788  1.7338
  184DOPC   C3522652   3.758   3.423  11.004 -0.5903 -0.3515  0.2274
  184DOPC   H5X22653   3.804   3.322  10.993 -1.3158 -0.8193  1.3449
  184DOPC   H5Y22654   3.649   3.405  11.007 -0.8235  0.4559 -1.6528
  184DOPC   C3622655   3.813   3.473  11.137 -0.0583 -0.0509 -0.4584
  184DOPC   H6X22656   3.921   3.444  11.142  0.1974  0.9360  0.0685
  184DOPC   H6Y22657   3.796   3.582  11.147 -0.8353 -0.2509  0.4846
  184DOPC   C3722658   3.724   3.403  11.240  0.2321  0.0560 -0.2485
  184DOPC   H7X22659   3.618   3.431  11.218  0.1689 -0.2724 -0.3697
  184DOPC   H7Y22660   3.727   3.293  11.221 -1.0942  0.0577 -0.5834
  184DOPC   C3822661   3.762   3.430  11.387 -0.4794 -0.0861 -0.6264
  184DOPC   H8X22662   3.757   3.539  11.405 -2.1259  0.0876 -1.8736
  184DOPC   H8Y22663   3.864   3.396  11.414 -0.5536  1.4902  1.9206
  184DOPC   C3922664   3.667   3.365  11.483  0.5939 -1.0140 -0.3833
  184DOPC   H9X22665   3.566   3.372  11.441  0.8037 -0.9560 -0.8915
  184DOPC  C31022666   3.690   3.310  11.605 -0.0450 -0.8591 -0.6386
  184DOPC  H10X22667   3.601   3.273  11.658 -1.5573 -1.5093 -3.4665
  184DOPC  C31122668   3.825   3.291  11.667 -0.3968  0.3023 -0.3075
  184DOPC  H11X22669   3.913   3.332  11.612  0.5499 -0.5792  0.4956
  184DOPC  H11Y22670   3.842   3.183  11.682 -2.1305 -0.0674 -0.8294
  184DOPC  C31222671   3.842   3.354  11.810  0.1601 -0.1773  0.6922
  184DOPC  H12X22672   3.808   3.460  11.810  3.2379  0.9162  2.2500
  184DOPC  H12Y22673   3.948   3.346  11.841 -0.2114 -1.3062  1.7986
  184DOPC  C31322674   3.755   3.284  11.919 -0.0911 -0.7394 -0.8084
  184DOPC  H13X22675   3.646   3.280  11.901 -1.0070 -0.6817  3.5290
  184DOPC  H13Y22676   3.791   3.181  11.941  0.1107 -0.3191  0.9724
  184DOPC  C31422677   3.774   3.350  12.055  0.7109  0.7288 -0.5417
  184DOPC  H14X22678   3.882   3.361  12.080  0.3832  0.1951  1.2871
  184DOPC  H14Y22679   3.730   3.452  12.048  0.9990  1.0027  1.0843
  184DOPC  C31522680   3.699   3.267  12.159 -0.3272  0.6849 -0.9631
  184DOPC  H15X22681   3.725   3.160  12.146 -2.9413 -0.2137  0.4076
  184DOPC  H15Y22682   3.590   3.268  12.139 -0.2831  1.2402 -1.1746
  184DOPC  C31622683   3.718   3.310  12.308  0.2435 -0.0812 -0.4964
  184DOPC  H16X22684   3.825   3.334  12.330 -0.1323  0.4348  0.8849
  184DOPC  H16Y22685   3.650   3.395  12.327  0.4851  0.4106 -1.7388
  184DOPC  C31722686   3.670   3.210  12.411 -0.1517 -0.5744 -0.9440
  184DOPC  H17X22687   3.560   3.222  12.425  0.0594  1.0661 -0.5189
  184DOPC  H17Y22688   3.701   3.105  12.390  0.7032 -0.6948  0.7553
  184DOPC  C31822689   3.729   3.251  12.552  0.6251 -0.0261 -0.0652
  184DOPC  H18X22690   3.767   3.161  12.604 -2.1341 -0.2518  1.7859
  184DOPC  H18Y22691   3.810   3.326  12.544  2.3264 -1.4563  2.3172
  184DOPC  H18Z22692   3.652   3.289  12.623  0.8533 -2.1318  1.3994
  185DOPC     N22693   4.371   1.536   9.507  0.0037  0.0060  0.7927
  185DOPC   C1222694   4.484   1.489   9.592  0.5020 -0.2728 -0.3931
  185DOPC  H12A22695   4.447   1.407   9.652  0.2013 -1.1269 -1.7044
  185DOPC  H12B22696   4.517   1.564   9.661 -0.8400  1.4222 -1.5161
  185DOPC   C1322697   4.258   1.566   9.601 -0.7988 -0.0345  0.5545
  185DOPC  H13A22698   4.285   1.624   9.687 -0.8934  1.0529 -0.1351
  185DOPC  H13B22699   4.172   1.611   9.554 -2.8284 -3.9978 -0.0026
  185DOPC  H13C22700   4.226   1.472   9.643  2.2382 -1.3313  0.2354
  185DOPC   C1422701   4.326   1.427   9.410  0.2975 -0.1145 -0.1437
  185DOPC  H14A22702   4.394   1.416   9.326 -0.3431  0.6404 -0.7728
  185DOPC  H14B22703   4.310   1.337   9.466 -1.6745  0.5183  0.3922
  185DOPC  H14C22704   4.231   1.465   9.374 -0.1973 -0.4915  0.7514
  185DOPC   C1522705   4.404   1.656   9.422  0.4301 -0.1416 -0.0901
  185DOPC  H15A22706   4.485   1.637   9.353 -0.9483 -1.1631 -1.4856
  185DOPC  H15B22707   4.439   1.739   9.483 -0.1771  1.4646 -1.8387
  185DOPC  H15C22708   4.329   1.687   9.351 -0.9774 -0.1150  1.3477
  185DOPC   C1122709   4.618   1.459   9.519  0.6997  0.2665  0.0037
  185DOPC  H11A22710   4.695   1.420   9.589  1.4803 -1.0037 -1.5084
  185DOPC  H11B22711   4.598   1.373   9.451 -0.2368 -1.4409  2.2782
  185DOPC     P22712   4.745   1.687   9.494  0.3435 -0.0569 -0.0236
  185DOPC   O1322713   4.695   1.805   9.425  0.0057  0.3530  0.2556
  185DOPC   O1422714   4.891   1.663   9.496 -0.3685  0.1534 -0.1766
  185DOPC   O1222715   4.679   1.559   9.440 -0.1490 -0.0145  0.3541
  185DOPC   O1122716   4.690   1.688   9.641  0.6546  0.2702 -0.3248
  185DOPC    C122717   4.770   1.736   9.751  0.1692 -0.3339  0.6365
  185DOPC    HA22718   4.703   1.790   9.822 -1.1691  0.3701 -1.0885
  185DOPC    HB22719   4.838   1.817   9.717 -0.3836  0.5544  1.5720
  185DOPC    C222720   4.819   1.621   9.845  1.0670  0.3874  0.0408
  185DOPC    HS22721   4.911   1.576   9.804  2.6067  2.5888  0.8975
  185DOPC   O2122722   4.712   1.526   9.860  0.0806 -0.4112 -0.3586
  185DOPC   C2122723   4.743   1.405   9.901 -0.7533 -0.5223  0.4951
  185DOPC   O2222724   4.860   1.366   9.913  0.1935 -0.3604  0.2537
  185DOPC   C2222725   4.617   1.324   9.920  0.3691  0.2592  0.0486
  185DOPC   H2R22726   4.623   1.228   9.865  1.9301 -0.0193  0.6447
  185DOPC   H2S22727   4.529   1.384   9.889 -0.1114  1.4557  3.3142
  185DOPC    C322728   4.862   1.691   9.976  0.1090 -0.2197  0.1511
  185DOPC    HX22729   4.778   1.743  10.028  1.2263  2.1126 -0.2405
  185DOPC    HY22730   4.929   1.779   9.969 -1.6528  1.2047  0.4124
  185DOPC   O3122731   4.912   1.613  10.081 -0.5904  0.0962 -0.3324
  185DOPC   C3122732   5.042   1.575  10.078  0.2958 -0.2096 -0.2658
  185DOPC   O3222733   5.115   1.595   9.980  0.1260  0.2519 -0.0835
  185DOPC   C3222734   5.096   1.515  10.210 -0.0331 -0.9202  0.4597
  185DOPC   H2X22735   5.190   1.466  10.177  0.4753  0.2402  0.1538
  185DOPC   H2Y22736   5.111   1.596  10.285 -1.0919  0.6168 -0.9339
  185DOPC   C2322737   4.600   1.287  10.069  0.7149 -0.4062  0.3025
  185DOPC   H3R22738   4.676   1.218  10.109 -0.0769  0.5999  3.8846
  185DOPC   H3S22739   4.501   1.237  10.083 -0.0632  1.6460  2.9554
  185DOPC   C2422740   4.591   1.423  10.143  0.5813 -0.1181  0.0039
  185DOPC   H4R22741   4.508   1.477  10.092 -1.2274 -2.3442  0.4349
  185DOPC   H4S22742   4.685   1.482  10.145  0.2570  0.4216 -0.4311
  185DOPC   C2522743   4.545   1.403  10.289 -0.1437 -0.2067 -0.8249
  185DOPC   H5R22744   4.609   1.330  10.343  2.4513  0.8386 -2.2624
  185DOPC   H5S22745   4.446   1.353  10.294 -1.4665  2.3522  0.4019
  185DOPC   C2622746   4.527   1.536  10.360  0.1023  0.3185 -0.2794
  185DOPC   H6R22747   4.508   1.619  10.289 -0.7597  1.4317  1.1670
  185DOPC   H6S22748   4.618   1.564  10.418 -0.0949 -1.8754  1.2138
  185DOPC   C2722749   4.419   1.535  10.459 -0.5899 -0.3384 -0.8741
  185DOPC   H7R22750   4.323   1.509  10.410 -1.0339 -2.2088  0.8301
  185DOPC   H7S22751   4.411   1.637  10.502  0.0780 -0.8090  0.4323
  185DOPC   C2822752   4.429   1.435  10.571  0.3774  0.0756 -0.0421
  185DOPC   H8R22753   4.419   1.333  10.527  1.6600 -1.4204  2.8063
  185DOPC   H8S22754   4.341   1.453  10.637  1.6489  0.1384  1.7167
  185DOPC   C2922755   4.559   1.441  10.647  0.6104 -0.4123  0.1011
  185DOPC   H9R22756   4.639   1.401  10.584  1.3689  1.7040 -0.3837
  185DOPC  C21022757   4.588   1.507  10.766 -0.6666  0.5821  0.7803
  185DOPC  H10R22758   4.691   1.499  10.805 -0.2090 -3.2515 -0.7145
  185DOPC  C21122759   4.491   1.575  10.860  0.4886 -0.0648 -0.6461
  185DOPC  H11R22760   4.389   1.567  10.816  1.3908 -1.2011 -2.6835
  185DOPC  H11S22761   4.505   1.685  10.858 -1.1836  0.1799 -0.1922
  185DOPC  C21222762   4.489   1.539  11.013  0.1406  0.4676 -0.0320
  185DOPC  H12R22763   4.451   1.437  11.034 -0.6965  1.0029  1.1137
  185DOPC  H12S22764   4.421   1.616  11.054 -0.6354 -0.2256 -0.0008
  185DOPC  C21322765   4.620   1.559  11.090  0.2158  0.1855  0.1602
  185DOPC  H13R22766   4.656   1.664  11.082  0.5865  0.1368  1.0524
  185DOPC  H13S22767   4.692   1.494  11.036  0.0374 -0.0970  0.2592
  185DOPC  C21422768   4.623   1.515  11.240  0.1358 -0.4657 -0.1551
  185DOPC  H14R22769   4.722   1.511  11.291 -0.0866  1.1184  0.4396
  185DOPC  H14S22770   4.596   1.407  11.232  0.3799 -0.5068 -0.4571
  185DOPC  C21522771   4.543   1.608  11.323  0.5091 -0.4318 -0.0045
  185DOPC  H15R22772   4.490   1.553  11.405  1.1620 -1.4360 -0.2345
  185DOPC  H15S22773   4.471   1.658  11.255  1.5640 -0.4600 -1.1780
  185DOPC  C21622774   4.607   1.726  11.404 -0.3047 -0.3170  1.1236
  185DOPC  H16R22775   4.691   1.688  11.465  1.3465  0.4549 -0.5923
  185DOPC  H16S22776   4.525   1.766  11.468 -0.9696  0.8488 -0.3998
  185DOPC  C21722777   4.665   1.845  11.320 -1.1516 -0.4620  0.0702
  185DOPC  H17R22778   4.739   1.793  11.255  0.2970 -1.3516  2.3127
  185DOPC  H17S22779   4.733   1.906  11.383 -0.2704 -1.3742  0.0244
  185DOPC  C21822780   4.567   1.925  11.236  0.5446 -0.0079 -0.0980
  185DOPC  H18R22781   4.620   2.016  11.201 -0.5070 -0.0102 -1.7947
  185DOPC  H18S22782   4.479   1.960  11.293  1.5732 -0.3508  1.8015
  185DOPC  H18T22783   4.535   1.874  11.143  0.5978 -0.4668  0.1355
  185DOPC   C3322784   4.997   1.410  10.255  0.7064  0.0354  0.9007
  185DOPC   H3X22785   4.947   1.347  10.178 -0.8969 -0.1400  2.0273
  185DOPC   H3Y22786   4.909   1.466  10.295  1.2544  1.2225  0.4629
  185DOPC   C3422787   5.053   1.334  10.381 -0.5367  0.0412  0.4217
  185DOPC   H4X22788   5.083   1.412  10.454  0.8022 -0.6995  0.6759
  185DOPC   H4Y22789   5.141   1.273  10.351 -0.3961  0.2716  0.3626
  185DOPC   C3522790   4.940   1.252  10.444  0.6633  0.2142  0.1507
  185DOPC   H5X22791   4.904   1.183  10.365  3.1333 -0.2607 -0.6544
  185DOPC   H5Y22792   4.850   1.312  10.470  0.2237 -0.3257 -0.0964
  185DOPC   C3622793   4.981   1.164  10.567 -0.4656  0.6467 -0.7982
  185DOPC   H6X22794   4.895   1.104  10.604  1.3984 -1.3094  0.5088
  185DOPC   H6Y22795   5.045   1.086  10.522 -2.2237 -1.2308 -0.1913
  185DOPC   C3722796   5.052   1.242  10.679  0.3940 -0.0569  0.2455
  185DOPC   H7X22797   5.152   1.274  10.642 -0.0320  0.5100 -0.4343
  185DOPC   H7Y22798   5.003   1.340  10.700  2.9178  1.4593 -0.4625
  185DOPC   C3822799   5.076   1.167  10.805  0.1518  0.3268  0.7648
  185DOPC   H8X22800   5.136   1.075  10.786 -3.8028 -2.7280  1.6957
  185DOPC   H8Y22801   4.976   1.125  10.828 -0.0279  0.4295  0.1962
  185DOPC   C3922802   5.133   1.250  10.921 -0.0959  0.6223  1.0344
  185DOPC   H9X22803   5.215   1.319  10.895  0.4898 -0.1857  0.6854
  185DOPC  C31022804   5.076   1.261  11.043  0.6274 -0.0513 -0.0035
  185DOPC  H10X22805   5.123   1.325  11.119 -1.0834  1.9765 -0.5432
  185DOPC  C31122806   4.954   1.192  11.110 -0.4406  0.4296  0.9081
  185DOPC  H11X22807   4.909   1.118  11.040  1.5992 -1.4533  1.4696
  185DOPC  H11Y22808   4.879   1.269  11.138  0.8119  2.0186  0.0100
  185DOPC  C31222809   4.987   1.122  11.245 -0.3852 -0.0090  0.2603
  185DOPC  H12X22810   5.070   1.051  11.228 -1.7603 -1.3662 -1.1454
  185DOPC  H12Y22811   4.894   1.064  11.262 -0.6369 -0.4109 -2.1413
  185DOPC  C31322812   5.029   1.208  11.366  0.7001  0.5168  0.2365
  185DOPC  H13X22813   5.136   1.237  11.370  0.4144  1.5902  0.4235
  185DOPC  H13Y22814   4.969   1.301  11.364 -1.7625 -0.9500 -2.6157
  185DOPC  C31422815   5.008   1.132  11.492  0.2734 -0.2042 -0.7549
  185DOPC  H14X22816   4.898   1.124  11.509  0.5134  1.3668  2.2813
  185DOPC  H14Y22817   5.037   1.025  11.487 -2.0674 -0.9773  0.5089
  185DOPC  C31522818   5.073   1.201  11.616 -0.5176 -0.5300 -0.1665
  185DOPC  H15X22819   5.049   1.308  11.600 -0.3552 -0.0821  2.2525
  185DOPC  H15Y22820   5.183   1.194  11.608 -0.3841  0.8605  0.2733
  185DOPC  C31622821   5.026   1.150  11.751  0.7156  0.2156 -0.9376
  185DOPC  H16X22822   4.915   1.155  11.764  0.6756 -0.3394 -1.0237
  185DOPC  H16Y22823   5.051   1.042  11.763 -1.4920 -0.1223  1.7491
  185DOPC  C31722824   5.088   1.222  11.870  0.6466 -0.0410  0.6226
  185DOPC  H17X22825   5.199   1.222  11.871  0.6814 -1.0622 -0.7466
  185DOPC  H17Y22826   5.057   1.329  11.867  2.2790  0.4470 -1.9370
  185DOPC  C31822827   5.027   1.148  11.999 -0.7273  0.0888 -0.3905
  185DOPC  H18X22828   5.063   1.214  12.081 -0.6981  3.0781 -2.6406
  185DOPC  H18Y22829   4.917   1.142  11.985 -0.9529  0.4295  1.0656
  185DOPC  H18Z22830   5.073   1.047  12.006 -0.5696  0.2337  0.9837
  186DOPC     N22831   6.170   4.877  10.072  0.6814 -0.0172 -0.5894
  186DOPC   C1222832   6.128   4.909   9.932 -0.5868 -0.5606 -0.0902
  186DOPC  H12A22833   6.094   4.817   9.887  0.6973 -1.6022  1.0049
  186DOPC  H12B22834   6.218   4.936   9.877 -1.4455  0.7376 -0.9218
  186DOPC   C1322835   6.049   4.842  10.161  0.1812 -0.3904  0.1697
  186DOPC  H13A22836   6.095   4.812  10.254  0.7475 -3.5670 -1.0073
  186DOPC  H13B22837   5.989   4.931  10.165 -0.3582 -0.6923 -0.8142
  186DOPC  H13C22838   5.998   4.754  10.125  1.1253 -1.5662  1.5843
  186DOPC   C1422839   6.244   4.991  10.133  0.2794  0.3280  0.2644
  186DOPC  H14A22840   6.188   5.082  10.135 -0.9766 -0.4326  0.8915
  186DOPC  H14B22841   6.266   4.960  10.234  1.8243  0.6232  0.0414
  186DOPC  H14C22842   6.339   4.999  10.083  0.5806 -1.5282  0.4581
  186DOPC   C1522843   6.262   4.756  10.062  0.5755 -0.3940  0.5072
  186DOPC  H15A22844   6.349   4.776  10.002 -0.0816 -1.4933 -0.8556
  186DOPC  H15B22845   6.212   4.671  10.018 -0.4409  0.3033  0.2851
  186DOPC  H15C22846   6.281   4.717  10.161 -0.9092  0.5577  1.2040
  186DOPC   C1122847   6.027   5.026   9.920  0.0828  0.5256 -0.4030
  186DOPC  H11A22848   6.070   5.107   9.983  1.3645 -0.9742  0.7558
  186DOPC  H11B22849   6.030   5.065   9.817  2.2490  1.7686  0.0705
  186DOPC     P22850   5.801   4.906   9.860  0.2969 -0.2498 -0.1574
  186DOPC   O1322851   5.864   4.776   9.810  0.6224  0.0191  0.0044
  186DOPC   O1422852   5.759   5.003   9.760  0.1214 -0.6279 -0.2069
  186DOPC   O1222853   5.894   4.987   9.965 -0.3144  0.7369 -0.0060
  186DOPC   O1122854   5.676   4.870   9.951 -0.4101 -0.3834  0.0210
  186DOPC    C122855   5.589   4.975  10.006  0.1740  0.3503  0.0635
  186DOPC    HA22856   5.494   4.924  10.034  0.9929 -2.3803 -1.7325
  186DOPC    HB22857   5.571   5.061   9.937 -2.2332 -1.1371 -1.2777
  186DOPC    C222858   5.634   5.042  10.144  0.3991 -0.0819 -0.5507
  186DOPC    HS22859   5.740   5.069  10.129 -0.3914  2.1964 -2.8030
  186DOPC   O2122860   5.614   4.946  10.250 -0.4193 -0.5063  0.3425
  186DOPC   C2122861   5.701   4.965  10.356 -0.5229  0.1875 -0.3377
  186DOPC   O2222862   5.793   5.043  10.364  0.3037  0.4721 -0.7401
  186DOPC   C2222863   5.661   4.859  10.467  0.3204 -0.2867  0.6431
  186DOPC   H2R22864   5.689   4.759  10.430 -0.4899  1.0330 -4.1618
  186DOPC   H2S22865   5.554   4.874  10.495 -0.0942 -0.3532 -0.8071
  186DOPC    C322866   5.562   5.185  10.186 -0.7621  0.2076  0.3828
  186DOPC    HX22867   5.455   5.180  10.157 -0.7337 -1.2168  0.4444
  186DOPC    HY22868   5.606   5.267  10.125 -1.3568 -0.7776 -1.4469
  186DOPC   O3122869   5.565   5.211  10.328 -0.3704 -0.6400 -0.3505
  186DOPC   C3122870   5.633   5.316  10.369 -0.2851 -0.0097 -0.4550
  186DOPC   O3222871   5.668   5.414  10.309  0.4512  0.6117  0.5009
  186DOPC   C3222872   5.663   5.289  10.515 -0.2226  0.0230  0.1341
  186DOPC   H2X22873   5.577   5.235  10.561 -0.6341  0.3023 -0.3016
  186DOPC   H2Y22874   5.753   5.223  10.517 -0.1040  0.1982  0.7563
  186DOPC   C2322875   5.746   4.882  10.602 -0.4570  0.7587  0.1374
  186DOPC   H3R22876   5.853   4.900  10.576  0.2862  0.6781  2.8551
  186DOPC   H3S22877   5.729   4.786  10.654  0.0562  1.4830  1.6961
  186DOPC   C2422878   5.678   4.977  10.704 -0.4251 -0.2436 -0.1362
  186DOPC   H4R22879   5.567   4.976  10.697 -0.3601 -0.0251 -4.5490
  186DOPC   H4S22880   5.717   5.077  10.675  0.1558  0.4666  2.8309
  186DOPC   C2522881   5.727   4.964  10.846 -0.2977 -0.0051 -0.0434
  186DOPC   H5R22882   5.826   5.013  10.852 -0.8409  1.5788 -2.6058
  186DOPC   H5S22883   5.728   4.854  10.864 -3.5707 -0.6379 -2.6983
  186DOPC   C2622884   5.630   5.031  10.945  0.5568  0.2705 -0.2423
  186DOPC   H6R22885   5.527   4.991  10.937  0.1111  1.1211  0.8644
  186DOPC   H6S22886   5.625   5.141  10.925 -0.2388  0.4640  0.9059
  186DOPC   C2722887   5.674   5.014  11.093  0.4963 -0.3883 -0.0791
  186DOPC   H7R22888   5.783   5.030  11.084  0.4534 -0.2157 -0.2938
  186DOPC   H7S22889   5.658   4.906  11.116  0.2315 -0.5615 -1.0427
  186DOPC   C2822890   5.614   5.131  11.183 -0.2584  0.4103 -0.2251
  186DOPC   H8R22891   5.510   5.101  11.208 -0.7886  0.1558 -2.5870
  186DOPC   H8S22892   5.600   5.227  11.129 -1.3310 -0.3440 -1.3305
  186DOPC   C2922893   5.714   5.159  11.300  0.6733 -0.5038  0.0225
  186DOPC   H9R22894   5.796   5.222  11.261 -1.3688  0.0231 -4.0020
  186DOPC  C21022895   5.703   5.136  11.431  0.4136 -0.4241 -0.1640
  186DOPC  H10R22896   5.773   5.177  11.506  0.4914 -1.6943  0.4780
  186DOPC  C21122897   5.586   5.071  11.497 -0.2993  0.2322 -0.1613
  186DOPC  H11R22898   5.620   5.008  11.582  0.2874 -0.0194 -0.5753
  186DOPC  H11S22899   5.530   5.005  11.427  1.2094  0.2933 -1.5037
  186DOPC  C21222900   5.497   5.183  11.555 -0.3082  1.4368  0.1747
  186DOPC  H12R22901   5.399   5.139  11.583 -0.7020  0.5808 -2.2563
  186DOPC  H12S22902   5.479   5.257  11.474  0.7317  0.5220 -0.9427
  186DOPC  C21322903   5.557   5.237  11.684  0.3990 -0.2262 -0.2768
  186DOPC  H13R22904   5.659   5.272  11.659  0.2068  1.4030  1.0979
  186DOPC  H13S22905   5.554   5.154  11.758 -1.5155  0.4104  0.4051
  186DOPC  C21422906   5.470   5.350  11.738  0.2542  0.1746  0.3806
  186DOPC  H14R22907   5.368   5.304  11.735 -0.0312  0.7682  0.7707
  186DOPC  H14S22908   5.467   5.434  11.665  0.3537 -1.0667 -1.1084
  186DOPC  C21522909   5.518   5.394  11.873  0.0559 -0.4304  0.4922
  186DOPC  H15R22910   5.626   5.417  11.859 -0.4374  2.6841  0.9721
  186DOPC  H15S22911   5.500   5.324  11.957 -1.0897  1.3438  1.8100
  186DOPC  C21622912   5.464   5.537  11.914 -0.5157 -0.2100  0.6535
  186DOPC  H16R22913   5.354   5.527  11.899 -0.2135 -1.5360 -1.0451
  186DOPC  H16S22914   5.496   5.614  11.840  1.1153  1.3290  2.8361
  186DOPC  C21722915   5.479   5.592  12.060 -0.1469 -0.3984 -0.0400
  186DOPC  H17R22916   5.566   5.541  12.106  0.9938  2.4198  1.1544
  186DOPC  H17S22917   5.385   5.568  12.114 -0.0228 -0.5653  0.0994
  186DOPC  C21822918   5.500   5.748  12.063  0.3760 -0.3177  0.5736
  186DOPC  H18R22919   5.413   5.811  12.035  1.0661 -0.2586 -1.6293
  186DOPC  H18S22920   5.579   5.772  11.989 -1.7547 -2.0987 -2.5327
  186DOPC  H18T22921   5.534   5.777  12.165  1.7135  1.4766 -0.3214
  186DOPC   C3322922   5.687   5.419  10.592  0.4821  0.1213 -1.3010
  186DOPC   H3X22923   5.601   5.487  10.579 -0.2335 -0.5511 -0.2512
  186DOPC   H3Y22924   5.782   5.458  10.549  0.9361  0.4629 -0.0594
  186DOPC   C3422925   5.711   5.385  10.742  0.0013 -0.7166  0.1748
  186DOPC   H4X22926   5.793   5.313  10.762  1.3512  1.1190  1.6084
  186DOPC   H4Y22927   5.621   5.329  10.775 -0.4552 -0.1619 -0.1094
  186DOPC   C3522928   5.736   5.508  10.840 -0.1466 -0.6073 -0.6315
  186DOPC   H5X22929   5.671   5.595  10.816 -0.1207  0.3565  2.3373
  186DOPC   H5Y22930   5.840   5.544  10.825 -0.2915  0.5634  0.9135
  186DOPC   C3622931   5.723   5.486  10.992 -1.2492  0.0386 -0.2942
  186DOPC   H6X22932   5.616   5.500  11.018 -0.7451  0.1393  1.9181
  186DOPC   H6Y22933   5.747   5.379  11.014 -1.9844  0.4494  3.0525
  186DOPC   C3722934   5.801   5.586  11.082 -0.5784 -0.4644 -0.2488
  186DOPC   H7X22935   5.904   5.602  11.045 -0.9071  2.2193 -0.1951
  186DOPC   H7Y22936   5.756   5.687  11.087 -0.5957 -0.4980  0.4900
  186DOPC   C3822937   5.809   5.545  11.229 -0.6721  0.7296 -0.6647
  186DOPC   H8X22938   5.877   5.620  11.273  1.3479  0.5919 -3.3010
  186DOPC   H8Y22939   5.851   5.442  11.227  1.7681  1.6325  0.3392
  186DOPC   C3922940   5.681   5.541  11.307  0.0401  0.0782  0.6636
  186DOPC   H9X22941   5.585   5.557  11.256  0.8786 -0.8907 -1.3313
  186DOPC  C31022942   5.683   5.552  11.442  0.0166  0.2593 -0.7115
  186DOPC  H10X22943   5.585   5.579  11.486 -0.2276 -1.5126 -0.0519
  186DOPC  C31122944   5.804   5.548  11.532  1.0013 -0.3774  0.1592
  186DOPC  H11X22945   5.899   5.563  11.475 -0.7743  3.7286 -2.1141
  186DOPC  H11Y22946   5.811   5.454  11.591  0.1390 -1.6227 -1.6233
  186DOPC  C31222947   5.795   5.665  11.640  0.0582  0.7702  0.5482
  186DOPC  H12X22948   5.882   5.652  11.708  1.5345  1.6208 -1.0879
  186DOPC  H12Y22949   5.710   5.654  11.710  1.7464 -0.3253  2.5561
  186DOPC  C31322950   5.784   5.808  11.588 -0.0553  0.3880  0.1337
  186DOPC  H13X22951   5.875   5.827  11.527 -0.2817 -1.5676 -0.9035
  186DOPC  H13Y22952   5.692   5.813  11.525 -0.4442 -3.2626  0.2069
  186DOPC  C31422953   5.789   5.920  11.692  0.5424 -0.8093 -0.9163
  186DOPC  H14X22954   5.723   5.892  11.777 -0.7919 -0.8010 -1.9127
  186DOPC  H14Y22955   5.888   5.937  11.738 -0.2735  0.9140  0.2805
  186DOPC  C31522956   5.740   6.053  11.637  0.4639  0.1152  0.0127
  186DOPC  H15X22957   5.645   6.033  11.584 -0.4883  0.8011  1.4013
  186DOPC  H15Y22958   5.805   6.077  11.550 -0.2321  0.3297 -0.4525
  186DOPC  C31622959   5.708   6.155  11.737 -0.4378  0.1236  0.6159
  186DOPC  H16X22960   5.631   6.226  11.698 -0.3411  0.3936  0.9147
  186DOPC  H16Y22961   5.672   6.111  11.833  0.4046  1.1111  1.4078
  186DOPC  C31722962   5.834   6.235  11.783  0.6649 -0.3612  0.4851
  186DOPC  H17X22963   5.919   6.167  11.805  0.9032 -0.8042 -1.5848
  186DOPC  H17Y22964   5.875   6.302  11.704  0.6458 -2.5560 -1.5071
  186DOPC  C31822965   5.811   6.317  11.907  0.0993 -0.1171  0.1851
  186DOPC  H18X22966   5.904   6.361  11.949  2.0686 -2.1893 -1.6490
  186DOPC  H18Y22967   5.749   6.404  11.877  0.8887  0.5629  0.4841
  186DOPC  H18Z22968   5.761   6.259  11.988  0.0334  0.4385  0.5420
  187DOPC     N22969   4.790   4.079  10.540 -0.7634 -0.0636  0.1870
  187DOPC   C1222970   4.802   4.219  10.603  0.3299 -0.1889  0.2307
  187DOPC  H12A22971   4.706   4.263  10.620  1.1741  1.4580  0.9590
  187DOPC  H12B22972   4.858   4.288  10.541 -0.8720 -0.5021 -1.2664
  187DOPC   C1322973   4.730   4.086  10.403 -0.2635 -0.6022 -0.2441
  187DOPC  H13A22974   4.792   4.150  10.342 -0.3783  0.7798  1.0259
  187DOPC  H13B22975   4.715   3.986  10.365  0.9886 -0.9286  0.0764
  187DOPC  H13C22976   4.636   4.139  10.408  0.0158 -0.0182 -1.0404
  187DOPC   C1422977   4.708   3.985  10.620  0.6704  0.4135 -0.2923
  187DOPC  H14A22978   4.696   3.902  10.552  2.2356  1.4930 -1.9773
  187DOPC  H14B22979   4.762   3.953  10.708 -1.9534  1.1796  1.7542
  187DOPC  H14C22980   4.608   4.017  10.645  0.4733  0.3301 -0.9584
  187DOPC   C1522981   4.933   4.023  10.524  0.7821 -0.8986  0.4609
  187DOPC  H15A22982   4.999   4.087  10.467 -0.1854  0.2385  0.5890
  187DOPC  H15B22983   4.932   3.933  10.465  1.7557  0.6980 -2.1823
  187DOPC  H15C22984   4.977   3.996  10.619 -0.7402  0.3538  1.5840
  187DOPC   C1122985   4.865   4.229  10.748 -0.4932 -0.0766  0.0743
  187DOPC  H11A22986   4.830   4.328  10.784 -2.0658 -0.0092 -1.5268
  187DOPC  H11B22987   4.826   4.145  10.810 -0.9911 -0.1896 -0.3851
  187DOPC     P22988   5.095   4.312  10.664 -0.1022  0.2429 -0.4857
  187DOPC   O1322989   5.020   4.416  10.591  0.4505  0.3889 -0.4334
  187DOPC   O1422990   5.188   4.223  10.591 -0.1511  0.1013 -0.2402
  187DOPC   O1222991   5.007   4.213  10.753  0.0129 -0.1468  0.3112
  187DOPC   O1122992   5.187   4.388  10.771  0.5613  0.2806 -0.2027
  187DOPC    C122993   5.220   4.333  10.899 -0.0401 -0.1901  0.1442
  187DOPC    HA22994   5.331   4.334  10.908  0.2216 -0.7479 -2.1967
  187DOPC    HB22995   5.182   4.231  10.917 -0.4224 -0.6459 -2.6988
  187DOPC    C222996   5.175   4.420  11.018  0.0580 -0.0647 -0.1186
  187DOPC    HS22997   5.214   4.374  11.111  1.0365  0.6468 -0.1496
  187DOPC   O2122998   5.034   4.440  11.024  0.3143  0.2529 -0.5452
  187DOPC   C2122999   4.961   4.338  11.073  0.1938 -0.1226  0.1831
  187DOPC   O2223000   5.005   4.235  11.116  0.1930  0.4441  0.2350
  187DOPC   C2223001   4.815   4.372  11.066  0.8717 -0.9088 -1.0080
  187DOPC   H2R23002   4.781   4.303  10.986  0.2379  0.4093 -1.9129
  187DOPC   H2S23003   4.801   4.476  11.031  1.9484 -0.3274  0.2318
  187DOPC    C323004   5.254   4.557  11.027 -0.4954  0.5639 -0.0748
  187DOPC    HX23005   5.199   4.624  10.958  1.5488 -0.3002 -2.7170
  187DOPC    HY23006   5.361   4.552  10.999 -0.2135  1.9744  0.6934
  187DOPC   O3123007   5.234   4.611  11.161  0.2814  0.4616  0.8705
  187DOPC   C3123008   5.314   4.713  11.193  1.0915 -0.6982 -0.3188
  187DOPC   O3223009   5.406   4.748  11.129  0.1703 -0.0333 -0.4086
  187DOPC   C3223010   5.271   4.776  11.326 -0.1589 -0.0913 -0.2981
  187DOPC   H2X23011   5.330   4.869  11.336  3.2778 -1.8388 -2.1883
  187DOPC   H2Y23012   5.161   4.793  11.318 -0.4143 -0.2508  2.0989
  187DOPC   C2323013   4.740   4.343  11.199  0.6666 -0.2564  0.4352
  187DOPC   H3R23014   4.743   4.237  11.231 -0.8304 -0.3834  0.2034
  187DOPC   H3S23015   4.632   4.364  11.190  0.4206 -1.1748  1.0672
  187DOPC   C2423016   4.795   4.426  11.318  0.0378 -1.0040 -0.1762
  187DOPC   H4R23017   4.744   4.525  11.328 -0.5266 -1.3457  0.3785
  187DOPC   H4S23018   4.904   4.446  11.312 -0.0190 -0.8047 -0.5822
  187DOPC   C2523019   4.770   4.362  11.457  0.0010  0.4198  0.1149
  187DOPC   H5R23020   4.666   4.324  11.464 -0.4123  0.5928 -3.4564
  187DOPC   H5S23021   4.787   4.440  11.535  0.5167 -2.0113  2.6074
  187DOPC   C2623022   4.865   4.240  11.480 -0.5854 -0.1717  0.1603
  187DOPC   H6R23023   4.862   4.179  11.388  0.5383  2.0854 -1.4656
  187DOPC   H6S23024   4.818   4.189  11.567  1.4943 -1.1142  0.7937
  187DOPC   C2723025   5.010   4.266  11.529  0.1465  0.0028  0.0391
  187DOPC   H7R23026   5.008   4.317  11.628 -1.2561  0.8820 -0.4105
  187DOPC   H7S23027   5.054   4.342  11.461  1.0671 -0.2308  0.3483
  187DOPC   C2823028   5.094   4.142  11.538 -0.7430  0.1381 -0.4723
  187DOPC   H8R23029   5.199   4.165  11.568 -0.7919 -1.0007  0.6569
  187DOPC   H8S23030   5.100   4.091  11.440  0.3070 -1.7648  0.5290
  187DOPC   C2923031   5.036   4.052  11.650 -0.1170 -0.5038 -0.4969
  187DOPC   H9R23032   4.930   4.026  11.633 -0.4491  0.5550 -0.1311
  187DOPC  C21023033   5.098   3.992  11.758 -0.0878  0.5119  0.3505
  187DOPC  H10R23034   5.023   3.948  11.826  0.6550  0.0302  0.8646
  187DOPC  C21123035   5.243   4.002  11.797  0.6588  0.9740 -0.6095
  187DOPC  H11R23036   5.254   4.107  11.830  1.5165  1.1318 -1.3541
  187DOPC  H11S23037   5.306   3.997  11.706  1.1022 -0.6768 -0.2519
  187DOPC  C21223038   5.294   3.915  11.914 -0.0774 -0.1708  0.4843
  187DOPC  H12R23039   5.403   3.928  11.928 -0.2766 -0.8180  3.2973
  187DOPC  H12S23040   5.268   3.812  11.884  0.4652 -0.7295  1.8568
  187DOPC  C21323041   5.226   3.963  12.045 -0.2949 -0.2057  0.2678
  187DOPC  H13R23042   5.123   3.924  12.058  0.5519 -1.8577  3.0454
  187DOPC  H13S23043   5.229   4.074  12.039 -0.3171 -0.2557 -0.6731
  187DOPC  C21423044   5.312   3.918  12.164  0.1412  0.1137 -0.3924
  187DOPC  H14R23045   5.417   3.944  12.140  0.9929 -1.6079  1.2285
  187DOPC  H14S23046   5.284   3.813  12.187  0.1606 -0.0014 -0.8839
  187DOPC  C21523047   5.282   4.001  12.288 -0.1944 -0.4783 -0.4736
  187DOPC  H15R23048   5.293   4.102  12.243 -0.7291 -0.3790 -0.3962
  187DOPC  H15S23049   5.362   3.995  12.365  0.2605 -1.4442 -1.0055
  187DOPC  C21623050   5.153   3.981  12.357  0.4159  0.3435  0.0635
  187DOPC  H16R23051   5.158   3.875  12.392  3.2950 -0.1386 -1.4664
  187DOPC  H16S23052   5.065   3.996  12.290 -1.1454  2.3633  2.4252
  187DOPC  C21723053   5.137   4.072  12.481  0.1225 -0.9964 -0.7556
  187DOPC  H17R23054   5.137   4.179  12.454 -0.6611 -0.3345  1.6335
  187DOPC  H17S23055   5.216   4.056  12.558  0.0463 -1.6416 -0.8049
  187DOPC  C21823056   5.006   4.046  12.559 -0.0484  0.0975  0.6433
  187DOPC  H18R23057   5.003   4.133  12.628  1.4648  2.2764 -1.8445
  187DOPC  H18S23058   5.024   3.951  12.614  1.1689  1.0376  1.9258
  187DOPC  H18T23059   4.923   4.039  12.486 -0.2337 -2.7539  0.9925
  187DOPC   C3323060   5.296   4.691  11.454 -0.2107  0.1129  0.3340
  187DOPC   H3X23061   5.395   4.642  11.436 -0.1014  0.9848 -1.7751
  187DOPC   H3Y23062   5.216   4.615  11.445 -0.6611  0.4911  1.1053
  187DOPC   C3423063   5.288   4.771  11.581  0.1292 -0.1420  0.0724
  187DOPC   H4X23064   5.186   4.812  11.591 -1.2089 -3.2830  0.3435
  187DOPC   H4Y23065   5.366   4.850  11.580 -0.6863  0.6655 -0.7040
  187DOPC   C3523066   5.316   4.680  11.708 -0.9029 -0.0335  0.5025
  187DOPC   H5X23067   5.328   4.736  11.803 -2.6888 -0.5985  1.0890
  187DOPC   H5Y23068   5.402   4.611  11.696 -0.9191  0.1506 -0.9068
  187DOPC   C3623069   5.196   4.579  11.735 -0.6545 -1.5292 -0.1766
  187DOPC   H6X23070   5.099   4.629  11.716  0.4209  1.4760  1.5475
  187DOPC   H6Y23071   5.196   4.496  11.661  0.8247 -3.2203  1.6060
  187DOPC   C3723072   5.179   4.518  11.876 -0.0948 -0.0912  0.0353
  187DOPC   H7X23073   5.285   4.497  11.904  0.4432  1.7274 -0.5264
  187DOPC   H7Y23074   5.143   4.589  11.952 -4.1908  1.7099 -3.1916
  187DOPC   C3823075   5.104   4.387  11.872 -0.2406  0.0033  0.1508
  187DOPC   H8X23076   5.153   4.318  11.799 -1.6561  0.0362 -0.8702
  187DOPC   H8Y23077   5.001   4.412  11.840 -0.2527  0.8942  0.8415
  187DOPC   C3923078   5.107   4.309  12.001  0.2756  0.2476  0.2570
  187DOPC   H9X23079   5.212   4.300  12.035  1.2158 -0.8818 -2.6253
  187DOPC  C31023080   5.004   4.279  12.086 -0.7975 -0.4198  0.2396
  187DOPC  H10X23081   5.029   4.223  12.177  0.7751  1.9315  1.3562
  187DOPC  C31123082   4.856   4.304  12.051 -0.4655  0.2810  0.0284
  187DOPC  H11X23083   4.801   4.208  12.061 -0.0211  0.1655  1.6717
  187DOPC  H11Y23084   4.844   4.329  11.943  1.0691 -2.2462 -0.8259
  187DOPC  C31223085   4.781   4.398  12.145  0.4122  0.2552  0.2159
  187DOPC  H12X23086   4.783   4.366  12.252 -1.7440 -1.2916 -0.1403
  187DOPC  H12Y23087   4.674   4.380  12.119  0.9998 -2.7823 -0.4642
  187DOPC  C31323088   4.819   4.545  12.120  0.7634  0.3934 -0.1568
  187DOPC  H13X23089   4.859   4.544  12.017 -2.4449  0.5828 -1.5337
  187DOPC  H13Y23090   4.721   4.597  12.109 -0.3447 -1.4378  0.5390
  187DOPC  C31423091   4.925   4.603  12.214  0.3547 -0.7479 -0.3616
  187DOPC  H14X23092   5.009   4.531  12.224 -0.3688 -1.3661  2.3088
  187DOPC  H14Y23093   4.964   4.699  12.175 -0.1816  0.2916  1.5143
  187DOPC  C31523094   4.871   4.641  12.353 -0.4428 -0.0046 -0.3606
  187DOPC  H15X23095   4.948   4.605  12.426  0.2776  0.6078 -0.8024
  187DOPC  H15Y23096   4.774   4.596  12.380 -0.0239  0.3857  2.0105
  187DOPC  C31623097   4.862   4.794  12.374 -0.2187  0.8998 -0.3920
  187DOPC  H16X23098   4.964   4.839  12.370 -0.1917  0.9817  0.8771
  187DOPC  H16Y23099   4.809   4.831  12.284 -1.5074  0.4850  0.1826
  187DOPC  C31723100   4.790   4.838  12.508  0.5958  0.6516  0.4326
  187DOPC  H17X23101   4.685   4.804  12.502  0.4220  1.0370  1.2664
  187DOPC  H17Y23102   4.835   4.796  12.600 -2.1124 -0.7676  1.2067
  187DOPC  C31823103   4.780   4.990  12.526 -0.4546 -0.7424 -0.2857
  187DOPC  H18X23104   4.709   5.016  12.607 -1.0807 -0.0640 -1.0344
  187DOPC  H18Y23105   4.871   5.038  12.570 -1.6581  1.2628  0.1215
  187DOPC  H18Z23106   4.755   5.046  12.433  1.3211 -0.1561 -0.4604
  188DOPC     N23107   1.463   4.964   9.288 -0.6634 -0.5899 -0.0029
  188DOPC   C1223108   1.562   4.916   9.388  0.6825  0.4061 -0.2901
  188DOPC  H12A23109   1.662   4.922   9.347  0.9160  2.5453  0.4582
  188DOPC  H12B23110   1.543   4.813   9.414  0.0876  0.7198  0.5401
  188DOPC   C1323111   1.487   5.110   9.251  0.3127 -0.3973  0.2640
  188DOPC  H13A23112   1.590   5.129   9.223 -0.1652  1.4925 -0.3282
  188DOPC  H13B23113   1.411   5.154   9.188  0.2993  0.9162  1.1589
  188DOPC  H13C23114   1.479   5.160   9.346 -0.7990 -2.3480  1.2570
  188DOPC   C1423115   1.327   4.957   9.348  0.4604 -0.0247 -0.2147
  188DOPC  H14A23116   1.323   5.022   9.434  1.0920  0.3861 -0.4907
  188DOPC  H14B23117   1.252   4.990   9.277  0.7074 -0.3634 -0.6352
  188DOPC  H14C23118   1.304   4.858   9.384 -0.4657 -0.3043 -1.5008
  188DOPC   C1523119   1.467   4.873   9.167  0.2150  0.0557 -0.1466
  188DOPC  H15A23120   1.371   4.865   9.118 -0.4667 -0.4590  1.2179
  188DOPC  H15B23121   1.487   4.770   9.195  1.7483 -0.3514 -2.4691
  188DOPC  H15C23122   1.548   4.900   9.101  1.0199  1.2876  1.2934
  188DOPC   C1123123   1.586   5.001   9.514  0.5775  0.7209  0.0925
  188DOPC  H11A23124   1.492   5.029   9.566  1.2481  1.9585  0.7026
  188DOPC  H11B23125   1.651   4.949   9.587 -1.1109  1.4392  2.2023
  188DOPC     P23126   1.676   5.239   9.562  0.1970 -0.3215  0.3177
  188DOPC   O1323127   1.579   5.340   9.521  0.8450 -0.4957  0.0152
  188DOPC   O1423128   1.818   5.275   9.567  0.0603  0.0751 -0.3566
  188DOPC   O1223129   1.662   5.112   9.477 -0.1936 -0.1663 -0.1169
  188DOPC   O1123130   1.624   5.185   9.702 -0.0425  0.2174  0.0038
  188DOPC    C123131   1.553   5.277   9.783 -0.1734  0.0455 -0.2226
  188DOPC    HA23132   1.444   5.284   9.760 -0.9913 -0.0246  3.1522
  188DOPC    HB23133   1.595   5.379   9.773 -0.0871 -0.1797 -2.9241
  188DOPC    C223134   1.534   5.228   9.927 -0.3721  0.4441 -0.1987
  188DOPC    HS23135   1.451   5.289   9.968 -1.1306 -0.8112  0.2173
  188DOPC   O2123136   1.656   5.253  10.014 -0.0472  0.0784  0.4989
  188DOPC   C2123137   1.698   5.379  10.029 -0.1100  0.6560  0.4231
  188DOPC   O2223138   1.631   5.479   9.998  0.4372  0.2901  0.1477
  188DOPC   C2223139   1.822   5.383  10.115 -0.5447 -0.2386 -0.3129
  188DOPC   H2R23140   1.864   5.486  10.120 -1.8204  0.3036 -0.2814
  188DOPC   H2S23141   1.905   5.325  10.070 -0.5624 -1.0840  0.7040
  188DOPC    C323142   1.494   5.079   9.945 -0.4926  0.1609 -0.4492
  188DOPC    HX23143   1.566   5.017   9.886 -1.0779 -1.1957  0.2222
  188DOPC    HY23144   1.402   5.054   9.888 -0.3705 -1.7195  0.1224
  188DOPC   O3123145   1.496   5.033  10.078  0.2423  0.2821 -0.2995
  188DOPC   C3123146   1.384   5.058  10.150  0.4761 -0.3223  0.1187
  188DOPC   O3223147   1.289   5.122  10.106  0.0478  0.1868  0.2128
  188DOPC   C3223148   1.398   5.010  10.289 -0.1151  0.1343  0.3172
  188DOPC   H2X23149   1.296   4.995  10.329  0.7887 -0.4604  2.5748
  188DOPC   H2Y23150   1.451   4.912  10.297 -0.6929 -0.4926 -2.5971
  188DOPC   C2323151   1.799   5.329  10.256 -0.8665 -0.0283  0.1179
  188DOPC   H3R23152   1.754   5.228  10.269  0.0046 -0.2277  1.7524
  188DOPC   H3S23153   1.733   5.405  10.305 -0.0247 -0.6597  2.3174
  188DOPC   C2423154   1.932   5.316  10.324 -0.9599 -0.8576 -1.5540
  188DOPC   H4R23155   1.992   5.403  10.291 -3.5364  2.1068  0.9387
  188DOPC   H4S23156   1.980   5.217  10.304 -0.7098 -1.3703  1.2203
  188DOPC   C2523157   1.911   5.327  10.484 -0.1409  0.3102 -0.3474
  188DOPC   H5R23158   1.857   5.234  10.509  1.6501 -0.8878 -0.7266
  188DOPC   H5S23159   1.848   5.417  10.502 -0.8891  0.3355 -2.7794
  188DOPC   C2623160   2.033   5.323  10.571  0.2324  0.6364 -0.6548
  188DOPC   H6R23161   2.088   5.419  10.557  0.0821  1.4411  3.2199
  188DOPC   H6S23162   2.091   5.233  10.539 -1.8892 -1.1921  0.3455
  188DOPC   C2723163   1.988   5.305  10.717  0.2344 -0.2140 -0.0579
  188DOPC   H7R23164   1.914   5.222  10.720  1.1012 -0.9974  0.1502
  188DOPC   H7S23165   1.946   5.404  10.748 -1.8491 -1.2768  0.7139
  188DOPC   C2823166   2.101   5.271  10.813 -0.1303 -0.6834 -0.2840
  188DOPC   H8R23167   2.148   5.184  10.764 -1.8307 -1.2147 -1.0566
  188DOPC   H8S23168   2.061   5.228  10.908 -3.9608  0.1304 -1.3388
  188DOPC   C2923169   2.205   5.376  10.851 -0.0058  0.0160 -0.0382
  188DOPC   H9R23170   2.255   5.418  10.763  0.9825 -1.2807 -0.1274
  188DOPC  C21023171   2.240   5.405  10.976  0.4009  0.2411 -0.3140
  188DOPC  H10R23172   2.325   5.474  10.992  1.3068 -0.7472 -0.7140
  188DOPC  C21123173   2.192   5.358  11.118 -0.3725 -0.2454 -0.5445
  188DOPC  H11R23174   2.238   5.261  11.148 -0.3238  0.4121  1.7075
  188DOPC  H11S23175   2.085   5.339  11.097 -1.1043  3.2867 -0.6752
  188DOPC  C21223176   2.199   5.469  11.224  0.0002 -0.6830  1.0686
  188DOPC  H12R23177   2.135   5.556  11.200 -0.3506 -0.7991  1.5792
  188DOPC  H12S23178   2.303   5.505  11.238  0.0431 -0.1570 -0.3979
  188DOPC  C21323179   2.155   5.431  11.365 -0.8346  0.4009  0.1968
  188DOPC  H13R23180   2.197   5.338  11.410  0.5266  0.1322 -1.5063
  188DOPC  H13S23181   2.047   5.408  11.352 -0.8367 -0.3908  1.4565
  188DOPC  C21423182   2.169   5.553  11.455  0.4083 -0.5421 -0.3514
  188DOPC  H14R23183   2.104   5.640  11.431  1.4773  0.2414 -0.4708
  188DOPC  H14S23184   2.267   5.605  11.454 -0.6458  1.5695  1.0499
  188DOPC  C21523185   2.160   5.517  11.604 -0.0673  0.3985 -0.3340
  188DOPC  H15R23186   2.246   5.449  11.620  0.5692  0.3991 -3.2332
  188DOPC  H15S23187   2.067   5.461  11.627  1.4097 -1.9555  0.3203
  188DOPC  C21623188   2.176   5.640  11.694 -0.4223 -0.0757  0.0086
  188DOPC  H16R23189   2.088   5.706  11.678  0.0064  0.4540 -0.1963
  188DOPC  H16S23190   2.261   5.703  11.662  0.3649  0.0860  2.2474
  188DOPC  C21723191   2.188   5.599  11.842  0.2463 -0.1070  0.9056
  188DOPC  H17R23192   2.102   5.536  11.871  0.0108 -1.8164 -2.8597
  188DOPC  H17S23193   2.202   5.691  11.901 -0.8724 -0.1344  1.2264
  188DOPC  C21823194   2.314   5.519  11.864 -0.5519 -0.1091 -0.2391
  188DOPC  H18R23195   2.402   5.585  11.850 -1.5775  1.4644  0.4160
  188DOPC  H18S23196   2.314   5.427  11.802 -2.0291  0.3400 -0.9400
  188DOPC  H18T23197   2.313   5.481  11.969  2.0837  3.0840  1.1194
  188DOPC   C3323198   1.471   5.123  10.374  0.2698  0.0628 -0.4851
  188DOPC   H3X23199   1.408   5.211  10.397 -0.7946 -0.9371  0.5747
  188DOPC   H3Y23200   1.569   5.144  10.327  0.1421  1.9668  0.0289
  188DOPC   C3423201   1.513   5.070  10.508 -0.0093  1.1507 -0.5927
  188DOPC   H4X23202   1.600   5.005  10.485  0.4065  0.3837  2.6049
  188DOPC   H4Y23203   1.428   5.012  10.551 -2.1147  1.7016 -3.7098
  188DOPC   C3523204   1.553   5.176  10.613 -0.0755 -0.2482 -0.2652
  188DOPC   H5X23205   1.480   5.259  10.619  0.2660 -0.0122  0.9508
  188DOPC   H5Y23206   1.645   5.225  10.575  0.1259 -0.1786  0.3089
  188DOPC   C3623207   1.587   5.121  10.745 -0.0752 -0.0655  1.0369
  188DOPC   H6X23208   1.497   5.064  10.775 -0.2116 -0.3442  0.1296
  188DOPC   H6Y23209   1.666   5.045  10.726 -1.0511 -0.9183  0.2491
  188DOPC   C3723210   1.632   5.226  10.849  0.1387  0.1928  0.4381
  188DOPC   H7X23211   1.698   5.297  10.795  0.1912 -0.3966 -0.2865
  188DOPC   H7Y23212   1.550   5.289  10.891  0.4628  0.1178  1.1980
  188DOPC   C3823213   1.714   5.162  10.962 -0.6917 -0.2266 -0.3599
  188DOPC   H8X23214   1.802   5.105  10.926  0.1288  1.6998 -1.5819
  188DOPC   H8Y23215   1.646   5.090  11.012 -0.6533  1.0668  1.6765
  188DOPC   C3923216   1.762   5.273  11.060  0.1739  0.5973  0.2727
  188DOPC   H9X23217   1.857   5.318  11.028  0.3034  0.1692  0.0567
  188DOPC  C31023218   1.696   5.304  11.176 -0.0366  0.1778  0.1981
  188DOPC  H10X23219   1.733   5.382  11.245 -0.7980  2.7270 -2.0882
  188DOPC  C31123220   1.567   5.240  11.225  0.3366  0.5476 -0.1332
  188DOPC  H11X23221   1.559   5.134  11.193 -1.2411  0.4747  0.4187
  188DOPC  H11Y23222   1.481   5.287  11.172  0.9714  0.1723 -1.5539
  188DOPC  C31223223   1.554   5.270  11.375 -0.9340  0.3791 -0.3723
  188DOPC  H12X23224   1.448   5.240  11.393 -0.6357  0.2118  1.2143
  188DOPC  H12Y23225   1.584   5.376  11.390  2.0118 -0.2764 -1.0617
  188DOPC  C31323226   1.646   5.175  11.450  0.1804 -0.9810 -0.5001
  188DOPC  H13X23227   1.617   5.071  11.426  1.4669 -1.7538  1.1242
  188DOPC  H13Y23228   1.751   5.201  11.424  0.5502 -2.4838 -0.6020
  188DOPC  C31423229   1.624   5.189  11.602 -0.4851 -0.0284  0.7310
  188DOPC  H14X23230   1.623   5.295  11.635 -0.8790  0.3879 -0.5732
  188DOPC  H14Y23231   1.525   5.142  11.625 -1.6623 -1.6738 -5.6768
  188DOPC  C31523232   1.738   5.123  11.683  0.2519  0.1298 -0.1737
  188DOPC  H15X23233   1.748   5.019  11.646 -3.4264 -0.8526  1.1907
  188DOPC  H15Y23234   1.704   5.124  11.789 -1.0447 -0.8588 -0.5504
  188DOPC  C31623235   1.887   5.182  11.665  0.0133 -0.1862  0.6841
  188DOPC  H16X23236   1.927   5.159  11.564 -0.5555  1.6291  0.0105
  188DOPC  H16Y23237   1.868   5.291  11.670 -2.1344 -0.2923 -2.4316
  188DOPC  C31723238   1.992   5.135  11.773 -0.1857  0.4960 -0.0410
  188DOPC  H17X23239   1.952   5.155  11.874  0.9176 -0.6445  0.6454
  188DOPC  H17Y23240   2.004   5.026  11.758 -1.2193  0.6216 -2.1758
  188DOPC  C31823241   2.128   5.207  11.766  0.3649  0.0189  0.4956
  188DOPC  H18X23242   2.203   5.157  11.831 -1.7752  0.4304  3.4899
  188DOPC  H18Y23243   2.152   5.209  11.657  2.6128 -0.1987  0.9456
  188DOPC  H18Z23244   2.120   5.314  11.793 -2.9212  0.4120 -1.3857
  189DOPC     N23245   2.668   2.938   9.831  0.8174  0.5923  0.3360
  189DOPC   C1223246   2.724   3.005   9.949  0.2883 -0.8617  0.8057
  189DOPC  H12A23247   2.647   3.071   9.986 -0.7585 -0.6297 -1.5712
  189DOPC  H12B23248   2.807   3.068   9.923  0.0812 -1.0551 -0.4002
  189DOPC   C1323249   2.567   2.844   9.882 -0.2253 -0.0080 -0.6688
  189DOPC  H13A23250   2.505   2.801   9.805 -2.2944 -2.4800  2.1338
  189DOPC  H13B23251   2.619   2.764   9.934 -1.7780 -1.7928 -1.7348
  189DOPC  H13C23252   2.498   2.890   9.951 -0.1092 -1.4232  0.4441
  189DOPC   C1423253   2.769   2.854   9.753  0.0884  0.0719 -0.7793
  189DOPC  H14A23254   2.806   2.784   9.827 -0.1841  1.3455  0.5963
  189DOPC  H14B23255   2.723   2.796   9.674 -1.0515  1.1402 -0.9308
  189DOPC  H14C23256   2.848   2.917   9.714 -1.3641  0.6377 -2.9854
  189DOPC   C1523257   2.588   3.033   9.740  0.3819 -0.5819  0.1786
  189DOPC  H15A23258   2.563   2.983   9.647 -1.0922 -2.1611  1.3648
  189DOPC  H15B23259   2.649   3.119   9.718  0.3194  0.0378  2.2059
  189DOPC  H15C23260   2.497   3.065   9.788 -0.6381 -1.6833 -0.9384
  189DOPC   C1123261   2.790   2.930  10.064 -0.0655 -0.3446 -0.3299
  189DOPC  H11A23262   2.808   2.993  10.153 -2.9337  2.5756 -1.5874
  189DOPC  H11B23263   2.729   2.842  10.092 -0.2197 -1.4324 -3.6619
  189DOPC     P23264   3.052   2.947  10.025 -0.3092 -0.2077 -0.0807
  189DOPC   O1323265   3.045   3.080   9.954 -0.0682  0.4759  0.5565
  189DOPC   O1423266   3.154   2.849   9.982 -0.4420 -0.0377 -0.4621
  189DOPC   O1223267   2.911   2.869  10.015  0.2359 -0.0683 -0.2517
  189DOPC   O1123268   3.071   2.978  10.176 -0.5624 -0.1593  0.0486
  189DOPC    C123269   3.203   2.960  10.235 -0.0136 -0.5550  0.3810
  189DOPC    HA23270   3.284   2.977  10.161 -1.6911 -0.8095 -1.6050
  189DOPC    HB23271   3.223   2.857  10.271 -0.5113 -0.4436  0.9954
  189DOPC    C223272   3.227   3.066  10.340 -0.0933 -0.1429 -0.9008
  189DOPC    HS23273   3.331   3.060  10.380  1.0201 -1.1172 -3.7123
  189DOPC   O2123274   3.132   3.057  10.450  0.5480  0.0501  0.0763
  189DOPC   C2123275   3.180   3.014  10.573 -0.0179  0.0831 -0.2725
  189DOPC   O2223276   3.296   2.979  10.590  0.2554 -0.1875 -0.6744
  189DOPC   C2223277   3.068   3.010  10.675 -0.1621 -0.5519  0.2555
  189DOPC   H2R23278   2.990   2.936  10.648 -2.5387  2.4522 -1.7651
  189DOPC   H2S23279   3.022   3.111  10.663  1.8141  0.4427  0.4987
  189DOPC    C323280   3.232   3.213  10.278  0.5371  0.5039 -0.7191
  189DOPC    HX23281   3.132   3.254  10.251 -1.0033 -2.9138 -0.6595
  189DOPC    HY23282   3.299   3.200  10.191  0.1053  1.0225 -1.1338
  189DOPC   O3123283   3.306   3.303  10.366  0.2641 -0.3966 -0.2392
  189DOPC   C3123284   3.241   3.359  10.469 -0.2919  0.0274  0.6403
  189DOPC   O3223285   3.124   3.343  10.502  0.4978 -0.1940  0.1717
  189DOPC   C3223286   3.348   3.437  10.543 -0.8990 -0.4709  0.0901
  189DOPC   H2X23287   3.433   3.368  10.558 -0.3997  0.2256  0.4875
  189DOPC   H2Y23288   3.373   3.518  10.471  0.5818 -1.6559 -0.7667
  189DOPC   C2323289   3.133   3.003  10.812  0.3706  0.0084 -0.8490
  189DOPC   H3R23290   3.189   3.097  10.832 -0.4053  0.2960  0.0831
  189DOPC   H3S23291   3.214   2.927  10.816  1.6660  1.3844  0.6987
  189DOPC   C2423292   3.043   2.977  10.931  0.8102  0.0857 -0.2009
  189DOPC   H4R23293   2.979   2.887  10.925  1.0670 -0.0726 -0.6481
  189DOPC   H4S23294   2.967   3.057  10.943 -0.3734 -1.1344  0.6557
  189DOPC   C2523295   3.115   2.971  11.062  0.7056  0.0529 -0.0285
  189DOPC   H5R23296   3.182   3.055  11.090  2.4278 -1.4342  0.4715
  189DOPC   H5S23297   3.175   2.878  11.057  1.4418  0.2785  2.9121
  189DOPC   C2623298   3.010   2.961  11.174  0.1302 -0.3838  0.3461
  189DOPC   H6R23299   2.929   2.895  11.137  0.5716 -0.6500 -0.1452
  189DOPC   H6S23300   2.969   3.065  11.170 -1.3244 -0.9543 -3.2678
  189DOPC   C2723301   3.068   2.907  11.307 -0.7206 -0.8128  0.5303
  189DOPC   H7R23302   3.157   2.972  11.322  0.6093 -2.1545 -1.1210
  189DOPC   H7S23303   3.109   2.804  11.294  0.1498 -0.2602 -1.4145
  189DOPC   C2823304   2.963   2.919  11.419 -0.4900 -0.3166  0.5969
  189DOPC   H8R23305   2.882   2.846  11.393 -0.9393  1.1503 -2.7569
  189DOPC   H8S23306   2.915   3.019  11.416  0.5885  0.2788  2.1579
  189DOPC   C2923307   3.042   2.894  11.547  0.1517 -0.2374  0.0580
  189DOPC   H9R23308   3.143   2.858  11.524  0.5319  0.7390  0.1602
  189DOPC  C21023309   3.004   2.908  11.675  0.3684 -0.0698  0.1967
  189DOPC  H10R23310   3.082   2.886  11.750  2.2352 -1.8701 -2.1039
  189DOPC  C21123311   2.870   2.959  11.720  0.6994 -0.0426 -0.1617
  189DOPC  H11R23312   2.806   2.869  11.730 -0.0309  0.6190  1.4695
  189DOPC  H11S23313   2.815   3.011  11.639 -2.5520  0.8442  2.3976
  189DOPC  C21223314   2.859   3.037  11.860 -0.0643  0.3149 -0.1015
  189DOPC  H12R23315   2.765   3.097  11.853 -0.6316 -0.6344 -0.7736
  189DOPC  H12S23316   2.946   3.105  11.868  2.2575 -2.4709 -0.1498
  189DOPC  C21323317   2.853   2.941  11.978 -0.0147  0.1666  0.4169
  189DOPC  H13R23318   2.945   2.879  11.973  1.1585  1.8160  0.7817
  189DOPC  H13S23319   2.762   2.877  11.971  1.1753 -1.4341 -1.8641
  189DOPC  C21423320   2.847   3.003  12.117  0.4238  0.2721 -0.2298
  189DOPC  H14R23321   2.750   3.055  12.132 -0.8209 -2.0671  0.2570
  189DOPC  H14S23322   2.932   3.076  12.116  2.6169 -2.1058  0.7500
  189DOPC  C21523323   2.869   2.903  12.233  0.5736 -0.0170 -0.2292
  189DOPC  H15R23324   2.951   2.836  12.202 -0.7652 -0.8099 -2.2872
  189DOPC  H15S23325   2.777   2.842  12.239  0.4497  0.2568  0.8882
  189DOPC  C21623326   2.911   2.968  12.363  0.0378 -0.4928 -0.7786
  189DOPC  H16R23327   2.821   3.023  12.397  1.2958  1.9965 -1.2578
  189DOPC  H16S23328   2.985   3.048  12.342 -0.9015  0.2390 -1.3446
  189DOPC  C21723329   2.959   2.881  12.481  0.6717 -0.3859  0.9084
  189DOPC  H17R23330   3.031   2.809  12.437 -0.3243 -1.0457  0.3116
  189DOPC  H17S23331   2.872   2.815  12.503  1.5658 -0.9733  2.9073
  189DOPC  C21823332   2.999   2.956  12.612  0.3353  0.4093  0.3482
  189DOPC  H18R23333   2.915   3.021  12.644 -0.8218 -0.9894  0.2476
  189DOPC  H18S23334   3.093   3.014  12.595  0.0876  0.2862 -1.7267
  189DOPC  H18T23335   3.023   2.885  12.694 -1.1033  2.1500  2.3615
  189DOPC   C3323336   3.307   3.505  10.667  0.0855 -0.3894 -0.1267
  189DOPC   H3X23337   3.197   3.520  10.665  0.1583  0.5635  1.4422
  189DOPC   H3Y23338   3.349   3.607  10.684  0.2774 -0.2568 -1.3061
  189DOPC   C3423339   3.332   3.424  10.799 -0.8298  0.2985  0.4014
  189DOPC   H4X23340   3.442   3.435  10.810 -0.6278  0.1593 -1.2156
  189DOPC   H4Y23341   3.292   3.323  10.773  1.6520 -1.2274  2.1028
  189DOPC   C3523342   3.278   3.493  10.925  0.0255 -0.1260  0.0861
  189DOPC   H5X23343   3.173   3.529  10.916 -0.8669 -3.0296 -3.6187
  189DOPC   H5Y23344   3.336   3.585  10.948 -0.7957 -0.2084  2.9427
  189DOPC   C3623345   3.297   3.406  11.049 -0.3607  0.2595  0.1269
  189DOPC   H6X23346   3.244   3.308  11.049 -0.8258  0.4977 -0.9903
  189DOPC   H6Y23347   3.403   3.371  11.050 -0.3788 -0.0528 -2.3434
  189DOPC   C3723348   3.275   3.484  11.181  0.0488 -0.5655  0.3851
  189DOPC   H7X23349   3.316   3.584  11.157 -1.9539 -0.2161 -2.0373
  189DOPC   H7Y23350   3.167   3.511  11.187  0.6024  1.5592  1.5137
  189DOPC   C3823351   3.317   3.425  11.313 -0.0830  0.5656 -0.0677
  189DOPC   H8X23352   3.326   3.499  11.395  3.0162 -0.5519  0.7247
  189DOPC   H8Y23353   3.424   3.396  11.305 -0.2849 -0.3798  0.4853
  189DOPC   C3923354   3.232   3.302  11.342 -0.0070 -0.6725  0.1173
  189DOPC   H9X23355   3.232   3.231  11.258 -1.1087 -0.1441 -0.3426
  189DOPC  C31023356   3.165   3.282  11.449  0.5172 -0.3515 -0.3366
  189DOPC  H10X23357   3.120   3.182  11.459 -0.1535  0.0647  1.1061
  189DOPC  C31123358   3.161   3.355  11.582  0.4334  0.6345  0.2776
  189DOPC  H11X23359   3.061   3.341  11.627  0.2494 -0.9654 -0.5803
  189DOPC  H11Y23360   3.170   3.463  11.557  2.4866  0.4310 -0.0453
  189DOPC  C31223361   3.273   3.319  11.673  0.0925 -0.0198 -0.3155
  189DOPC  H12X23362   3.260   3.388  11.760 -0.2531  0.2094 -0.5492
  189DOPC  H12Y23363   3.372   3.350  11.634 -0.5794  0.8812 -1.3556
  189DOPC  C31323364   3.261   3.181  11.724 -0.0376 -0.5165 -0.1310
  189DOPC  H13X23365   3.158   3.151  11.752 -1.1975  1.9623 -1.5064
  189DOPC  H13Y23366   3.279   3.105  11.645  1.4707  0.0944 -0.4232
  189DOPC  C31423367   3.351   3.155  11.842  0.3729  0.3569 -0.2466
  189DOPC  H14X23368   3.453   3.124  11.810  0.7846  0.9401  0.4498
  189DOPC  H14Y23369   3.363   3.247  11.904  0.2573 -0.2525  0.7101
  189DOPC  C31523370   3.283   3.046  11.932 -0.3793 -0.2222  0.1974
  189DOPC  H15X23371   3.270   2.953  11.873  0.3713 -0.3436  0.2156
  189DOPC  H15Y23372   3.183   3.091  11.952 -0.0805  1.2203 -1.3361
  189DOPC  C31623373   3.356   3.007  12.058  0.6501 -0.5344 -0.2028
  189DOPC  H16X23374   3.454   2.958  12.040  0.8719 -1.0478  2.0382
  189DOPC  H16Y23375   3.381   3.108  12.096 -0.4887  1.3548 -3.9823
  189DOPC  C31723376   3.272   2.929  12.154  0.0699  0.2866  0.0657
  189DOPC  H17X23377   3.174   2.979  12.168  0.5308  1.0502  0.6901
  189DOPC  H17Y23378   3.249   2.828  12.115  0.0505  0.3544 -0.0991
  189DOPC  C31823379   3.343   2.920  12.292  0.6532  0.4380 -1.0844
  189DOPC  H18X23380   3.449   2.891  12.275  1.4116  0.9870  2.0344
  189DOPC  H18Y23381   3.356   3.021  12.335  0.8462  0.9986 -2.4145
  189DOPC  H18Z23382   3.300   2.851  12.368 -0.1396  0.6123 -1.3657
  190DOPC     N23383   1.160   3.821   9.846 -0.0736  0.3321 -0.4061
  190DOPC   C1223384   1.147   3.940   9.933  0.0174 -0.6904 -0.6419
  190DOPC  H12A23385   1.064   3.924   9.999 -0.9639 -1.3997 -2.0048
  190DOPC  H12B23386   1.112   4.026   9.877  0.8246  0.0872  0.0176
  190DOPC   C1323387   1.240   3.853   9.724  0.4815  0.1555 -0.3475
  190DOPC  H13A23388   1.244   3.768   9.658 -2.9326 -0.9120  0.6370
  190DOPC  H13B23389   1.201   3.932   9.661  0.6359 -0.7410 -1.6160
  190DOPC  H13C23390   1.342   3.880   9.747  0.2732  0.8205 -0.1880
  190DOPC   C1423391   1.018   3.772   9.821 -0.0159 -0.0993 -0.3492
  190DOPC  H14A23392   0.952   3.854   9.796  2.3640  1.6988 -1.1568
  190DOPC  H14B23393   1.010   3.695   9.745 -2.7654 -0.1580 -0.0850
  190DOPC  H14C23394   0.980   3.717   9.905 -0.3661  0.9278  0.1752
  190DOPC   C1523395   1.231   3.713   9.924  0.0949  0.5328  0.2367
  190DOPC  H15A23396   1.200   3.706  10.027 -0.4820 -0.4086  0.0166
  190DOPC  H15B23397   1.337   3.728   9.933  0.5163 -1.9409  0.2394
  190DOPC  H15C23398   1.224   3.615   9.879  0.6280  0.7148 -0.2557
  190DOPC   C1123399   1.267   3.988  10.008  0.0158  0.2369 -0.7728
  190DOPC  H11A23400   1.250   4.090  10.047  0.5740 -0.0293  0.1952
  190DOPC  H11B23401   1.294   3.929  10.098  1.1228 -1.3187 -2.0533
  190DOPC     P23402   1.484   4.121   9.933  0.6239  0.1249 -0.0571
  190DOPC   O1323403   1.414   4.236   9.873 -0.2385  0.3619  0.5414
  190DOPC   O1423404   1.616   4.078   9.883  0.0119  0.0641 -0.2994
  190DOPC   O1223405   1.385   3.999   9.923  0.5029  0.3908  0.0919
  190DOPC   O1123406   1.494   4.135  10.092  0.2832 -0.8870  0.4065
  190DOPC    C123407   1.559   4.037  10.171  0.7655  0.2280  0.2089
  190DOPC    HA23408   1.669   4.038  10.160  0.8174 -1.3213  0.3795
  190DOPC    HB23409   1.531   3.938  10.128 -0.3614  1.4860 -2.1983
  190DOPC    C223410   1.518   4.052  10.317  0.2587 -0.5725  0.2836
  190DOPC    HS23411   1.600   4.041  10.391 -2.0485  0.2876  3.1538
  190DOPC   O2123412   1.393   3.973  10.337 -0.0927  0.0246  0.2138
  190DOPC   C2123413   1.378   3.928  10.459 -0.1969  0.5400 -0.2574
  190DOPC   O2223414   1.450   3.950  10.558  0.3556  0.8185  0.3812
  190DOPC   C2223415   1.252   3.840  10.460 -0.1848 -0.0256  0.7106
  190DOPC   H2R23416   1.279   3.741  10.503 -1.6509 -1.3486 -1.2190
  190DOPC   H2S23417   1.228   3.813  10.354  1.3853  0.0609  0.3145
  190DOPC    C323418   1.479   4.206  10.351  0.3343  0.1175 -0.4260
  190DOPC    HX23419   1.389   4.230  10.291 -0.3457 -0.5464  0.3066
  190DOPC    HY23420   1.565   4.272  10.325 -0.8009  1.6306 -0.4897
  190DOPC   O3123421   1.449   4.231  10.494 -0.1809  0.0067  0.5607
  190DOPC   C3123422   1.551   4.248  10.574 -0.0145  0.0720 -0.5940
  190DOPC   O3223423   1.666   4.273  10.545 -0.2210 -0.0716 -0.5561
  190DOPC   C3223424   1.500   4.217  10.717 -1.0548  0.0473  0.0879
  190DOPC   H2X23425   1.465   4.313  10.761 -1.8276  0.0472 -0.5152
  190DOPC   H2Y23426   1.422   4.138  10.712  0.7151 -1.7599  0.2166
  190DOPC   C2323427   1.139   3.901  10.538  0.2040  0.5314  0.4468
  190DOPC   H3R23428   1.051   3.838  10.515 -0.1959  1.5912 -1.0375
  190DOPC   H3S23429   1.112   4.005  10.512 -1.2397  0.3750  1.2308
  190DOPC   C2423430   1.168   3.878  10.681  0.8405  0.4048  0.1613
  190DOPC   H4R23431   1.251   3.943  10.715 -1.1182  2.5675  1.0663
  190DOPC   H4S23432   1.195   3.771  10.698  0.8647  0.7032  2.2565
  190DOPC   C2523433   1.047   3.897  10.774  0.0079 -0.9809  0.2123
  190DOPC   H5R23434   0.977   3.814  10.750  0.5800 -1.2158 -0.6851
  190DOPC   H5S23435   1.008   3.994  10.735  2.0885 -0.4333 -0.6473
  190DOPC   C2623436   1.088   3.907  10.921 -0.6672  0.1952  0.5453
  190DOPC   H6R23437   1.130   4.009  10.937 -1.3214  0.4381  0.7560
  190DOPC   H6S23438   1.170   3.833  10.924  1.1843  2.0108 -1.6012
  190DOPC   C2723439   0.991   3.863  11.028 -0.4359 -0.4145 -0.8091
  190DOPC   H7R23440   0.996   3.753  11.017  1.2687 -0.2847 -1.7145
  190DOPC   H7S23441   0.894   3.914  11.012 -0.5380  0.2001  1.4232
  190DOPC   C2823442   1.039   3.908  11.169 -0.3288 -0.3319 -0.6793
  190DOPC   H8R23443   0.996   4.008  11.191  0.7918 -0.3981  2.2363
  190DOPC   H8S23444   1.148   3.929  11.171 -0.2597 -0.7129 -0.3237
  190DOPC   C2923445   1.004   3.808  11.280 -0.1409  0.0110 -0.5024
  190DOPC   H9R23446   0.991   3.706  11.243 -0.1233 -1.6154  3.4657
  190DOPC  C21023447   1.001   3.830  11.411  0.4326 -0.2863  0.0158
  190DOPC  H10R23448   0.976   3.735  11.461 -1.4552 -1.3060 -2.6101
  190DOPC  C21123449   1.030   3.955  11.492  0.0256 -0.4723 -0.0292
  190DOPC  H11R23450   0.948   4.028  11.475 -0.5195 -0.4176  2.4900
  190DOPC  H11S23451   1.123   4.006  11.457 -1.1788  1.5684 -0.4430
  190DOPC  C21223452   1.041   3.939  11.646 -0.4439  0.3978 -0.1794
  190DOPC  H12R23453   1.130   3.883  11.682  1.0891  3.0021  0.3374
  190DOPC  H12S23454   0.948   3.883  11.671  1.0713 -3.0620 -1.6007
  190DOPC  C21323455   1.041   4.069  11.723  0.2433  0.6379 -0.1857
  190DOPC  H13R23456   0.946   4.121  11.699 -0.2248  0.3094  0.8955
  190DOPC  H13S23457   1.116   4.142  11.685  0.0973  0.2072 -1.3392
  190DOPC  C21423458   1.042   4.048  11.874 -0.1991  0.0918  0.5541
  190DOPC  H14R23459   1.088   4.135  11.927  3.0825 -2.3226  2.0319
  190DOPC  H14S23460   1.107   3.961  11.898  0.8734  0.7079 -0.0257
  190DOPC  C21523461   0.904   4.040  11.940  0.1267 -0.1755  0.2368
  190DOPC  H15R23462   0.888   3.931  11.954  0.6932 -0.4188 -0.8818
  190DOPC  H15S23463   0.827   4.076  11.868  0.7047 -2.1301 -1.4356
  190DOPC  C21623464   0.902   4.110  12.077  0.3433  0.1034 -0.3557
  190DOPC  H16R23465   0.798   4.127  12.113  0.8457  0.5120  0.9708
  190DOPC  H16S23466   0.950   4.210  12.065  0.2102  0.3058  0.6668
  190DOPC  C21723467   0.977   4.036  12.188 -0.4902  0.1765 -0.0017
  190DOPC  H17R23468   1.084   4.047  12.159 -0.5269 -1.1688 -0.6982
  190DOPC  H17S23469   0.942   3.931  12.178 -0.0637  0.1459 -1.3194
  190DOPC  C21823470   0.970   4.093  12.326  0.3547 -0.1957  0.1613
  190DOPC  H18R23471   0.994   4.202  12.324 -1.6056  0.2619 -0.5551
  190DOPC  H18S23472   1.046   4.039  12.386  0.3955 -0.4740 -0.1406
  190DOPC  H18T23473   0.871   4.087  12.376  1.0481  2.5324  2.1019
  190DOPC   C3323474   1.617   4.167  10.802 -0.1168  0.2234  0.6411
  190DOPC   H3X23475   1.716   4.210  10.773  0.7435 -1.6775  0.6208
  190DOPC   H3Y23476   1.622   4.056  10.794  1.6097  0.3210 -0.0481
  190DOPC   C3423477   1.590   4.198  10.950 -0.0626 -0.1819 -0.2540
  190DOPC   H4X23478   1.489   4.160  10.977 -0.8126  1.1009 -1.1509
  190DOPC   H4Y23479   1.589   4.309  10.951  0.5558 -0.1705  0.9303
  190DOPC   C3523480   1.688   4.150  11.051 -0.1850  0.1447  0.0430
  190DOPC   H5X23481   1.782   4.208  11.038 -0.5988  0.8640  0.2024
  190DOPC   H5Y23482   1.715   4.043  11.036  0.7459  0.4264 -0.4114
  190DOPC   C3623483   1.643   4.178  11.197 -0.2964  0.3741 -0.0920
  190DOPC   H6X23484   1.732   4.147  11.256 -0.4818 -4.7220 -1.9223
  190DOPC   H6Y23485   1.616   4.283  11.219  0.0442  0.0954  1.8290
  190DOPC   C3723486   1.532   4.087  11.251  0.6470  0.1785 -0.0494
  190DOPC   H7X23487   1.436   4.103  11.199  0.6307  0.6634  0.1183
  190DOPC   H7Y23488   1.557   3.980  11.239 -2.4806 -0.4130 -2.6468
  190DOPC   C3823489   1.513   4.115  11.399 -0.7186  0.2474 -0.0516
  190DOPC   H8X23490   1.480   4.221  11.404  3.1016  1.6853 -1.5245
  190DOPC   H8Y23491   1.611   4.115  11.452 -0.7838 -1.0785  0.1183
  190DOPC   C3923492   1.402   4.034  11.468 -0.2220  0.0926 -0.1119
  190DOPC   H9X23493   1.325   3.987  11.404  1.0767 -4.1946  1.0938
  190DOPC  C31023494   1.403   4.000  11.595  0.2781 -0.2589  0.3765
  190DOPC  H10X23495   1.325   3.933  11.633 -0.3641 -0.5498 -1.3855
  190DOPC  C31123496   1.502   4.049  11.694  0.3762  0.6253 -1.0863
  190DOPC  H11X23497   1.548   4.144  11.660  1.0131  0.1818 -1.5000
  190DOPC  H11Y23498   1.591   3.982  11.697 -0.7692 -0.9202 -0.0260
  190DOPC  C31223499   1.434   4.073  11.828 -0.1091  0.4226 -0.0148
  190DOPC  H12X23500   1.388   3.976  11.856 -1.0487  0.6345 -0.7609
  190DOPC  H12Y23501   1.356   4.150  11.808 -2.2923 -1.3142  1.3171
  190DOPC  C31323502   1.529   4.111  11.947  0.3274 -0.3912  0.1353
  190DOPC  H13X23503   1.474   4.121  12.044 -0.7858  1.4296 -0.6320
  190DOPC  H13Y23504   1.606   4.035  11.970 -1.9176 -3.0297 -0.6448
  190DOPC  C31423505   1.590   4.252  11.921 -0.5563  0.5582  0.1039
  190DOPC  H14X23506   1.692   4.251  11.879 -1.1422  0.4327 -1.3731
  190DOPC  H14Y23507   1.524   4.303  11.847  1.2024  0.6187 -1.5068
  190DOPC  C31523508   1.608   4.330  12.051 -0.3423 -0.7467  0.1202
  190DOPC  H15X23509   1.658   4.273  12.133 -1.3099  1.2611  2.2031
  190DOPC  H15Y23510   1.505   4.350  12.088 -0.0341  0.1954  0.4933
  190DOPC  C31623511   1.693   4.462  12.026  0.8959 -0.1754 -0.5075
  190DOPC  H16X23512   1.793   4.451  11.979  1.6510  0.6434  0.8289
  190DOPC  H16Y23513   1.631   4.521  11.955 -0.8866 -0.1269  1.0189
  190DOPC  C31723514   1.702   4.554  12.155  0.2346  0.7041 -0.0875
  190DOPC  H17X23515   1.779   4.627  12.122  0.9963  0.6707  1.5085
  190DOPC  H17Y23516   1.603   4.597  12.182  1.2126  3.7907 -1.0037
  190DOPC  C31823517   1.763   4.481  12.282 -0.6912 -0.6607  0.2504
  190DOPC  H18X23518   1.855   4.434  12.243 -0.2187  1.3414 -1.1764
  190DOPC  H18Y23519   1.799   4.555  12.357  1.1890 -1.2281 -0.0411
  190DOPC  H18Z23520   1.695   4.398  12.313 -0.1687 -1.3191 -0.3289
  191DOPC     N23521   4.146   2.813   9.953  0.5152  0.0694  0.7337
  191DOPC   C1223522   4.073   2.890  10.065  0.0985 -0.5933 -0.3500
  191DOPC  H12A23523   3.983   2.832  10.081  0.0607 -0.7979 -1.2813
  191DOPC  H12B23524   4.039   2.987  10.031  2.0627  0.8199  1.4468
  191DOPC   C1323525   4.213   2.696  10.011 -0.4070 -0.2354  0.7425
  191DOPC  H13A23526   4.140   2.626  10.051 -2.0215  1.0217  0.0935
  191DOPC  H13B23527   4.276   2.656   9.934  0.4472  1.7828  0.3449
  191DOPC  H13C23528   4.279   2.720  10.093  0.6179  1.6217 -0.5476
  191DOPC   C1423529   4.241   2.901   9.877 -1.0122  0.7557 -0.0806
  191DOPC  H14A23530   4.284   2.838   9.801  1.7110  0.3863  1.6509
  191DOPC  H14B23531   4.194   2.995   9.851 -0.4227  0.7023 -1.3836
  191DOPC  H14C23532   4.321   2.929   9.944 -1.2224  2.4360 -0.4916
  191DOPC   C1523533   4.042   2.779   9.851 -0.4161 -0.1227 -0.5817
  191DOPC  H15A23534   4.009   2.873   9.808  2.9742  1.4601 -0.0619
  191DOPC  H15B23535   3.958   2.731   9.899  0.7850 -1.3814  0.3326
  191DOPC  H15C23536   4.092   2.716   9.779  1.2279 -1.0300  1.2558
  191DOPC   C1123537   4.139   2.922  10.203 -0.0836 -0.2035  0.2634
  191DOPC  H11A23538   4.077   2.963  10.285  0.7594 -1.4915  1.6100
  191DOPC  H11B23539   4.178   2.829  10.250 -3.3257 -1.3117  0.9764
  191DOPC     P23540   4.229   3.173  10.176 -0.4247  0.4495  0.0896
  191DOPC   O1323541   4.093   3.214  10.152 -0.0599  0.1865  0.1555
  191DOPC   O1423542   4.332   3.223  10.083 -0.3990  0.4163  0.2493
  191DOPC   O1223543   4.243   3.013  10.188 -0.3603 -0.1794 -0.1707
  191DOPC   O1123544   4.268   3.222  10.324  0.3855  0.2334  0.6130
  191DOPC    C123545   4.394   3.185  10.379 -0.0127 -0.2266 -0.1842
  191DOPC    HA23546   4.437   3.276  10.426  3.4199 -1.4451 -0.6620
  191DOPC    HB23547   4.472   3.172  10.301 -0.2215  1.5857 -0.7240
  191DOPC    C223548   4.386   3.066  10.476 -0.1837  1.0518  0.2182
  191DOPC    HS23549   4.365   2.979  10.410  3.0573 -0.5390  1.1203
  191DOPC   O2123550   4.280   3.096  10.570  0.0729  0.1768  0.2636
  191DOPC   C2123551   4.206   2.993  10.611  0.3236 -0.1085 -1.3369
  191DOPC   O2223552   4.220   2.875  10.574 -0.4844  0.2534 -0.3611
  191DOPC   C2223553   4.099   3.046  10.713  0.6852  0.0378 -0.7049
  191DOPC   H2R23554   4.012   2.978  10.703 -0.9688  1.8248  0.6968
  191DOPC   H2S23555   4.067   3.150  10.690  0.7205  0.6678  1.8032
  191DOPC    C323556   4.517   3.023  10.534 -0.3349 -0.2924 -0.3121
  191DOPC    HX23557   4.567   3.102  10.593 -0.2053 -0.2936 -0.4174
  191DOPC    HY23558   4.592   3.000  10.454  1.5139  1.5340  0.8080
  191DOPC   O3123559   4.515   2.911  10.616 -0.0422 -0.0549 -0.5586
  191DOPC   C3123560   4.529   2.793  10.567  0.7664 -0.0181 -0.1417
  191DOPC   O3223561   4.541   2.763  10.449  0.0980  0.5558 -0.0587
  191DOPC   C3223562   4.547   2.698  10.683  0.2862  0.5015  0.2702
  191DOPC   H2X23563   4.595   2.603  10.653  1.6796  1.2668 -0.0188
  191DOPC   H2Y23564   4.607   2.738  10.768  3.1168 -1.0088 -0.9006
  191DOPC   C2323565   4.131   3.039  10.868  0.6923 -0.5644 -0.0929
  191DOPC   H3R23566   4.203   2.956  10.887  0.2123 -0.9999 -0.1484
  191DOPC   H3S23567   4.042   3.010  10.928 -0.0746 -0.4160 -1.1318
  191DOPC   C2423568   4.197   3.167  10.930 -0.1017  0.4006 -0.8049
  191DOPC   H4R23569   4.145   3.254  10.884 -0.0024  1.1306  0.4214
  191DOPC   H4S23570   4.307   3.173  10.915  0.1306  3.6991  1.1358
  191DOPC   C2523571   4.173   3.187  11.086  0.1935 -0.3073 -0.0802
  191DOPC   H5R23572   4.218   3.104  11.143  0.5847 -0.6795 -0.9095
  191DOPC   H5S23573   4.066   3.176  11.115  0.0108  0.7565 -0.3134
  191DOPC   C2623574   4.227   3.314  11.151 -0.3661 -0.2003 -0.7071
  191DOPC   H6R23575   4.178   3.403  11.104 -0.6003 -0.1751 -0.4192
  191DOPC   H6S23576   4.335   3.320  11.127 -0.3392 -0.4186 -0.6429
  191DOPC   C2723577   4.214   3.310  11.304 -0.1477  0.0065 -0.4956
  191DOPC   H7R23578   4.269   3.220  11.341 -4.5331 -1.8516  2.3659
  191DOPC   H7S23579   4.104   3.302  11.317  0.0736 -0.0020  1.8332
  191DOPC   C2823580   4.271   3.437  11.380  0.5965 -0.0322  0.1648
  191DOPC   H8R23581   4.240   3.425  11.486 -1.7689 -0.5660 -0.5296
  191DOPC   H8S23582   4.223   3.528  11.338  0.2955  0.3454  1.3148
  191DOPC   C2923583   4.422   3.445  11.375 -0.5585 -0.5300 -0.4607
  191DOPC   H9R23584   4.459   3.431  11.273 -0.9501 -0.6384 -0.5910
  191DOPC  C21023585   4.502   3.467  11.485  0.2609 -0.4103 -0.1111
  191DOPC  H10R23586   4.610   3.452  11.472  0.6356  2.5661 -1.3292
  191DOPC  C21123587   4.463   3.503  11.626  0.2265  0.0221 -0.0931
  191DOPC  H11R23588   4.358   3.538  11.627  0.2653  0.1324  0.5205
  191DOPC  H11S23589   4.516   3.596  11.658 -2.0237  1.9469 -1.6094
  191DOPC  C21223590   4.467   3.392  11.734  0.8385  0.3209 -0.2601
  191DOPC  H12R23591   4.555   3.330  11.707  0.0315 -0.8112 -0.3458
  191DOPC  H12S23592   4.387   3.318  11.714 -0.3188  1.4506 -0.0109
  191DOPC  C21323593   4.466   3.435  11.881  0.0252 -0.7234  0.5095
  191DOPC  H13R23594   4.551   3.505  11.895  0.3179 -0.2264 -2.8694
  191DOPC  H13S23595   4.474   3.341  11.941  0.8920 -0.9925 -0.0149
  191DOPC  C21423596   4.334   3.502  11.919  0.2858  0.4201  0.0649
  191DOPC  H14R23597   4.256   3.423  11.919  0.8568 -0.1504  0.8755
  191DOPC  H14S23598   4.306   3.582  11.846  1.2569  0.8954  0.1956
  191DOPC  C21523599   4.331   3.558  12.061  0.2163  0.1951 -0.4073
  191DOPC  H15R23600   4.229   3.598  12.076  0.7619  1.2589  0.6649
  191DOPC  H15S23601   4.409   3.636  12.072 -0.8035  0.9586  2.1766
  191DOPC  C21623602   4.350   3.458  12.168  0.2370  0.5433  0.0001
  191DOPC  H16R23603   4.438   3.390  12.160 -0.1543  0.2091 -1.6645
  191DOPC  H16S23604   4.263   3.392  12.149 -1.8410  2.8047  1.1806
  191DOPC  C21723605   4.339   3.504  12.316 -0.0674  0.3401  0.3272
  191DOPC  H17R23606   4.236   3.515  12.356  0.7551  0.9941  2.4233
  191DOPC  H17S23607   4.410   3.589  12.320  1.7911 -1.1197 -0.2538
  191DOPC  C21823608   4.410   3.407  12.414  0.8666  0.6350  0.5680
  191DOPC  H18R23609   4.516   3.438  12.411  1.6473 -1.6788  1.6875
  191DOPC  H18S23610   4.404   3.297  12.399 -0.0222  0.3683  2.6021
  191DOPC  H18T23611   4.371   3.435  12.514  0.7856  2.2948  0.1100
  191DOPC   C3323612   4.411   2.637  10.725 -0.4178  0.5803 -0.9222
  191DOPC   H3X23613   4.359   2.598  10.635 -2.4795  0.1684  0.3947
  191DOPC   H3Y23614   4.350   2.725  10.753  0.3643 -0.3397  5.0493
  191DOPC   C3423615   4.424   2.525  10.836  0.0116 -0.8240 -0.5409
  191DOPC   H4X23616   4.482   2.443  10.788  1.1505 -0.4633  0.1853
  191DOPC   H4Y23617   4.321   2.489  10.856 -0.4147 -0.4499 -1.9229
  191DOPC   C3523618   4.495   2.563  10.970  1.0831  0.4555  0.9519
  191DOPC   H5X23619   4.463   2.664  11.004 -0.2943  0.2501  0.3306
  191DOPC   H5Y23620   4.603   2.567  10.941  1.5294 -1.8823  2.0160
  191DOPC   C3623621   4.461   2.468  11.088 -0.0554 -0.3051  0.2916
  191DOPC   H6X23622   4.425   2.531  11.173 -1.5247 -0.7075 -0.0065
  191DOPC   H6Y23623   4.374   2.406  11.058 -0.4320 -0.3874  1.4965
  191DOPC   C3723624   4.574   2.380  11.123  0.0837  0.3309 -0.0997
  191DOPC   H7X23625   4.599   2.314  11.038  0.2879  2.7093 -1.9848
  191DOPC   H7Y23626   4.657   2.454  11.131 -0.0271  0.7051 -1.9718
  191DOPC   C3823627   4.536   2.317  11.261 -0.5917 -0.4650  0.0648
  191DOPC   H8X23628   4.594   2.224  11.279  0.0531 -0.3809 -1.3980
  191DOPC   H8Y23629   4.427   2.299  11.266 -0.4767 -1.0267  0.6954
  191DOPC   C3923630   4.575   2.413  11.374 -0.6234  0.4780  1.0509
  191DOPC   H9X23631   4.684   2.425  11.381 -0.2879 -0.9408 -0.8389
  191DOPC  C31023632   4.502   2.481  11.470 -0.6939  0.0931 -0.2007
  191DOPC  H10X23633   4.541   2.550  11.546 -1.9006 -0.3229  0.8396
  191DOPC  C31123634   4.351   2.470  11.479 -0.4924 -0.3579 -0.1214
  191DOPC  H11X23635   4.310   2.383  11.423 -0.5874 -0.5643  0.2699
  191DOPC  H11Y23636   4.319   2.558  11.418 -0.5700 -0.1637  0.1974
  191DOPC  C31223637   4.278   2.477  11.613 -0.3633  0.1489  0.5213
  191DOPC  H12X23638   4.291   2.383  11.671 -1.7132  0.4565  1.3755
  191DOPC  H12Y23639   4.174   2.480  11.575  0.1151 -2.3221 -1.2781
  191DOPC  C31323640   4.303   2.601  11.706  0.2060 -0.2872  0.4271
  191DOPC  H13X23641   4.406   2.594  11.747  0.2831  1.0906  0.5440
  191DOPC  H13Y23642   4.295   2.688  11.637 -1.3750 -0.5132  0.2886
  191DOPC  C31423643   4.208   2.607  11.825 -0.2268 -0.8954  0.0434
  191DOPC  H14X23644   4.225   2.708  11.868 -0.1654 -0.2311 -1.4665
  191DOPC  H14Y23645   4.105   2.598  11.785  0.4063 -0.4088 -1.8312
  191DOPC  C31523646   4.244   2.491  11.927 -0.2886 -0.4823 -0.9175
  191DOPC  H15X23647   4.354   2.496  11.942 -0.5205  1.0905  0.5730
  191DOPC  H15Y23648   4.204   2.398  11.882 -1.4445 -0.6021  0.3031
  191DOPC  C31623649   4.178   2.507  12.073  0.0454 -0.4830 -0.4380
  191DOPC  H16X23650   4.239   2.578  12.132 -1.3318 -0.9362  1.6247
  191DOPC  H16Y23651   4.074   2.536  12.049  0.8668  2.1398 -1.2168
  191DOPC  C31723652   4.180   2.384  12.155 -0.9279  0.3919  0.0437
  191DOPC  H17X23653   4.137   2.306  12.088  0.3732  1.3210 -1.9485
  191DOPC  H17Y23654   4.287   2.364  12.174 -1.1449  0.4643  1.4347
  191DOPC  C31823655   4.114   2.385  12.290 -0.4532  0.1023  0.1539
  191DOPC  H18X23656   4.013   2.430  12.276  0.3669  1.2827 -2.7729
  191DOPC  H18Y23657   4.098   2.280  12.322 -0.0026  0.3663  1.3017
  191DOPC  H18Z23658   4.161   2.438  12.376  0.7130 -0.9118  0.1727
  192DOPC     N23659   0.664   0.609   9.538  0.0945 -0.0794  0.4091
  192DOPC   C1223660   0.540   0.552   9.591  0.5120  0.6323 -0.2388
  192DOPC  H12A23661   0.491   0.501   9.509  1.8725  0.2068 -0.8190
  192DOPC  H12B23662   0.476   0.638   9.606  0.2420  0.2306  1.0660
  192DOPC   C1323663   0.625   0.693   9.415  0.3311 -0.1893 -0.7820
  192DOPC  H13A23664   0.542   0.758   9.437  0.6844 -0.5612  2.1103
  192DOPC  H13B23665   0.709   0.746   9.373 -0.5729  1.3061 -0.7522
  192DOPC  H13C23666   0.587   0.626   9.340  0.9687 -1.4847 -0.0049
  192DOPC   C1423667   0.766   0.509   9.499 -0.1549 -0.5526 -0.4837
  192DOPC  H14A23668   0.848   0.571   9.465 -2.1352  3.4282  1.2506
  192DOPC  H14B23669   0.799   0.457   9.587  0.4422 -0.2345 -0.5125
  192DOPC  H14C23670   0.737   0.437   9.424  0.2824  1.3284 -2.5778
  192DOPC   C1523671   0.725   0.706   9.636  0.0897 -0.0855  0.0436
  192DOPC  H15A23672   0.655   0.779   9.675  1.4909  0.4880  1.5873
  192DOPC  H15B23673   0.805   0.763   9.593  2.1153 -1.1735  2.1887
  192DOPC  H15C23674   0.755   0.647   9.721 -0.3036 -0.4772 -0.0844
  192DOPC   C1123675   0.555   0.458   9.710 -0.0834  0.1558 -0.0110
  192DOPC  H11A23676   0.454   0.412   9.715 -0.1391  0.3650  1.0972
  192DOPC  H11B23677   0.623   0.371   9.695 -0.8003 -0.1359 -1.7866
  192DOPC     P23678   0.494   0.621   9.902  0.6558 -0.1226  0.1699
  192DOPC   O1323679   0.462   0.740   9.820  0.5053  0.0378 -0.0535
  192DOPC   O1423680   0.559   0.652  10.031  0.1120 -0.5058  0.7652
  192DOPC   O1223681   0.587   0.533   9.824 -0.0593 -0.0270 -0.1532
  192DOPC   O1123682   0.366   0.530   9.922  0.3468  0.1053  0.1265
  192DOPC    C123683   0.368   0.450  10.040 -0.3306  0.0128  0.0946
  192DOPC    HA23684   0.324   0.509  10.122 -1.2397 -0.8892  0.2823
  192DOPC    HB23685   0.471   0.423  10.070 -0.8657 -2.8417 -0.3210
  192DOPC    C223686   0.279   0.316  10.026 -1.3203 -1.0511  0.1940
  192DOPC    HS23687   0.185   0.347   9.975 -1.1715  0.9757  1.0880
  192DOPC   O2123688   0.246   0.274  10.159 -0.1181  0.3877 -0.3306
  192DOPC   C2123689   0.150   0.189  10.161 -0.2189  0.4584  0.2433
  192DOPC   O2223690   0.082   0.148  10.071 -0.0388 -0.1879  0.1482
  192DOPC   C2223691   0.130   0.146  10.304 -0.6755  0.4123 -0.5426
  192DOPC   H2R23692   0.023   0.152  10.335 -0.5856  2.4495 -0.5002
  192DOPC   H2S23693   0.184   0.215  10.372 -0.4389  1.3064 -1.6160
  192DOPC    C323694   0.351   0.200   9.938  0.1582 -0.2695  0.2405
  192DOPC    HX23695   0.353   0.243   9.836 -0.3564 -2.8883 -0.9580
  192DOPC    HY23696   0.279   0.118   9.921  1.2276 -1.6482  1.9832
  192DOPC   O3123697   0.479   0.166   9.978 -0.5075  0.6523 -0.4932
  192DOPC   C3123698   0.481   0.064  10.070  0.0121  0.1482  0.0967
  192DOPC   O3223699   0.384   0.003  10.098 -0.3126 -0.0388 -0.0028
  192DOPC   C3223700   0.616   0.051  10.130  0.6260 -0.2579  0.5754
  192DOPC   H2X23701   0.667  -0.036  10.083 -1.0173 -0.1644 -1.5813
  192DOPC   H2Y23702   0.677   0.140  10.104  1.6409 -0.9151  0.6439
  192DOPC   C2323703   0.176   0.006  10.328  0.3255  0.1829  0.3889
  192DOPC   H3R23704   0.281  -0.012  10.298 -0.0143 -1.9771  0.3630
  192DOPC   H3S23705   0.107  -0.053  10.266  0.8879 -0.4907  0.3942
  192DOPC   C2423706   0.167  -0.043  10.473  0.3519 -0.0677 -0.6488
  192DOPC   H4R23707   0.114  -0.141  10.482 -0.9036  0.5680 -0.8186
  192DOPC   H4S23708   0.102   0.033  10.522  0.2442 -0.2613 -0.4908
  192DOPC   C2523709   0.294  -0.050  10.553 -0.2326 -0.5911 -0.6894
  192DOPC   H5R23710   0.352   0.042  10.530  0.4188 -1.3860 -2.4406
  192DOPC   H5S23711   0.362  -0.131  10.519 -0.5488 -0.1401 -2.4879
  192DOPC   C2623712   0.267  -0.073  10.702 -0.3616  0.4276  0.1271
  192DOPC   H6R23713   0.225  -0.175  10.714 -2.1340  1.1377  0.1653
  192DOPC   H6S23714   0.195   0.006  10.730 -0.9434 -0.4212  1.0950
  192DOPC   C2723715   0.397  -0.056  10.790 -0.4011  0.4640  0.7585
  192DOPC   H7R23716   0.349  -0.050  10.890 -0.9999 -0.1178  0.5177
  192DOPC   H7S23717   0.459   0.032  10.763  0.3361 -0.3314 -0.2028
  192DOPC   C2823718   0.501  -0.176  10.768  0.5427  0.3882 -0.4614
  192DOPC   H8R23719   0.604  -0.135  10.766  0.6183  0.1824 -0.9358
  192DOPC   H8S23720   0.479  -0.225  10.670 -0.2441  0.2020 -0.1950
  192DOPC   C2923721   0.473  -0.273  10.875 -0.0629  0.6710  0.1699
  192DOPC   H9R23722   0.393  -0.344  10.849  1.4944 -1.3135  0.5330
  192DOPC  C21023723   0.540  -0.274  10.998  0.0408 -0.0987  0.5607
  192DOPC  H10R23724   0.512  -0.351  11.071  1.2236 -0.2488  0.8861
  192DOPC  C21123725   0.624  -0.158  11.037 -0.7070 -0.4420  0.4568
  192DOPC  H11R23726   0.575  -0.059  11.022  1.7561  0.8362  0.1967
  192DOPC  H11S23727   0.724  -0.169  10.991 -2.2161 -2.0882 -2.6743
  192DOPC  C21223728   0.652  -0.167  11.185  0.0946 -0.1698  0.2788
  192DOPC  H12R23729   0.730  -0.096  11.220 -1.8438  1.7727  0.9460
  192DOPC  H12S23730   0.693  -0.267  11.209  0.6811 -0.2584 -1.0303
  192DOPC  C21323731   0.525  -0.161  11.270 -0.3573 -1.0713  0.4077
  192DOPC  H13R23732   0.449  -0.236  11.239  0.4985 -1.2357 -1.4515
  192DOPC  H13S23733   0.476  -0.066  11.238 -1.3537 -0.5306  3.1909
  192DOPC  C21423734   0.543  -0.152  11.420  0.3713 -0.2710 -0.1227
  192DOPC  H14R23735   0.613  -0.077  11.462 -0.9213  0.1408  1.4179
  192DOPC  H14S23736   0.585  -0.250  11.453  2.2680 -0.1525 -1.9934
  192DOPC  C21523737   0.409  -0.137  11.492 -0.3552 -0.6777 -0.7225
  192DOPC  H15R23738   0.322  -0.197  11.456 -0.3412 -0.7119 -0.6995
  192DOPC  H15S23739   0.368  -0.034  11.483  1.5353  0.0378 -1.5603
  192DOPC  C21623740   0.412  -0.151  11.653  0.5173  1.3409  0.0169
  192DOPC  H16R23741   0.446  -0.253  11.684 -0.1163  0.7615 -1.1292
  192DOPC  H16S23742   0.311  -0.147  11.697  0.6292 -0.3740  0.5235
  192DOPC  C21723743   0.505  -0.055  11.711  0.1573 -0.3456 -0.1062
  192DOPC  H17R23744   0.470   0.046  11.678 -0.8864 -0.0931  1.6380
  192DOPC  H17S23745   0.612  -0.072  11.689  0.3492  1.5457 -0.8654
  192DOPC  C21823746   0.497  -0.046  11.863 -0.0230  0.3918  0.1704
  192DOPC  H18R23747   0.414   0.019  11.899 -0.9140  0.1002 -1.2527
  192DOPC  H18S23748   0.593  -0.003  11.897  0.4310 -0.6165  0.1962
  192DOPC  H18T23749   0.488  -0.149  11.904  2.1420 -0.2881 -0.9083
  192DOPC   C3323750   0.617   0.037  10.285 -0.3198  0.3912  0.2528
  192DOPC   H3X23751   0.704  -0.026  10.312 -0.8696 -1.0931 -1.2679
  192DOPC   H3Y23752   0.525  -0.014  10.320 -1.2714  0.8705 -1.4094
  192DOPC   C3423753   0.634   0.172  10.354  0.2822  0.2076 -0.2119
  192DOPC   H4X23754   0.732   0.215  10.325  1.0300 -1.5521 -0.4576
  192DOPC   H4Y23755   0.646   0.143  10.460  0.2968  1.8821  0.2597
  192DOPC   C3523756   0.515   0.269  10.343 -0.0729 -0.0390 -0.1933
  192DOPC   H5X23757   0.426   0.218  10.386 -0.5150  0.7356 -0.1778
  192DOPC   H5Y23758   0.493   0.292  10.236  1.3624 -1.4203 -0.8321
  192DOPC   C3623759   0.535   0.401  10.417  0.5682 -0.6644  0.8209
  192DOPC   H6X23760   0.642   0.429  10.416  0.8490 -1.5776 -1.6879
  192DOPC   H6Y23761   0.471   0.474  10.363 -0.8730 -2.0391  0.6050
  192DOPC   C3723762   0.474   0.404  10.562  0.5430 -0.6826 -0.3279
  192DOPC   H7X23763   0.374   0.355  10.558  0.3150 -0.3958  1.3499
  192DOPC   H7Y23764   0.536   0.351  10.637  0.1603  1.6075  1.7039
  192DOPC   C3823765   0.438   0.543  10.618 -0.4039  0.0324 -0.2669
  192DOPC   H8X23766   0.404   0.526  10.722  0.0404 -0.8280 -0.2533
  192DOPC   H8Y23767   0.356   0.585  10.556 -0.0612  0.1051 -0.6801
  192DOPC   C3923768   0.546   0.649  10.600 -0.0470 -0.0858 -0.2558
  192DOPC   H9X23769   0.596   0.655  10.502  0.3608  1.0733  0.0045
  192DOPC  C31023770   0.540   0.759  10.676  0.1606 -0.1517 -0.6479
  192DOPC  H10X23771   0.599   0.849  10.653 -0.2478  0.2788 -0.0424
  192DOPC  C31123772   0.457   0.786  10.800 -0.3371  0.0059 -0.1557
  192DOPC  H11X23773   0.379   0.709  10.815  0.8654 -1.5012 -1.3249
  192DOPC  H11Y23774   0.406   0.885  10.803 -0.1072  0.1175  0.1608
  192DOPC  C31223775   0.537   0.790  10.935  0.0183  0.0388  0.1788
  192DOPC  H12X23776   0.629   0.847  10.908 -0.7883  0.5574 -1.6983
  192DOPC  H12Y23777   0.571   0.688  10.962  1.2212  0.2677 -0.3585
  192DOPC  C31323778   0.453   0.849  11.049 -0.4196 -0.2599 -0.7783
  192DOPC  H13X23779   0.409   0.950  11.031 -2.3018 -0.4897  1.9607
  192DOPC  H13Y23780   0.368   0.780  11.063  0.6892 -1.3754  0.7604
  192DOPC  C31423781   0.538   0.849  11.182 -0.1791  0.0582 -0.2340
  192DOPC  H14X23782   0.571   0.745  11.200 -1.0420 -0.0592  0.7668
  192DOPC  H14Y23783   0.624   0.919  11.175 -1.1985  1.4030  0.1200
  192DOPC  C31523784   0.452   0.893  11.301 -0.3255 -0.1590 -0.2408
  192DOPC  H15X23785   0.372   0.818  11.313  0.1123 -0.5333  0.4531
  192DOPC  H15Y23786   0.409   0.994  11.284  1.7583  1.0696  1.2627
  192DOPC  C31623787   0.533   0.910  11.437  0.1765 -0.0136  0.6559
  192DOPC  H16X23788   0.577   0.811  11.462  0.3552 -0.1986 -0.3326
  192DOPC  H16Y23789   0.621   0.977  11.435  0.7254 -0.6153 -3.5040
  192DOPC  C31723790   0.439   0.959  11.553 -0.5671 -0.1041 -0.2713
  192DOPC  H17X23791   0.381   1.050  11.528 -1.3984  0.1289  2.2828
  192DOPC  H17Y23792   0.371   0.874  11.573  0.5691 -1.5524 -2.1428
  192DOPC  C31823793   0.524   0.993  11.674 -0.2068 -0.1478 -0.1693
  192DOPC  H18X23794   0.461   1.042  11.751 -1.1354  0.1398 -1.0805
  192DOPC  H18Y23795   0.569   0.908  11.729  1.2064  1.9622  2.1627
  192DOPC  H18Z23796   0.600   1.066  11.639  0.3286  0.2389  1.6887
  193DOPC     N23797   5.862   4.036   9.733 -0.2954 -0.4608  0.2089
  193DOPC   C1223798   5.768   4.148   9.759  0.3234 -0.4726 -0.0166
  193DOPC  H12A23799   5.712   4.119   9.847  0.6035 -0.3450  0.2045
  193DOPC  H12B23800   5.710   4.163   9.669  2.7080 -1.8202 -1.9150
  193DOPC   C1323801   5.793   3.924   9.663 -0.4711  0.1722  0.5476
  193DOPC  H13A23802   5.738   3.967   9.580  0.8389  1.4440  0.3121
  193DOPC  H13B23803   5.863   3.854   9.620 -2.0695 -1.5069  0.5151
  193DOPC  H13C23804   5.737   3.871   9.738 -0.3158  0.3557  0.7940
  193DOPC   C1423805   5.925   3.989   9.862  0.4209 -0.4835  0.4488
  193DOPC  H14A23806   5.850   3.969   9.937  0.7990  0.9940  1.2674
  193DOPC  H14B23807   5.967   3.893   9.837  2.2044  0.6050 -0.9574
  193DOPC  H14C23808   6.000   4.057   9.899  0.7863  2.2543 -4.5308
  193DOPC   C1523809   5.977   4.069   9.637  0.0254 -0.3673  0.0955
  193DOPC  H15A23810   6.056   4.123   9.688 -0.0698 -1.3558  1.3548
  193DOPC  H15B23811   5.951   4.135   9.556  1.4568  0.7630  0.5292
  193DOPC  H15C23812   6.009   3.973   9.599 -0.5191 -0.8767  0.8994
  193DOPC   C1123813   5.836   4.279   9.787  0.2016 -0.1639 -0.5106
  193DOPC  H11A23814   5.915   4.297   9.712  0.8689 -0.8205  0.0254
  193DOPC  H11B23815   5.763   4.361   9.769 -0.0928 -0.4888 -0.8126
  193DOPC     P23816   5.801   4.307  10.042 -0.4597 -0.0104 -0.2914
  193DOPC   O1323817   5.693   4.210  10.042 -0.4361 -0.0718 -0.1336
  193DOPC   O1423818   5.768   4.451  10.055  0.0292 -0.0921 -0.5400
  193DOPC   O1223819   5.898   4.286   9.919 -0.2703 -0.1759  0.5588
  193DOPC   O1123820   5.892   4.260  10.163  0.8054 -0.5859  0.2251
  193DOPC    C123821   6.023   4.318  10.191 -0.1084 -0.1168 -0.7831
  193DOPC    HA23822   6.042   4.414  10.138  1.3479 -0.1976 -0.4562
  193DOPC    HB23823   6.097   4.236  10.173  1.7612  1.5284 -0.9679
  193DOPC    C223824   6.036   4.349  10.344  0.3059 -0.1822 -0.8610
  193DOPC    HS23825   6.141   4.375  10.369  0.8549 -2.1493 -0.9726
  193DOPC   O2123826   5.990   4.236  10.424 -0.3667  0.8430  0.4338
  193DOPC   C2123827   6.027   4.240  10.550  0.6129 -0.2950 -0.0435
  193DOPC   O2223828   6.114   4.311  10.603  0.2844 -0.5690 -0.2625
  193DOPC   C2223829   5.940   4.140  10.638 -0.3453 -0.0507  0.2535
  193DOPC   H2R23830   5.961   4.041  10.593  2.0573 -1.1284  3.4636
  193DOPC   H2S23831   5.831   4.165  10.633 -0.1208  0.7216 -1.6244
  193DOPC    C323832   5.940   4.463  10.384  0.1198 -0.5944  0.5907
  193DOPC    HX23833   5.837   4.427  10.368 -0.2282  0.1564  1.0535
  193DOPC    HY23834   5.946   4.545  10.310 -2.2804  1.5802  2.6090
  193DOPC   O3123835   5.951   4.504  10.522 -0.2154 -0.1777 -0.0800
  193DOPC   C3123836   6.050   4.584  10.536  0.2553  0.2125 -0.7312
  193DOPC   O3223837   6.129   4.626  10.450  0.2481  0.0792  0.0775
  193DOPC   C3223838   6.052   4.640  10.681  0.3664  0.3670 -0.4098
  193DOPC   H2X23839   5.947   4.668  10.707 -0.1725 -0.7062 -1.3444
  193DOPC   H2Y23840   6.079   4.555  10.747 -2.0857  0.6851  1.1593
  193DOPC   C2323841   5.989   4.141  10.780 -0.3722 -0.1206  0.2635
  193DOPC   H3R23842   5.987   4.248  10.811  2.8662  0.2025 -0.2865
  193DOPC   H3S23843   6.095   4.111  10.796  0.5903  1.3717 -2.6538
  193DOPC   C2423844   5.893   4.060  10.872 -0.0665 -0.0400 -0.7962
  193DOPC   H4R23845   5.888   3.958  10.829 -0.8778  0.7264 -2.6151
  193DOPC   H4S23846   5.788   4.097  10.870 -0.5082 -0.6735  2.9867
  193DOPC   C2523847   5.941   4.047  11.018 -0.0857 -0.2148  0.4953
  193DOPC   H5R23848   5.925   4.137  11.081 -1.0174 -0.0030 -0.0352
  193DOPC   H5S23849   6.049   4.024  11.007 -0.2171 -0.7778  0.3460
  193DOPC   C2623850   5.871   3.923  11.085  0.2586 -0.2656  0.2460
  193DOPC   H6R23851   5.910   3.836  11.027 -1.7978  0.2166 -1.9916
  193DOPC   H6S23852   5.761   3.923  11.070  0.2118  0.7222  0.5572
  193DOPC   C2723853   5.906   3.907  11.237  0.0295 -0.6018 -0.1193
  193DOPC   H7R23854   5.892   4.004  11.288  1.2065  0.9927 -2.6349
  193DOPC   H7S23855   6.017   3.900  11.247 -0.1653 -2.1582  1.5771
  193DOPC   C2823856   5.851   3.785  11.303  0.4572  0.0660 -0.1499
  193DOPC   H8R23857   5.917   3.754  11.387 -2.3304 -2.2981  1.3746
  193DOPC   H8S23858   5.844   3.702  11.230  0.6102  0.7558 -0.9614
  193DOPC   C2923859   5.709   3.821  11.353 -1.2873 -0.3742  0.1836
  193DOPC   H9R23860   5.629   3.804  11.280 -0.8163  0.2782 -0.4984
  193DOPC  C21023861   5.669   3.882  11.469 -0.2758  0.3237 -0.8173
  193DOPC  H10R23862   5.561   3.902  11.471 -0.2631  0.3756 -0.5557
  193DOPC  C21123863   5.751   3.925  11.592 -0.3854 -0.1268  0.1881
  193DOPC  H11R23864   5.744   4.036  11.586 -1.1995 -0.2415 -1.7462
  193DOPC  H11S23865   5.852   3.879  11.584 -0.2698  0.1130  0.2797
  193DOPC  C21223866   5.685   3.876  11.722  0.3664  0.5969 -0.1336
  193DOPC  H12R23867   5.673   3.766  11.712 -0.5185  0.7769 -1.1655
  193DOPC  H12S23868   5.585   3.924  11.730 -0.7264 -1.6633  0.6983
  193DOPC  C21323869   5.770   3.914  11.840  0.6801 -0.3762  0.4686
  193DOPC  H13R23870   5.809   4.014  11.811  1.1686 -1.0573 -1.3910
  193DOPC  H13S23871   5.856   3.843  11.844 -0.4987 -1.9663 -1.0717
  193DOPC  C21423872   5.699   3.922  11.975 -0.2169  0.1936 -0.0852
  193DOPC  H14R23873   5.648   3.831  12.014  0.2360  0.5914  1.5306
  193DOPC  H14S23874   5.623   4.002  11.961 -0.9358 -0.2999  0.8432
  193DOPC  C21523875   5.807   3.974  12.083  0.4037  0.6112 -0.9557
  193DOPC  H15R23876   5.822   4.077  12.044 -1.0045  1.3069  0.2564
  193DOPC  H15S23877   5.891   3.901  12.084 -3.3083 -4.1680 -1.5579
  193DOPC  C21623878   5.755   3.983  12.231 -0.4611 -0.4509 -0.3474
  193DOPC  H16R23879   5.755   3.878  12.267  1.2716  0.4217  2.5241
  193DOPC  H16S23880   5.654   4.030  12.236 -0.8471 -1.1496 -1.2614
  193DOPC  C21723881   5.848   4.058  12.328 -0.5112  0.2705  0.3290
  193DOPC  H17R23882   5.797   4.057  12.427  1.4553  0.0170  1.3741
  193DOPC  H17S23883   5.875   4.161  12.297  2.7292 -0.6440 -0.1733
  193DOPC  C21823884   5.977   3.977  12.365  0.1078  0.4764  0.7470
  193DOPC  H18R23885   6.043   4.037  12.432  1.1839 -2.0291  2.0729
  193DOPC  H18S23886   6.031   3.950  12.272  0.8042  1.5699  0.8196
  193DOPC  H18T23887   5.954   3.885  12.423 -1.7405  1.1838  1.2166
  193DOPC   C3323888   6.163   4.743  10.708  0.0153  0.1449  0.0938
  193DOPC   H3X23889   6.144   4.826  10.636  0.2219  0.4138  0.3449
  193DOPC   H3Y23890   6.258   4.692  10.680 -0.3232  0.2431 -1.3292
  193DOPC   C3423891   6.163   4.801  10.844  0.8285  0.2204 -0.1356
  193DOPC   H4X23892   6.076   4.871  10.840  1.3559  1.2282  2.8561
  193DOPC   H4Y23893   6.254   4.860  10.871  0.5637  0.4073  0.3666
  193DOPC   C3523894   6.131   4.710  10.969 -0.0747  0.0397 -0.6154
  193DOPC   H5X23895   6.224   4.659  11.001 -0.8228 -2.0013 -1.5046
  193DOPC   H5Y23896   6.059   4.627  10.949 -0.4919  0.1975  0.1723
  193DOPC   C3623897   6.082   4.797  11.091 -0.5747 -0.1385  0.5172
  193DOPC   H6X23898   6.160   4.872  11.114  1.4031 -2.4490  1.7889
  193DOPC   H6Y23899   5.989   4.853  11.067  0.3253  0.4302 -1.8327
  193DOPC   C3723900   6.059   4.703  11.205  0.2900 -0.5273  0.1030
  193DOPC   H7X23901   5.991   4.623  11.168  0.2906  0.4558 -2.1301
  193DOPC   H7Y23902   6.150   4.653  11.244 -1.8933 -4.0138  1.2703
  193DOPC   C3823903   6.002   4.761  11.331  0.6996  0.1061 -0.0159
  193DOPC   H8X23904   6.067   4.843  11.369  0.3733 -0.0383  0.8777
  193DOPC   H8Y23905   6.010   4.683  11.410 -0.3569  1.9536  2.0329
  193DOPC   C3923906   5.864   4.808  11.308  0.3625 -0.0484  0.1014
  193DOPC   H9X23907   5.859   4.901  11.250 -1.7967  1.6006  2.6564
  193DOPC  C31023908   5.750   4.770  11.368  0.6597  0.5152  0.9647
  193DOPC  H10X23909   5.659   4.822  11.334  1.4192  0.6891 -0.9011
  193DOPC  C31123910   5.731   4.663  11.471  0.9680  0.1944  0.2968
  193DOPC  H11X23911   5.815   4.591  11.481 -0.4887 -1.5306  0.6037
  193DOPC  H11Y23912   5.637   4.604  11.464  0.6242  0.7601  0.0302
  193DOPC  C31223913   5.737   4.728  11.608  0.1204 -0.3595 -0.6190
  193DOPC  H12X23914   5.698   4.662  11.688  1.1988  0.7969  0.9135
  193DOPC  H12Y23915   5.669   4.815  11.609  0.4401 -0.1109  0.1824
  193DOPC  C31323916   5.874   4.777  11.649 -0.2824 -0.4872  0.1693
  193DOPC  H13X23917   5.952   4.699  11.634  2.0565  2.1323 -2.6334
  193DOPC  H13Y23918   5.908   4.859  11.582 -0.6142 -0.9353 -0.5601
  193DOPC  C31423919   5.873   4.820  11.796  0.1589  0.0891 -0.3617
  193DOPC  H14X23920   5.868   4.729  11.858 -2.8761 -0.3357 -1.0835
  193DOPC  H14Y23921   5.965   4.877  11.822  1.0131 -1.3763 -0.0592
  193DOPC  C31523922   5.759   4.920  11.848 -0.2344 -0.0429  0.5224
  193DOPC  H15X23923   5.737   4.999  11.773  1.1865 -0.0566  0.0649
  193DOPC  H15Y23924   5.800   4.967  11.939 -1.4823 -0.2551  1.2156
  193DOPC  C31623925   5.626   4.851  11.893 -0.6133 -0.6149 -0.3790
  193DOPC  H16X23926   5.555   4.937  11.897 -2.3043 -1.9206 -0.9680
  193DOPC  H16Y23927   5.575   4.780  11.824 -0.8358  0.2183 -1.1047
  193DOPC  C31723928   5.634   4.789  12.035  0.8158  0.2518  0.3137
  193DOPC  H17X23929   5.544   4.726  12.053  1.2816 -0.7834 -0.8604
  193DOPC  H17Y23930   5.717   4.715  12.033 -0.1595 -0.8892 -2.1039
  193DOPC  C31823931   5.662   4.889  12.149 -0.2660  0.3149 -0.2397
  193DOPC  H18X23932   5.593   4.976  12.141 -1.2430 -0.5459 -1.4881
  193DOPC  H18Y23933   5.644   4.844  12.249 -2.2126  0.2805 -0.5767
  193DOPC  H18Z23934   5.765   4.930  12.139 -1.1397  3.3742  1.7795
  194DOPC     N23935   0.279   3.104  10.021  0.2819  0.1628  0.0890
  194DOPC   C1223936   0.337   3.185  10.135 -0.1120 -0.3159  0.1469
  194DOPC  H12A23937   0.410   3.121  10.182 -0.2374 -1.1651 -0.7757
  194DOPC  H12B23938   0.255   3.203  10.204  2.8376  2.5668  3.3082
  194DOPC   C1323939   0.223   2.972  10.072 -0.0647 -0.4858  0.2375
  194DOPC  H13A23940   0.292   2.906  10.122  0.7725 -0.4336 -0.8298
  194DOPC  H13B23941   0.135   2.990  10.133  1.3093  2.7543  1.4390
  194DOPC  H13C23942   0.182   2.913   9.991 -0.6267  0.2436 -0.0198
  194DOPC   C1423943   0.382   3.069   9.913 -0.5305  0.2730  0.0949
  194DOPC  H14A23944   0.338   3.009   9.834 -1.1722  0.7598  0.0728
  194DOPC  H14B23945   0.411   3.166   9.876  0.5694  0.8417  2.3017
  194DOPC  H14C23946   0.465   3.015   9.956 -0.4976  0.5539  0.3834
  194DOPC   C1523947   0.171   3.185   9.961 -0.5164 -0.1014  0.2749
  194DOPC  H15A23948   0.072   3.168  10.000 -0.6413  3.2818  1.7615
  194DOPC  H15B23949   0.165   3.175   9.854 -1.3931  2.0856  0.0657
  194DOPC  H15C23950   0.193   3.290   9.973  0.9872 -0.1543 -1.5752
  194DOPC   C1123951   0.389   3.323  10.104  0.1756  0.3573  0.4403
  194DOPC  H11A23952   0.314   3.394  10.062 -0.1563  0.0310  0.4722
  194DOPC  H11B23953   0.400   3.386  10.195 -1.8640  1.0059  0.2971
  194DOPC     P23954   0.649   3.291  10.085  0.4197  0.0262  0.1455
  194DOPC   O1323955   0.750   3.311   9.983 -0.0734  0.0448 -0.5583
  194DOPC   O1423956   0.649   3.162  10.157  0.0631  0.1065  0.4640
  194DOPC   O1223957   0.506   3.317  10.019  0.3020  0.6651 -0.1318
  194DOPC   O1123958   0.665   3.405  10.190 -0.1737 -0.2271 -0.1661
  194DOPC    C123959   0.647   3.546  10.160  0.6399  0.2665  0.3227
  194DOPC    HA23960   0.548   3.555  10.110  0.0644 -6.6088 -0.6984
  194DOPC    HB23961   0.721   3.577  10.083  1.4739 -2.7843 -0.2492
  194DOPC    C223962   0.654   3.640  10.285 -0.3954  0.1467 -0.0032
  194DOPC    HS23963   0.758   3.638  10.324  0.2933 -0.7650 -1.7739
  194DOPC   O2123964   0.560   3.596  10.375 -0.0439  0.3217  0.5046
  194DOPC   C2123965   0.599   3.525  10.475  0.3634 -0.0780  0.5130
  194DOPC   O2223966   0.714   3.491  10.506  0.2240 -0.9231  0.6800
  194DOPC   C2223967   0.474   3.493  10.559  0.0738  0.0104  0.0313
  194DOPC   H2R23968   0.481   3.382  10.567  2.3856  0.1395  0.4050
  194DOPC   H2S23969   0.386   3.505  10.493 -1.3595 -0.5550  1.7663
  194DOPC    C323970   0.630   3.788  10.236  0.0587  0.6005  0.7081
  194DOPC    HX23971   0.534   3.777  10.181  2.2235 -1.6197 -3.0988
  194DOPC    HY23972   0.700   3.832  10.161 -0.4086  0.8661  0.4252
  194DOPC   O3123973   0.626   3.879  10.344  0.0134  1.1821  0.0324
  194DOPC   C3123974   0.744   3.915  10.388 -0.0206  0.7862 -0.2007
  194DOPC   O3223975   0.852   3.860  10.359  0.4301 -0.1723  0.5742
  194DOPC   C3223976   0.732   4.039  10.471 -0.2977  0.4472 -0.0616
  194DOPC   H2X23977   0.833   4.060  10.514 -0.1339 -0.2693 -0.0849
  194DOPC   H2Y23978   0.696   4.121  10.406 -1.6591  0.6514  0.9135
  194DOPC   C2323979   0.453   3.569  10.689 -0.5580 -0.0687 -0.1609
  194DOPC   H3R23980   0.365   3.524  10.741 -0.4485  1.0904  1.0701
  194DOPC   H3S23981   0.434   3.677  10.672  1.3215  0.3209  0.0109
  194DOPC   C2423982   0.576   3.567  10.783  0.3695  0.6841  0.4548
  194DOPC   H4R23983   0.664   3.617  10.738  1.2275 -0.9051  0.3169
  194DOPC   H4S23984   0.609   3.462  10.797 -0.7323  0.2344 -0.1857
  194DOPC   C2523985   0.550   3.638  10.919 -0.2033 -0.9845  0.3582
  194DOPC   H5R23986   0.474   3.580  10.976 -1.0443 -1.0128 -0.7564
  194DOPC   H5S23987   0.514   3.742  10.909 -0.8114 -0.7929  3.3914
  194DOPC   C2623988   0.683   3.652  10.992  0.3036 -0.4266  0.0570
  194DOPC   H6R23989   0.762   3.698  10.929 -2.2432  2.3750 -1.3702
  194DOPC   H6S23990   0.718   3.551  11.021  2.1052  0.3932  0.9289
  194DOPC   C2723991   0.668   3.739  11.115  0.1270  0.6538 -1.0646
  194DOPC   H7R23992   0.668   3.844  11.080 -1.6404  0.9805 -0.2111
  194DOPC   H7S23993   0.761   3.723  11.173 -0.1010  0.2798 -0.7993
  194DOPC   C2823994   0.553   3.717  11.216 -0.6572 -0.4750 -0.5709
  194DOPC   H8R23995   0.455   3.732  11.164 -0.8534  0.5482  0.0604
  194DOPC   H8S23996   0.558   3.797  11.292 -1.2692  0.3358 -1.3553
  194DOPC   C2923997   0.545   3.588  11.290 -0.3291 -0.2985 -0.2753
  194DOPC   H9R23998   0.499   3.506  11.234  1.4536 -0.8359 -1.0177
  194DOPC  C21023999   0.601   3.569  11.412  0.6767 -0.2459 -0.2617
  194DOPC  H10R24000   0.590   3.471  11.460 -0.5461 -0.2904 -0.6168
  194DOPC  C21124001   0.666   3.671  11.505 -0.3565 -0.2047 -0.0898
  194DOPC  H11R24002   0.724   3.748  11.449 -0.6238  1.5229  1.8998
  194DOPC  H11S24003   0.732   3.624  11.581  0.0512 -3.0486 -2.0209
  194DOPC  C21224004   0.553   3.745  11.579 -0.0667  0.0669  0.1132
  194DOPC  H12R24005   0.506   3.669  11.646 -1.1292  0.4895 -0.1317
  194DOPC  H12S24006   0.481   3.790  11.508  0.4561 -2.4965 -2.2328
  194DOPC  C21324007   0.615   3.850  11.666 -0.8109  0.2053 -0.0500
  194DOPC  H13R24008   0.656   3.930  11.601 -0.7848  1.1360  1.0771
  194DOPC  H13S24009   0.701   3.803  11.717  0.9145 -0.3845 -3.2322
  194DOPC  C21424010   0.515   3.925  11.760  0.1834  0.3084 -0.2975
  194DOPC  H14R24011   0.412   3.930  11.718 -0.3218  3.5276  1.0768
  194DOPC  H14S24012   0.543   4.032  11.772  0.0918  0.2689  0.2880
  194DOPC  C21524013   0.501   3.868  11.902 -0.0120  0.5016 -0.6233
  194DOPC  H15R24014   0.604   3.865  11.943  0.0415  0.0008 -0.7952
  194DOPC  H15S24015   0.461   3.765  11.898 -2.0946  1.2505 -0.8486
  194DOPC  C21624016   0.407   3.953  11.983  0.6540 -0.5724 -0.7269
  194DOPC  H16R24017   0.306   3.946  11.938  0.1261  0.1265  0.3153
  194DOPC  H16S24018   0.428   4.062  11.991  0.1121 -0.6381  2.7991
  194DOPC  C21724019   0.398   3.914  12.132 -0.1784  0.6115  0.2205
  194DOPC  H17R24020   0.384   3.804  12.138 -1.6380  0.6284 -1.7128
  194DOPC  H17S24021   0.302   3.960  12.163 -1.5047 -0.4104 -2.1075
  194DOPC  C21824022   0.518   3.958  12.218  0.4927 -0.2066 -0.1153
  194DOPC  H18R24023   0.524   4.068  12.206  1.2348 -0.0774  1.2614
  194DOPC  H18S24024   0.614   3.907  12.191  0.4186 -1.1594  1.3081
  194DOPC  H18T24025   0.487   3.942  12.323  0.6149  0.4293  0.0208
  194DOPC   C3324026   0.637   4.026  10.596  0.1835 -0.2375 -0.3368
  194DOPC   H3X24027   0.647   3.933  10.657 -3.6407  0.5878  1.9194
  194DOPC   H3Y24028   0.531   4.023  10.562 -1.5134 -1.0643  4.2025
  194DOPC   C3424029   0.662   4.139  10.696 -0.0886 -0.6512 -0.4318
  194DOPC   H4X24030   0.671   4.227  10.629  1.9548  0.3729  1.0908
  194DOPC   H4Y24031   0.757   4.129  10.754 -0.6163 -1.0310  0.3879
  194DOPC   C3524032   0.563   4.155  10.808 -0.3396  0.2584  0.2348
  194DOPC   H5X24033   0.465   4.142  10.758 -0.5330  0.6787  0.5021
  194DOPC   H5Y24034   0.592   4.251  10.855  2.9677 -0.2101 -0.5264
  194DOPC   C3624035   0.563   4.037  10.914 -0.8675  0.1837  0.3281
  194DOPC   H6X24036   0.542   3.943  10.859  1.1513 -0.0932 -0.0824
  194DOPC   H6Y24037   0.661   4.023  10.967 -0.7427  0.2473  0.1148
  194DOPC   C3724038   0.447   4.061  11.010 -0.3669  0.0860 -0.8543
  194DOPC   H7X24039   0.361   4.111  10.961 -1.3406  1.0142  1.6447
  194DOPC   H7Y24040   0.404   3.965  11.047  1.4845 -0.2939  0.4557
  194DOPC   C3824041   0.485   4.146  11.141  0.5370 -0.3153 -0.4100
  194DOPC   H8X24042   0.540   4.236  11.104 -0.0103  0.5892  0.9104
  194DOPC   H8Y24043   0.559   4.088  11.200  1.5825  1.4337  0.0833
  194DOPC   C3924044   0.370   4.202  11.223 -0.1492  0.5394  0.4724
  194DOPC   H9X24045   0.274   4.222  11.173 -1.0687 -0.0672  1.9123
  194DOPC  C31024046   0.359   4.216  11.356 -0.5578 -0.6422 -0.3072
  194DOPC  H10X24047   0.262   4.242  11.402 -0.3430  0.3080 -0.3868
  194DOPC  C31124048   0.464   4.193  11.460 -0.0044  0.0796  0.2916
  194DOPC  H11X24049   0.562   4.190  11.408  0.1951 -0.9139  0.6878
  194DOPC  H11Y24050   0.445   4.089  11.494 -1.3939  0.7016  1.5522
  194DOPC  C31224051   0.466   4.289  11.582 -0.2069 -0.1355 -0.0509
  194DOPC  H12X24052   0.466   4.390  11.536 -0.1928  0.6953  1.6837
  194DOPC  H12Y24053   0.564   4.274  11.632  0.4713  0.3997 -1.1849
  194DOPC  C31324054   0.349   4.264  11.672  0.1282 -0.3132  0.0221
  194DOPC  H13X24055   0.252   4.267  11.618 -0.6181  2.5419  1.3495
  194DOPC  H13Y24056   0.346   4.162  11.718 -1.7925 -0.8520 -1.1820
  194DOPC  C31424057   0.341   4.375  11.775 -0.0639 -0.1500  0.7128
  194DOPC  H14X24058   0.411   4.359  11.859 -0.4563 -0.1368  1.0464
  194DOPC  H14Y24059   0.353   4.480  11.740 -1.5015 -0.7464 -1.7804
  194DOPC  C31524060   0.204   4.364  11.843  0.1535 -0.4826 -0.0155
  194DOPC  H15X24061   0.197   4.265  11.891  0.7097 -0.5487 -0.0749
  194DOPC  H15Y24062   0.121   4.373  11.769 -1.6833 -3.8019  1.4029
  194DOPC  C31624063   0.181   4.470  11.956 -0.3724  0.3602  0.2057
  194DOPC  H16X24064   0.212   4.566  11.911 -0.3285  0.3177  0.1439
  194DOPC  H16Y24065   0.074   4.477  11.985 -0.7453  1.6753 -1.3408
  194DOPC  C31724066   0.272   4.452  12.087 -0.0617 -0.5127  0.2106
  194DOPC  H17X24067   0.262   4.347  12.119  0.9115 -1.0053 -1.0129
  194DOPC  H17Y24068   0.377   4.468  12.057 -0.1797  0.2845  0.1877
  194DOPC  C31824069   0.236   4.568  12.193 -0.1495  0.2552 -0.5420
  194DOPC  H18X24070   0.125   4.569  12.202 -0.1259  0.2785 -0.2459
  194DOPC  H18Y24071   0.287   4.549  12.290 -0.8666 -2.6238 -0.6305
  194DOPC  H18Z24072   0.278   4.663  12.154  1.9180 -0.1756  0.5014
  195DOPC     N24073   4.213   3.606  10.256 -0.2816  0.4112 -0.5725
  195DOPC   C1224074   4.322   3.520  10.334  0.2861 -0.6038  0.0436
  195DOPC  H12A24075   4.287   3.417  10.335 -1.6838 -0.0400 -1.9249
  195DOPC  H12B24076   4.329   3.558  10.435  0.3935  1.5766 -0.7393
  195DOPC   C1324077   4.085   3.611  10.338 -0.6636  0.1115  0.0890
  195DOPC  H13A24078   4.040   3.514  10.324 -1.4122  0.6987 -1.9189
  195DOPC  H13B24079   4.114   3.635  10.439  0.9288  1.8049 -0.7073
  195DOPC  H13C24080   4.027   3.690  10.294 -0.1068  0.3742 -0.1945
  195DOPC   C1424081   4.180   3.532  10.125  0.1081 -0.0611 -0.0465
  195DOPC  H14A24082   4.104   3.587  10.072  1.4586 -0.7386 -2.9042
  195DOPC  H14B24083   4.272   3.533  10.069  0.8036 -1.2377  1.0187
  195DOPC  H14C24084   4.160   3.429  10.151  1.6237 -0.7977 -1.6257
  195DOPC   C1524085   4.272   3.745  10.235  0.9945 -0.7286  0.1754
  195DOPC  H15A24086   4.361   3.743  10.174 -0.2259 -2.3111 -1.7025
  195DOPC  H15B24087   4.307   3.788  10.328  0.4217  0.4162 -0.1099
  195DOPC  H15C24088   4.207   3.806  10.173 -0.6049 -2.0040  0.5391
  195DOPC   C1124089   4.458   3.515  10.263 -0.0008  0.0826  0.1870
  195DOPC  H11A24090   4.516   3.427  10.298 -1.5418 -1.2934 -0.5467
  195DOPC  H11B24091   4.444   3.507  10.153  0.4129 -2.1197  0.2468
  195DOPC     P24092   4.591   3.674  10.425  0.1424 -0.2429 -0.2790
  195DOPC   O1324093   4.493   3.758  10.503 -0.2637  0.3032 -0.1987
  195DOPC   O1424094   4.727   3.730  10.409  0.0959  0.5181  0.5111
  195DOPC   O1224095   4.531   3.637  10.287 -0.1885 -0.1032  0.4163
  195DOPC   O1124096   4.605   3.537  10.502  0.8692 -0.8556  0.2955
  195DOPC    C124097   4.532   3.516  10.621  0.4411 -0.1394  0.4300
  195DOPC    HA24098   4.508   3.408  10.618  0.0131 -0.1124  1.9398
  195DOPC    HB24099   4.428   3.556  10.626  0.3876 -0.2725  0.3999
  195DOPC    C224100   4.613   3.569  10.742  0.0792 -0.5391  0.3831
  195DOPC    HS24101   4.610   3.680  10.747 -2.5793 -0.4608 -1.1941
  195DOPC   O2124102   4.746   3.522  10.733 -0.4069 -0.1235  0.1490
  195DOPC   C2124103   4.830   3.571  10.831 -0.3184  0.1868  0.2776
  195DOPC   O2224104   4.796   3.639  10.924 -0.0610 -0.2011 -0.1052
  195DOPC   C2224105   4.977   3.525  10.802  0.4291  0.6801  0.7649
  195DOPC   H2R24106   5.039   3.603  10.850  3.4036 -0.7675 -0.4271
  195DOPC   H2S24107   4.998   3.538  10.694  0.5476  0.0550  0.7054
  195DOPC    C324108   4.542   3.516  10.872 -0.2759  0.0346 -0.7693
  195DOPC    HX24109   4.443   3.564  10.863 -0.0999  0.0939 -2.9287
  195DOPC    HY24110   4.581   3.547  10.972 -3.2695  0.0349  0.4966
  195DOPC   O3124111   4.543   3.370  10.859  0.0314 -0.0651 -0.5295
  195DOPC   C3124112   4.623   3.301  10.925 -0.2312 -0.6535  0.2585
  195DOPC   O3224113   4.698   3.343  11.017  0.2054  0.1328  0.1095
  195DOPC   C3224114   4.623   3.164  10.868  0.2693 -0.0240 -0.2405
  195DOPC   H2X24115   4.525   3.147  10.820  0.1074 -2.6474  0.8554
  195DOPC   H2Y24116   4.694   3.165  10.783 -0.7611 -3.6865 -1.3194
  195DOPC   C2324117   5.008   3.379  10.830  0.2252  0.2075  0.5735
  195DOPC   H3R24118   5.096   3.337  10.777 -1.7229 -1.4676 -1.4953
  195DOPC   H3S24119   4.929   3.309  10.796 -0.0285  1.1347 -0.8002
  195DOPC   C2424120   5.028   3.373  10.981  0.4142  0.2630 -0.1419
  195DOPC   H4R24121   4.943   3.422  11.034 -0.4567 -2.2077  0.8663
  195DOPC   H4S24122   5.124   3.427  10.994  0.3264  0.5845 -0.7787
  195DOPC   C2524123   5.038   3.229  11.042  0.1107 -0.4046 -0.2089
  195DOPC   H5R24124   5.101   3.157  10.986 -0.4288 -0.7062 -0.4300
  195DOPC   H5S24125   4.930   3.203  11.039 -0.2451  1.1074 -1.8892
  195DOPC   C2624126   5.066   3.236  11.194 -0.1219 -0.7219 -0.6544
  195DOPC   H6R24127   5.013   3.326  11.234 -0.5432 -1.6639  1.0066
  195DOPC   H6S24128   5.174   3.257  11.210 -0.1697 -1.0048  0.0525
  195DOPC   C2724129   5.033   3.116  11.274  0.1695 -0.5145  0.6992
  195DOPC   H7R24130   5.104   3.112  11.359  0.0293 -0.5727  0.8140
  195DOPC   H7S24131   5.057   3.027  11.213  1.0224 -0.1810  0.5444
  195DOPC   C2824132   4.891   3.099  11.310 -0.4587 -0.0453  0.1559
  195DOPC   H8R24133   4.869   3.010  11.374 -2.9810 -0.8954 -1.7185
  195DOPC   H8S24134   4.831   3.096  11.217 -2.1005 -4.4942  1.0824
  195DOPC   C2924135   4.842   3.227  11.382 -0.1492  0.3149  0.2893
  195DOPC   H9R24136   4.826   3.316  11.319  3.3771  1.9653  1.4204
  195DOPC  C21024137   4.807   3.254  11.506 -0.1093  0.1801 -1.6185
  195DOPC  H10R24138   4.779   3.357  11.536  2.8398  0.3694  1.0306
  195DOPC  C21124139   4.818   3.165  11.626  0.2019  0.5692 -0.0564
  195DOPC  H11R24140   4.780   3.061  11.613  0.2227  0.3651  1.4365
  195DOPC  H11S24141   4.756   3.207  11.707 -0.2246  0.5078 -0.3449
  195DOPC  C21224142   4.960   3.138  11.678 -0.4326 -0.7393 -0.4520
  195DOPC  H12R24143   5.026   3.227  11.682  0.8887 -1.6129 -1.8506
  195DOPC  H12S24144   5.020   3.077  11.608  1.8141 -0.0247  0.7484
  195DOPC  C21324145   4.968   3.070  11.814  0.4524 -0.0735 -0.3216
  195DOPC  H13R24146   4.949   2.961  11.802 -2.0930  0.3367 -0.7102
  195DOPC  H13S24147   4.880   3.093  11.878 -0.0531  0.2706 -1.1083
  195DOPC  C21424148   5.086   3.120  11.895  0.8845 -0.0225 -0.9196
  195DOPC  H14R24149   5.075   3.230  11.905 -0.5016 -0.1415 -0.9815
  195DOPC  H14S24150   5.185   3.094  11.850  0.9464 -0.2507 -0.6564
  195DOPC  C21524151   5.073   3.069  12.046  0.1181 -0.4293  0.1427
  195DOPC  H15R24152   5.069   2.958  12.039 -2.3466 -0.3047 -1.4466
  195DOPC  H15S24153   4.983   3.114  12.093  0.8079  1.6395 -0.4296
  195DOPC  C21624154   5.197   3.117  12.129  0.0807  0.0054  0.2476
  195DOPC  H16R24155   5.195   3.228  12.124  3.2492  0.1136 -0.4233
  195DOPC  H16S24156   5.292   3.089  12.078 -0.6514 -2.3681  0.0324
  195DOPC  C21724157   5.204   3.070  12.275  0.5108 -0.5364  0.3907
  195DOPC  H17R24158   5.119   3.104  12.338  0.6678  1.1935 -0.2957
  195DOPC  H17S24159   5.289   3.124  12.321  0.9590 -0.7637 -0.1622
  195DOPC  C21824160   5.220   2.921  12.287 -0.7255  0.0273 -0.3322
  195DOPC  H18R24161   5.127   2.870  12.253 -0.3662 -0.4760 -0.5574
  195DOPC  H18S24162   5.252   2.883  12.386  1.0173  0.6047 -0.6308
  195DOPC  H18T24163   5.291   2.875  12.216 -1.1860  0.5135 -1.1284
  195DOPC   C3324164   4.649   3.061  10.977  0.3298 -0.0907 -0.1372
  195DOPC   H3X24165   4.755   3.066  11.011  0.7726 -3.2816 -0.6779
  195DOPC   H3Y24166   4.649   2.960  10.930 -1.4866 -0.6188  0.9121
  195DOPC   C3424167   4.562   3.056  11.096 -0.7279 -0.2788  0.3402
  195DOPC   H4X24168   4.459   3.075  11.058 -0.6117  0.7075  0.4739
  195DOPC   H4Y24169   4.593   3.145  11.156 -0.9719  0.4436 -0.5668
  195DOPC   C3524170   4.600   2.926  11.173  0.7766  0.3533  0.3191
  195DOPC   H5X24171   4.702   2.933  11.218  0.0407  1.9106  1.8414
  195DOPC   H5Y24172   4.592   2.843  11.100 -2.2155 -1.3637  2.3708
  195DOPC   C3624173   4.502   2.899  11.290 -0.5067 -0.3517 -0.4587
  195DOPC   H6X24174   4.401   2.884  11.245 -0.7089  1.6888 -0.8066
  195DOPC   H6Y24175   4.539   2.802  11.329 -1.9433 -0.9046 -0.3760
  195DOPC   C3724176   4.508   3.012  11.399 -0.1454  0.5924 -0.2496
  195DOPC   H7X24177   4.614   3.041  11.414  1.1138 -3.1073 -0.8371
  195DOPC   H7Y24178   4.446   3.101  11.380  2.1547  2.9728  2.3730
  195DOPC   C3824179   4.451   2.961  11.537 -0.2046 -0.4279 -1.0502
  195DOPC   H8X24180   4.343   2.939  11.526 -0.0393 -0.9935 -1.5623
  195DOPC   H8Y24181   4.473   3.055  11.593  1.8193  0.3621 -2.9965
  195DOPC   C3924182   4.532   2.851  11.590 -0.6180 -0.2819  0.1274
  195DOPC   H9X24183   4.546   2.775  11.512  0.5672  0.7501 -0.7069
  195DOPC  C31024184   4.593   2.834  11.706 -0.4722  0.1173  0.2524
  195DOPC  H10X24185   4.666   2.752  11.699  0.3407  0.8121  0.4284
  195DOPC  C31124186   4.601   2.926  11.829 -0.3063  0.6323  0.3742
  195DOPC  H11X24187   4.547   3.023  11.823  1.7492  1.8991  1.3297
  195DOPC  H11Y24188   4.706   2.960  11.834  0.1922 -0.4240 -1.7752
  195DOPC  C31224189   4.565   2.858  11.961 -0.1555 -0.4250  0.6956
  195DOPC  H12X24190   4.614   2.759  11.962 -0.1320 -0.4542 -0.9306
  195DOPC  H12Y24191   4.455   2.842  11.966 -0.6754  2.4316  0.4678
  195DOPC  C31324192   4.608   2.937  12.085  0.3524  0.3477 -0.0652
  195DOPC  H13X24193   4.717   2.956  12.087  0.3576  0.2563  0.7419
  195DOPC  H13Y24194   4.562   3.038  12.077 -0.4895 -0.1585 -2.5548
  195DOPC  C31424195   4.542   2.886  12.218  0.5878 -0.7116  0.1516
  195DOPC  H14X24196   4.436   2.868  12.192  0.1788  1.1141  0.4085
  195DOPC  H14Y24197   4.579   2.784  12.240 -1.2073 -1.6033 -0.7951
  195DOPC  C31524198   4.560   2.970  12.344  0.4875 -0.0272  0.1763
  195DOPC  H15X24199   4.512   2.913  12.426  2.2800 -0.1487  1.1770
  195DOPC  H15Y24200   4.510   3.069  12.341  1.4340  0.4399 -1.3121
  195DOPC  C31624201   4.705   2.991  12.385 -0.8920 -0.2263  0.2714
  195DOPC  H16X24202   4.757   2.897  12.410 -1.2586 -0.7007 -0.6800
  195DOPC  H16Y24203   4.758   3.041  12.300  0.2198 -0.3449  0.8846
  195DOPC  C31724204   4.712   3.089  12.497 -0.0001  0.4339  0.5289
  195DOPC  H17X24205   4.669   3.187  12.468 -0.4106  0.4556  1.1995
  195DOPC  H17Y24206   4.647   3.054  12.580 -1.3600 -1.1808 -1.1194
  195DOPC  C31824207   4.861   3.101  12.533  0.1342 -0.4487  0.0460
  195DOPC  H18X24208   4.909   3.004  12.555  0.4480 -0.5328 -0.9600
  195DOPC  H18Y24209   4.928   3.132  12.450  2.7100 -1.9834  1.4501
  195DOPC  H18Z24210   4.884   3.166  12.620  0.4473  1.1722 -1.1941
  196DOPC     N24211   0.117   4.664   9.692 -0.0427  0.7460  0.6792
  196DOPC   C1224212   0.117   4.742   9.815  0.0836 -0.8828 -0.1352
  196DOPC  H12A24213   0.040   4.818   9.809  1.8783  1.1329  0.6394
  196DOPC  H12B24214   0.208   4.801   9.814  0.4609 -1.4595 -0.2115
  196DOPC   C1324215  -0.003   4.575   9.684  0.2580  0.2357 -0.2792
  196DOPC  H13A24216   0.010   4.490   9.618  0.6770 -0.2687  0.4400
  196DOPC  H13B24217  -0.015   4.529   9.780 -0.4115 -1.1521 -0.9911
  196DOPC  H13C24218  -0.097   4.628   9.673 -1.0294 -1.6577  0.9139
  196DOPC   C1424219   0.231   4.567   9.684 -0.4992  0.5078  0.6030
  196DOPC  H14A24220   0.324   4.622   9.685  0.4905 -0.9737 -1.8107
  196DOPC  H14B24221   0.233   4.503   9.771  1.6926 -2.5177 -1.4534
  196DOPC  H14C24222   0.225   4.502   9.598  2.1845  0.3125  0.4720
  196DOPC   C1524223   0.129   4.751   9.561  0.5420  0.6461 -0.0593
  196DOPC  H15A24224   0.223   4.804   9.557  0.7034  0.4181  0.6777
  196DOPC  H15B24225   0.058   4.831   9.574  0.6555  1.2911 -2.6918
  196DOPC  H15C24226   0.118   4.690   9.472  3.2276  0.6517 -0.4762
  196DOPC   C1124227   0.111   4.670   9.952  0.3063  0.1827 -0.6982
  196DOPC  H11A24228   0.204   4.610   9.961 -0.2178 -0.6803 -0.9181
  196DOPC  H11B24229   0.110   4.750  10.028 -2.6470 -0.6657  0.2971
  196DOPC     P24230  -0.149   4.658  10.012 -0.0965 -0.3737  0.6714
  196DOPC   O1324231  -0.248   4.552  10.011 -0.3729 -0.4900  0.1121
  196DOPC   O1424232  -0.177   4.785   9.939 -0.0427  0.3425 -0.3112
  196DOPC   O1224233  -0.010   4.594   9.953 -0.2684 -0.3396 -0.3670
  196DOPC   O1124234  -0.113   4.693  10.159  0.2380 -0.1574  0.6827
  196DOPC    C124235  -0.056   4.599  10.257 -0.2930 -0.2577 -0.0838
  196DOPC    HA24236   0.040   4.561  10.215  1.2129  1.6282  1.4644
  196DOPC    HB24237  -0.112   4.509  10.291 -3.1788  0.9625 -1.2922
  196DOPC    C224238  -0.003   4.679  10.371  0.3524 -0.3456 -0.3631
  196DOPC    HS24239   0.074   4.614  10.419  0.5013  0.5672  0.6632
  196DOPC   O2124240  -0.104   4.716  10.473  0.2475 -0.6957  0.1437
  196DOPC   C2124241  -0.146   4.627  10.555  0.3759  0.5430 -0.2968
  196DOPC   O2224242  -0.111   4.511  10.563  0.1109  0.1364 -0.1257
  196DOPC   C2224243  -0.242   4.701  10.654  0.4929  0.0112  0.5395
  196DOPC   H2R24244  -0.332   4.637  10.668 -1.6736  2.8336  0.2611
  196DOPC   H2S24245  -0.284   4.793  10.609  0.9947 -0.7522 -1.5916
  196DOPC    C324246   0.071   4.809  10.314  0.2866  0.0851 -0.1680
  196DOPC    HX24247  -0.003   4.888  10.291 -0.6301 -1.4610 -3.2011
  196DOPC    HY24248   0.119   4.787  10.216  0.0908  3.0026 -1.0116
  196DOPC   O3124249   0.168   4.848  10.420 -0.2351  0.4740  0.5235
  196DOPC   C3124250   0.291   4.785  10.409  0.1932 -0.4090 -0.5565
  196DOPC   O3224251   0.316   4.705  10.328 -0.0761  0.5617  0.6149
  196DOPC   C3224252   0.388   4.828  10.514 -0.0523  0.1188  0.1180
  196DOPC   H2X24253   0.462   4.748  10.534  0.2915  0.6008  0.8097
  196DOPC   H2Y24254   0.451   4.909  10.470 -0.7109  0.7743  0.3663
  196DOPC   C2324255  -0.175   4.736  10.790 -0.1582 -0.3096 -0.3812
  196DOPC   H3R24256  -0.089   4.805  10.779  2.4739 -3.3690 -0.7416
  196DOPC   H3S24257  -0.126   4.649  10.839 -0.3136  0.7697  1.8008
  196DOPC   C2424258  -0.276   4.785  10.894 -0.2092  0.2579 -0.2270
  196DOPC   H4R24259  -0.359   4.713  10.912  1.2048 -0.7834  2.9881
  196DOPC   H4S24260  -0.311   4.881  10.850  0.2189 -0.1493 -1.4763
  196DOPC   C2524261  -0.208   4.810  11.034 -0.5134  0.1320 -0.6592
  196DOPC   H5R24262  -0.129   4.887  11.020  0.0533 -0.4655 -0.8086
  196DOPC   H5S24263  -0.158   4.720  11.075  2.2879  1.0290 -1.8687
  196DOPC   C2624264  -0.322   4.865  11.123  0.2905  0.2901 -0.0856
  196DOPC   H6R24265  -0.399   4.785  11.118 -1.2472  1.8020 -1.9029
  196DOPC   H6S24266  -0.376   4.953  11.082 -0.3184  1.4022  2.8054
  196DOPC   C2724267  -0.279   4.902  11.270 -0.7296  0.2586  0.7316
  196DOPC   H7R24268  -0.371   4.946  11.313 -1.1543 -0.6174  0.7450
  196DOPC   H7S24269  -0.211   4.990  11.267  0.9138 -0.8565  2.8779
  196DOPC   C2824270  -0.236   4.788  11.362  0.6812 -0.4693 -1.1379
  196DOPC   H8R24271  -0.206   4.841  11.455  1.3676 -1.0984 -0.9839
  196DOPC   H8S24272  -0.151   4.741  11.308  2.6129  1.8068 -0.2322
  196DOPC   C2924273  -0.343   4.686  11.388 -1.0526  0.4186 -0.2054
  196DOPC   H9R24274  -0.335   4.588  11.338 -1.1064  0.9086 -1.2128
  196DOPC  C21024275  -0.451   4.707  11.475  0.1523 -0.4979  0.4712
  196DOPC  H10R24276  -0.538   4.640  11.473 -1.2757  1.2041  2.1566
  196DOPC  C21124277  -0.480   4.824  11.560 -0.1115 -0.4157  0.3559
  196DOPC  H11R24278  -0.569   4.878  11.521  1.9442  1.5897 -1.9035
  196DOPC  H11S24279  -0.405   4.906  11.563  0.3404 -0.8227  0.2228
  196DOPC  C21224280  -0.506   4.772  11.705 -0.5007 -0.2589  0.1277
  196DOPC  H12R24281  -0.420   4.707  11.734 -0.5967 -0.2249  0.4898
  196DOPC  H12S24282  -0.598   4.710  11.710 -2.0413  1.9771  0.7812
  196DOPC  C21324283  -0.509   4.874  11.822  0.0889  0.1202  0.1398
  196DOPC  H13R24284  -0.598   4.941  11.820 -1.4402 -1.7907  0.6883
  196DOPC  H13S24285  -0.412   4.927  11.826  0.1413  0.1738 -1.2774
  196DOPC  C21424286  -0.512   4.783  11.949  0.4900  0.2222  0.0272
  196DOPC  H14R24287  -0.443   4.697  11.942  0.9659  0.4516  1.4322
  196DOPC  H14S24288  -0.612   4.746  11.978  0.5278 -0.1598 -0.3306
  196DOPC  C21524289  -0.467   4.885  12.061  0.7988  1.3549  0.5972
  196DOPC  H15R24290  -0.373   4.936  12.030  0.1805  2.1433 -0.0278
  196DOPC  H15S24291  -0.435   4.827  12.150 -0.7534  3.1557  2.4206
  196DOPC  C21624292  -0.580   4.980  12.095  0.0947  0.4759  0.1403
  196DOPC  H16R24293  -0.668   4.911  12.093  1.3132 -1.1742  1.0237
  196DOPC  H16S24294  -0.611   5.056  12.021 -1.0564  0.9566  1.0663
  196DOPC  C21724295  -0.576   5.035  12.236 -0.1200 -0.0292 -0.4160
  196DOPC  H17R24296  -0.662   5.104  12.233  0.8530  1.2793  0.3948
  196DOPC  H17S24297  -0.475   5.082  12.234  2.4743 -4.9027 -1.5498
  196DOPC  C21824298  -0.588   4.938  12.349  0.4263  0.4645  0.5324
  196DOPC  H18R24299  -0.599   4.990  12.447  0.1742 -0.9395  1.2835
  196DOPC  H18S24300  -0.501   4.870  12.346 -0.8752 -1.2753  0.4527
  196DOPC  H18T24301  -0.683   4.882  12.335 -0.6313  1.0526  4.2027
  196DOPC   C3324302   0.316   4.878  10.635  0.0705  0.1767  0.8107
  196DOPC   H3X24303   0.296   4.789  10.699 -0.3742 -0.1258  0.2546
  196DOPC   H3Y24304   0.229   4.942  10.610  0.9542  0.8907 -0.5391
  196DOPC   C3424305   0.401   4.977  10.723  0.0199 -0.5383 -0.5041
  196DOPC   H4X24306   0.428   5.060  10.655 -1.0496 -1.4157 -2.0643
  196DOPC   H4Y24307   0.487   4.917  10.758 -0.1615  0.2230  1.3368
  196DOPC   C3524308   0.329   5.034  10.846 -0.1208  0.2921  0.1307
  196DOPC   H5X24309   0.228   5.072  10.816 -1.2629 -2.9607 -0.5036
  196DOPC   H5Y24310   0.390   5.118  10.886 -0.3129 -0.1008  1.2828
  196DOPC   C3624311   0.302   4.934  10.966 -0.2019  0.1958 -1.0905
  196DOPC   H6X24312   0.261   4.836  10.933  0.5097 -0.8170  0.8939
  196DOPC   H6Y24313   0.392   4.902  11.024  0.0163 -0.8756 -1.9825
  196DOPC   C3724314   0.195   4.984  11.061 -0.8930 -0.1400 -0.5171
  196DOPC   H7X24315   0.102   5.005  11.005 -1.5529  2.7483  1.4023
  196DOPC   H7Y24316   0.166   4.910  11.138 -0.8548 -0.6390 -0.9843
  196DOPC   C3824317   0.233   5.116  11.125 -0.2902 -0.6323  0.1595
  196DOPC   H8X24318   0.145   5.143  11.188 -0.7842 -1.4384 -0.1676
  196DOPC   H8Y24319   0.228   5.186  11.038  0.5720 -1.4759 -0.5904
  196DOPC   C3924320   0.363   5.109  11.211  0.2679  0.3101  0.8752
  196DOPC   H9X24321   0.444   5.044  11.174 -0.3022  0.2876 -0.3911
  196DOPC  C31024322   0.383   5.169  11.326 -0.2444 -0.1982  0.1333
  196DOPC  H10X24323   0.478   5.151  11.380  0.4037  0.8884 -0.5988
  196DOPC  C31124324   0.289   5.272  11.390 -0.2915 -0.0011 -0.7119
  196DOPC  H11X24325   0.201   5.301  11.329 -1.8950  0.6547  1.7609
  196DOPC  H11Y24326   0.349   5.364  11.406  2.3080 -1.7061 -0.0544
  196DOPC  C31224327   0.233   5.220  11.531  0.3768 -0.7803 -0.5295
  196DOPC  H12X24328   0.180   5.126  11.504 -1.0206 -0.6180  1.4967
  196DOPC  H12Y24329   0.163   5.297  11.569  3.3776  2.7604 -1.5332
  196DOPC  C31324330   0.339   5.189  11.633  0.5249  0.1485  0.7473
  196DOPC  H13X24331   0.378   5.089  11.603 -0.1050  0.3067 -0.6826
  196DOPC  H13Y24332   0.428   5.256  11.633  1.1848 -0.7050  0.4172
  196DOPC  C31424333   0.270   5.190  11.768  0.0599 -0.3911 -0.7192
  196DOPC  H14X24334   0.198   5.272  11.786  2.4980  1.4510  1.4170
  196DOPC  H14Y24335   0.210   5.096  11.768 -0.2613 -0.2754  1.9851
  196DOPC  C31524336   0.366   5.203  11.884 -0.0568  0.0331  0.4606
  196DOPC  H15X24337   0.427   5.297  11.879 -0.1125  0.0739  0.5385
  196DOPC  H15Y24338   0.438   5.119  11.889  1.2796  1.1296  0.5626
  196DOPC  C31624339   0.299   5.194  12.021 -0.4146 -0.3331  0.1479
  196DOPC  H16X24340   0.377   5.224  12.095 -0.1655  1.4154 -0.7741
  196DOPC  H16Y24341   0.217   5.269  12.021  0.4506  0.6256  0.0858
  196DOPC  C31724342   0.254   5.056  12.064 -0.3733 -0.4768 -0.1095
  196DOPC  H17X24343   0.184   5.005  11.994  0.2044  0.5074 -1.4384
  196DOPC  H17Y24344   0.343   4.990  12.073 -1.0803 -1.3728  0.5715
  196DOPC  C31824345   0.179   5.063  12.203  0.0742 -0.9550  0.7416
  196DOPC  H18X24346   0.094   5.135  12.204  0.3536 -0.5667 -0.9138
  196DOPC  H18Y24347   0.136   4.966  12.235 -0.9085 -0.4786  0.9112
  196DOPC  H18Z24348   0.246   5.094  12.286  0.5184 -2.4467  0.9692
  197DOPC     N24349   0.835   2.271   9.983  0.3586 -0.0589  0.0301
  197DOPC   C1224350   0.908   2.206  10.098 -0.1804 -0.1485  0.0658
  197DOPC  H12A24351   0.835   2.156  10.160  1.1325 -1.7957  0.3529
  197DOPC  H12B24352   0.945   2.290  10.155  1.9066 -1.5103  0.8370
  197DOPC   C1324353   0.939   2.345   9.901 -0.1600  0.0806  0.0185
  197DOPC  H13A24354   1.015   2.273   9.873 -0.0834  0.4019 -0.6113
  197DOPC  H13B24355   0.893   2.385   9.811 -1.4474 -0.2544  0.4967
  197DOPC  H13C24356   0.985   2.429   9.949 -2.6610  0.6606  1.6107
  197DOPC   C1424357   0.735   2.375  10.031 -0.9434 -0.6786  0.6258
  197DOPC  H14A24358   0.705   2.445   9.954  1.3597 -0.5346 -0.2372
  197DOPC  H14B24359   0.648   2.326  10.071 -1.3974  0.4724  1.0831
  197DOPC  H14C24360   0.778   2.426  10.116 -0.0100 -1.6674  0.7646
  197DOPC   C1524361   0.757   2.178   9.896 -0.2900  1.2262  0.6064
  197DOPC  H15A24362   0.823   2.099   9.865 -0.4359  1.6402 -0.8516
  197DOPC  H15B24363   0.731   2.239   9.811  0.6828  2.5538  1.2325
  197DOPC  H15C24364   0.672   2.124   9.936  0.5843  0.3098  1.2779
  197DOPC   C1124365   1.032   2.128  10.059 -0.1127 -0.1026  0.4193
  197DOPC  H11A24366   1.112   2.194  10.017  0.2174 -0.3382  0.6694
  197DOPC  H11B24367   1.078   2.088  10.152 -0.1432 -0.0374  0.4626
  197DOPC     P24368   0.947   1.889   9.999 -0.2687  0.2471 -0.0876
  197DOPC   O1324369   1.055   1.787   9.974  0.3120  0.2474 -0.2395
  197DOPC   O1424370   0.820   1.877   9.921  0.0111 -0.3695  0.2363
  197DOPC   O1224371   1.015   2.030   9.957 -0.2139  0.0506 -0.5551
  197DOPC   O1124372   0.920   1.906  10.150  0.3729  0.1907 -0.0728
  197DOPC    C124373   0.802   1.885  10.228 -0.6609  0.0649 -0.0018
  197DOPC    HA24374   0.778   1.776  10.228  1.2144 -0.4925 -3.4507
  197DOPC    HB24375   0.713   1.938  10.190 -1.1140 -1.5627 -1.3076
  197DOPC    C224376   0.839   1.936  10.373 -0.5001  0.3280  1.0201
  197DOPC    HS24377   0.747   1.927  10.435 -0.6163  2.5242  1.2369
  197DOPC   O2124378   0.872   2.076  10.371  0.2213 -0.1997 -0.0672
  197DOPC   C2124379   0.846   2.139  10.491  0.1896  0.1015 -0.4225
  197DOPC   O2224380   0.786   2.091  10.585  0.1073  0.9916  0.2000
  197DOPC   C2224381   0.896   2.278  10.487 -0.4159 -0.3869  0.6567
  197DOPC   H2R24382   0.859   2.323  10.582 -3.1038 -1.9507  0.4629
  197DOPC   H2S24383   0.849   2.339  10.407 -0.3379 -2.4860 -1.0900
  197DOPC    C324384   0.955   1.842  10.431  0.0351 -0.2077  0.5383
  197DOPC    HX24385   1.049   1.866  10.376  0.6543 -0.8018  1.3111
  197DOPC    HY24386   0.931   1.738  10.404 -0.6249 -0.2612  1.2939
  197DOPC   O3124387   0.978   1.844  10.575 -0.0566  0.3988  0.2931
  197DOPC   C3124388   0.908   1.758  10.652 -0.4871 -0.3887  0.4576
  197DOPC   O3224389   0.805   1.700  10.630  0.1430 -0.0778  0.0330
  197DOPC   C3224390   0.971   1.759  10.787 -0.0771  0.8269  0.2628
  197DOPC   H2X24391   1.080   1.759  10.767 -0.2551 -1.9692 -1.2000
  197DOPC   H2Y24392   0.928   1.848  10.839  0.1431  1.3089 -0.3634
  197DOPC   C2324393   1.039   2.286  10.458  0.2747  0.0415 -0.1276
  197DOPC   H3R24394   1.063   2.394  10.447 -2.8863  0.9769  1.0674
  197DOPC   H3S24395   1.066   2.238  10.362  0.9453  1.0973 -0.4876
  197DOPC   C2424396   1.137   2.232  10.562  0.0370  1.0908 -0.3482
  197DOPC   H4R24397   1.232   2.285  10.537  1.0558 -0.3209  0.4153
  197DOPC   H4S24398   1.138   2.121  10.551  1.3117  0.8671  1.5333
  197DOPC   C2524399   1.094   2.258  10.703 -0.0504  0.6272  0.4917
  197DOPC   H5R24400   0.990   2.223  10.720 -1.3003  2.8087 -2.0476
  197DOPC   H5S24401   1.089   2.366  10.729  0.1775  0.6003  0.6551
  197DOPC   C2624402   1.187   2.195  10.808 -0.0127 -0.4406  0.0995
  197DOPC   H6R24403   1.292   2.231  10.796 -0.4239  0.3224 -1.4387
  197DOPC   H6S24404   1.181   2.084  10.798  1.7427 -0.5502 -0.1816
  197DOPC   C2724405   1.135   2.229  10.957  0.4612  0.9551  0.2481
  197DOPC   H7R24406   1.030   2.191  10.952  1.0909 -1.0899  1.2193
  197DOPC   H7S24407   1.140   2.337  10.982 -0.4933  1.1635 -0.3752
  197DOPC   C2824408   1.222   2.149  11.060  0.3025 -0.0524  0.1075
  197DOPC   H8R24409   1.240   2.221  11.143  2.1972 -0.2122 -0.1337
  197DOPC   H8S24410   1.323   2.139  11.015  0.4265  1.0811  0.0853
  197DOPC   C2924411   1.171   2.017  11.108 -0.0634  0.1489  0.1490
  197DOPC   H9R24412   1.131   1.955  11.026  0.4443  0.8523 -0.6559
  197DOPC  C21024413   1.115   2.000  11.230  0.1378  0.0256  0.3061
  197DOPC  H10R24414   1.071   1.904  11.260 -3.3324  1.8748  1.7277
  197DOPC  C21124415   1.120   2.091  11.352  0.2555  0.1566  0.4297
  197DOPC  H11R24416   1.013   2.114  11.374 -0.8400 -1.1860 -2.8937
  197DOPC  H11S24417   1.173   2.184  11.325  0.3867 -0.4788 -1.6599
  197DOPC  C21224418   1.188   2.034  11.475  0.8297 -0.0579 -0.3183
  197DOPC  H12R24419   1.299   2.031  11.463  0.8502 -0.0336 -0.1478
  197DOPC  H12S24420   1.157   1.928  11.487  0.1971  0.2939  1.5310
  197DOPC  C21324421   1.142   2.112  11.603 -0.6594 -0.8190 -0.1304
  197DOPC  H13R24422   1.041   2.079  11.633 -0.6082  1.0086  2.3315
  197DOPC  H13S24423   1.151   2.222  11.589  0.5632 -0.9458 -0.5190
  197DOPC  C21424424   1.251   2.073  11.710  0.2148  0.6880  0.3142
  197DOPC  H14R24425   1.354   2.077  11.666  0.5474  0.7752  1.0825
  197DOPC  H14S24426   1.239   1.969  11.747  1.4963  0.1929 -0.5669
  197DOPC  C21524427   1.262   2.163  11.831  0.6665  0.0268  0.2603
  197DOPC  H15R24428   1.159   2.173  11.872  0.2440 -1.3350 -0.4004
  197DOPC  H15S24429   1.288   2.260  11.784 -3.0482  1.3587  0.5965
  197DOPC  C21624430   1.363   2.116  11.941  0.4007 -0.5060 -0.4634
  197DOPC  H16R24431   1.466   2.120  11.898  0.8648  1.9831  0.6687
  197DOPC  H16S24432   1.330   2.017  11.978 -2.2711  0.2440 -0.6696
  197DOPC  C21724433   1.377   2.219  12.050  0.1958  0.3592 -0.1875
  197DOPC  H17R24434   1.278   2.245  12.093  0.6548  1.2273  0.3659
  197DOPC  H17S24435   1.412   2.312  12.002 -0.2371  1.1621  0.9970
  197DOPC  C21824436   1.470   2.180  12.165 -0.3452  0.9198 -0.0223
  197DOPC  H18R24437   1.455   2.074  12.193  1.7603  0.2583 -1.2410
  197DOPC  H18S24438   1.450   2.241  12.256 -0.4437 -0.7582  1.1085
  197DOPC  H18T24439   1.575   2.189  12.130 -0.3436  0.8485 -0.0354
  197DOPC   C3324440   0.933   1.630  10.869 -0.5057 -0.0409 -0.1719
  197DOPC   H3X24441   0.920   1.543  10.800  1.0776 -1.4727  1.2222
  197DOPC   H3Y24442   0.835   1.635  10.921 -2.8008 -1.1582 -3.9647
  197DOPC   C3424443   1.031   1.603  10.983 -0.3839 -0.3905  0.1361
  197DOPC   H4X24444   1.077   1.701  11.006  1.9823 -1.1485 -1.0163
  197DOPC   H4Y24445   1.116   1.541  10.945  1.0488  0.4754  1.8019
  197DOPC   C3524446   0.974   1.544  11.119  0.0669  0.4589 -0.3912
  197DOPC   H5X24447   0.925   1.447  11.094  4.2648 -1.7730 -0.7483
  197DOPC   H5Y24448   0.905   1.619  11.165  1.1090  1.3285 -0.2094
  197DOPC   C3624449   1.086   1.499  11.221 -0.1862  0.5795 -0.4396
  197DOPC   H6X24450   1.043   1.434  11.300  1.3015  0.0572 -0.0252
  197DOPC   H6Y24451   1.155   1.434  11.162  1.6787 -0.1189  2.3392
  197DOPC   C3724452   1.152   1.625  11.275 -0.0732  0.0101  0.3401
  197DOPC   H7X24453   1.176   1.694  11.191  0.0277  0.6343  0.8663
  197DOPC   H7Y24454   1.081   1.685  11.336 -0.4358  0.2654 -0.3170
  197DOPC   C3824455   1.290   1.610  11.343 -0.3153  0.0299  0.4895
  197DOPC   H8X24456   1.303   1.540  11.428 -1.1277 -0.6387  0.0636
  197DOPC   H8Y24457   1.314   1.707  11.394  1.6535 -1.3337  2.3434
  197DOPC   C3924458   1.418   1.577  11.260 -0.2454  0.3601  0.3002
  197DOPC   H9X24459   1.421   1.630  11.164 -1.0293 -0.0613  0.0347
  197DOPC  C31024460   1.506   1.485  11.287  0.0955 -0.5240 -0.1660
  197DOPC  H10X24461   1.586   1.463  11.214  0.7802  0.2127  0.3444
  197DOPC  C31124462   1.514   1.395  11.404 -0.1463 -0.3836 -0.2465
  197DOPC  H11X24463   1.482   1.291  11.382  1.1311 -0.5772 -1.2925
  197DOPC  H11Y24464   1.440   1.422  11.482  0.8901  0.5841  0.4297
  197DOPC  C31224465   1.659   1.392  11.463 -1.0203  0.3321 -0.4624
  197DOPC  H12X24466   1.656   1.345  11.564 -0.2181  3.3950  1.1027
  197DOPC  H12Y24467   1.683   1.497  11.488 -0.4408  0.2631 -0.7138
  197DOPC  C31324468   1.772   1.335  11.372 -0.6223  0.3755  0.4826
  197DOPC  H13X24469   1.726   1.238  11.342  2.0294 -1.0258  0.6922
  197DOPC  H13Y24470   1.789   1.410  11.292  0.3565  0.2480  0.5660
  197DOPC  C31424471   1.910   1.307  11.439 -0.7312 -0.9319  0.3519
  197DOPC  H14X24472   1.972   1.273  11.353 -0.7414 -0.4886  0.1669
  197DOPC  H14Y24473   1.933   1.410  11.475 -3.3286  0.2875 -1.1315
  197DOPC  C31524474   1.912   1.217  11.565  0.8178  0.2319 -0.5151
  197DOPC  H15X24475   1.840   1.246  11.644  1.2582 -0.8618  0.3216
  197DOPC  H15Y24476   2.015   1.209  11.606 -0.2698 -0.8521  2.2140
  197DOPC  C31624477   1.864   1.082  11.520 -0.4653  0.1489 -0.2143
  197DOPC  H16X24478   1.753   1.086  11.512 -0.5724 -0.3346  0.7946
  197DOPC  H16Y24479   1.904   1.064  11.419  1.7817  0.8437  0.5098
  197DOPC  C31724480   1.909   0.958  11.600  0.3940  0.3503 -0.1420
  197DOPC  H17X24481   1.858   0.870  11.555  1.0083 -0.2738  0.3634
  197DOPC  H17Y24482   2.020   0.954  11.596  0.5869  2.9063  0.8701
  197DOPC  C31824483   1.866   0.956  11.752 -1.0172 -0.7059  0.0429
  197DOPC  H18X24484   1.756   0.950  11.767 -1.0966  0.5645  0.0743
  197DOPC  H18Y24485   1.924   0.871  11.794  2.3040  0.4302 -1.8613
  197DOPC  H18Z24486   1.896   1.054  11.793  1.0190 -0.5785 -1.5881
  198DOPC     N24487   5.091   3.023   9.558 -0.1781  0.1079 -0.4374
  198DOPC   C1224488   5.199   2.945   9.633 -0.3830  0.4246  0.5851
  198DOPC  H12A24489   5.294   2.994   9.620 -1.9313  2.9325 -3.2605
  198DOPC  H12B24490   5.201   2.846   9.589 -0.6561  0.9042 -0.5502
  198DOPC   C1324491   4.971   2.945   9.537  0.0562  0.4038 -0.3839
  198DOPC  H13A24492   4.895   2.995   9.480 -0.7102  0.0928  0.3393
  198DOPC  H13B24493   4.990   2.853   9.484 -0.2271 -0.2494  0.6051
  198DOPC  H13C24494   4.928   2.925   9.634  0.2565 -0.7169 -0.5064
  198DOPC   C1424495   5.156   3.080   9.432 -0.0107 -0.6991 -0.1835
  198DOPC  H14A24496   5.249   3.128   9.459 -1.0506  1.6121 -0.4267
  198DOPC  H14B24497   5.158   3.014   9.347 -1.9827  0.6132 -1.3436
  198DOPC  H14C24498   5.083   3.150   9.395 -1.0034 -2.4100 -1.6095
  198DOPC   C1524499   5.050   3.139   9.653 -0.2387  0.4263 -0.5118
  198DOPC  H15A24500   4.958   3.184   9.619  0.9076  2.6969 -0.7842
  198DOPC  H15B24501   5.121   3.220   9.653 -0.3324  0.5110 -0.6191
  198DOPC  H15C24502   5.047   3.112   9.757 -1.3768 -0.8905 -0.8511
  198DOPC   C1124503   5.186   2.920   9.791 -0.3698  0.0729 -0.0293
  198DOPC  H11A24504   5.215   3.013   9.845  0.1778 -0.5065  0.6889
  198DOPC  H11B24505   5.082   2.905   9.827 -0.7357  2.9857  0.3957
  198DOPC     P24506   5.429   2.812   9.808  0.4435  0.3025  0.1303
  198DOPC   O1324507   5.483   2.946   9.833  0.6239  0.0626 -0.3715
  198DOPC   O1424508   5.457   2.764   9.669  0.0304  0.6085 -0.3659
  198DOPC   O1224509   5.272   2.817   9.841  0.2963  0.5458 -0.1667
  198DOPC   O1124510   5.482   2.719   9.926  0.0309  0.1397 -0.1318
  198DOPC    C124511   5.402   2.621   9.980 -0.4872 -0.1019  0.0257
  198DOPC    HA24512   5.381   2.549   9.897 -0.3511  0.7513 -0.7694
  198DOPC    HB24513   5.299   2.653  10.007 -1.8958 -3.0974 -1.3271
  198DOPC    C224514   5.461   2.567  10.106 -0.0681 -0.3555  0.1662
  198DOPC    HS24515   5.393   2.484  10.136  1.4806 -0.9776  2.1523
  198DOPC   O2124516   5.482   2.664  10.205  0.6187 -0.0671 -0.1055
  198DOPC   C2124517   5.414   2.653  10.314  1.0342 -0.0575 -0.3104
  198DOPC   O2224518   5.331   2.569  10.344  0.0652 -0.4399 -0.0404
  198DOPC   C2224519   5.434   2.780  10.398 -0.1831  0.1379  0.4606
  198DOPC   H2R24520   5.341   2.838  10.381 -0.2182 -0.4600 -1.7844
  198DOPC   H2S24521   5.512   2.846  10.354 -0.3653  0.2293  0.2709
  198DOPC    C324522   5.599   2.495  10.071  0.0256 -0.1296  0.4551
  198DOPC    HX24523   5.670   2.564  10.021 -1.4820  0.8011 -0.4910
  198DOPC    HY24524   5.569   2.427   9.989 -1.1000 -0.2101  0.9095
  198DOPC   O3124525   5.656   2.422  10.185  0.1330 -0.0256  0.1156
  198DOPC   C3124526   5.639   2.282  10.187 -0.0633 -0.1677 -0.1925
  198DOPC   O3224527   5.591   2.221  10.095  0.2348 -0.1660  0.1789
  198DOPC   C3224528   5.718   2.218  10.303 -0.2575  0.4796 -1.1099
  198DOPC   H2X24529   5.687   2.111  10.301  0.6462  0.2198 -2.2276
  198DOPC   H2Y24530   5.828   2.224  10.287  0.2457 -0.6639  1.4131
  198DOPC   C2324531   5.472   2.760  10.541  1.2743  0.5539 -0.3316
  198DOPC   H3R24532   5.578   2.727  10.546  1.3806  0.8963 -0.3414
  198DOPC   H3S24533   5.410   2.677  10.584 -0.0703  0.2895 -2.5888
  198DOPC   C2424534   5.455   2.884  10.629 -0.0752  0.1993 -0.5686
  198DOPC   H4R24535   5.351   2.869  10.664  0.1697 -4.1444 -1.1955
  198DOPC   H4S24536   5.474   2.978  10.573  0.8109 -0.0883 -0.7796
  198DOPC   C2524537   5.538   2.889  10.756 -0.0915 -0.0268 -0.4382
  198DOPC   H5R24538   5.644   2.895  10.723 -0.8981 -2.3483 -4.0500
  198DOPC   H5S24539   5.522   2.794  10.811  2.0319 -0.6810 -0.8793
  198DOPC   C2624540   5.479   2.988  10.858 -0.4041 -0.0829 -0.2183
  198DOPC   H6R24541   5.376   2.957  10.888 -0.3484  1.0170  1.1978
  198DOPC   H6S24542   5.472   3.093  10.823  1.9248  0.4053  0.6246
  198DOPC   C2724543   5.551   2.994  10.996 -0.2208 -0.4959  0.7010
  198DOPC   H7R24544   5.661   3.002  10.978  0.1580  0.4370  3.0631
  198DOPC   H7S24545   5.532   2.898  11.048  0.8367 -1.1010  0.0196
  198DOPC   C2824546   5.500   3.102  11.089 -0.5216  0.6462  0.3458
  198DOPC   H8R24547   5.480   3.198  11.035 -0.3890  0.4256 -0.1051
  198DOPC   H8S24548   5.570   3.122  11.173 -0.5068  0.0120  0.4905
  198DOPC   C2924549   5.372   3.044  11.147  0.4484 -0.0978 -0.4738
  198DOPC   H9R24550   5.286   3.106  11.118  0.5970 -0.6487 -2.1653
  198DOPC  C21024551   5.350   2.955  11.248 -0.3915  0.0666 -0.0169
  198DOPC  H10R24552   5.260   2.892  11.243  0.2156 -0.7990 -0.4295
  198DOPC  C21124553   5.465   2.891  11.324 -0.6302  0.6636  1.3569
  198DOPC  H11R24554   5.563   2.925  11.283 -0.5669  0.0297  0.9660
  198DOPC  H11S24555   5.464   2.783  11.297 -0.7598  1.3411 -1.7119
  198DOPC  C21224556   5.453   2.900  11.477 -0.5707 -0.2020 -0.3854
  198DOPC  H12R24557   5.524   2.830  11.526 -0.0366 -0.4132 -1.4244
  198DOPC  H12S24558   5.352   2.857  11.490 -1.0949 -0.2906 -3.8904
  198DOPC  C21324559   5.466   3.041  11.533 -0.3793 -0.4068 -0.3016
  198DOPC  H13R24560   5.381   3.099  11.491  1.4842  1.2588 -1.9886
  198DOPC  H13S24561   5.557   3.093  11.497 -1.3933  1.8822  0.2556
  198DOPC  C21424562   5.450   3.032  11.683 -0.0269 -0.3308 -0.4304
  198DOPC  H14R24563   5.358   2.978  11.715 -0.5165  0.7193 -0.0442
  198DOPC  H14S24564   5.438   3.138  11.712  0.9615  0.4966 -2.8121
  198DOPC  C21524565   5.561   2.957  11.770 -0.0452 -0.5015  0.1685
  198DOPC  H15R24566   5.663   2.990  11.740  0.0465 -0.0134  0.9764
  198DOPC  H15S24567   5.550   2.847  11.766 -1.0200 -0.4297  0.5633
  198DOPC  C21624568   5.551   3.003  11.917  0.8406  0.4329 -0.6069
  198DOPC  H16R24569   5.459   2.952  11.953  1.5380 -0.4404 -0.0004
  198DOPC  H16S24570   5.532   3.112  11.921  0.9381  0.4576 -0.7801
  198DOPC  C21724571   5.672   2.970  11.992 -0.6239 -0.6616  0.4762
  198DOPC  H17R24572   5.761   3.013  11.943 -2.4371  1.7406 -0.9190
  198DOPC  H17S24573   5.675   2.859  11.991 -0.1832 -0.6559 -0.9028
  198DOPC  C21824574   5.653   3.006  12.141 -0.0076 -0.1824 -0.0594
  198DOPC  H18R24575   5.751   3.001  12.193  0.5792  0.5175 -1.0663
  198DOPC  H18S24576   5.568   2.949  12.185  1.2296 -3.2062 -1.3644
  198DOPC  H18T24577   5.609   3.108  12.138 -0.8649 -0.5116  0.7823
  198DOPC   C3324578   5.677   2.273  10.448  0.2891 -0.0803  0.5265
  198DOPC   H3X24579   5.568   2.255  10.459 -0.0399 -1.2944 -3.2333
  198DOPC   H3Y24580   5.677   2.384  10.453  0.9704  0.0032 -0.8113
  198DOPC   C3424581   5.758   2.214  10.570  1.0544 -0.4425 -0.1727
  198DOPC   H4X24582   5.868   2.222  10.563  1.2755 -0.2731  2.5776
  198DOPC   H4Y24583   5.733   2.106  10.573  0.1762 -0.2302  1.2509
  198DOPC   C3524584   5.701   2.268  10.701  1.0014 -0.0065 -0.6057
  198DOPC   H5X24585   5.597   2.233  10.719  0.7105  1.3880  0.6482
  198DOPC   H5Y24586   5.697   2.379  10.694  2.7217  0.0440 -1.1873
  198DOPC   C3624587   5.784   2.234  10.827 -0.1029 -0.9059  0.4808
  198DOPC   H6X24588   5.803   2.125  10.830  0.7994 -0.8147 -1.0708
  198DOPC   H6Y24589   5.873   2.299  10.815 -1.2947  0.5452 -0.9230
  198DOPC   C3724590   5.726   2.278  10.959 -0.0729 -0.2788  1.1802
  198DOPC   H7X24591   5.710   2.388  10.961  0.6100 -0.0956 -0.6378
  198DOPC   H7Y24592   5.626   2.230  10.961  0.0260 -0.7185 -1.1275
  198DOPC   C3824593   5.791   2.232  11.084  0.0561  0.3507  0.1310
  198DOPC   H8X24594   5.897   2.263  11.088  0.0389  0.2769  1.7113
  198DOPC   H8Y24595   5.783   2.122  11.092  1.2353  0.2109 -0.4184
  198DOPC   C3924596   5.729   2.289  11.210  0.3636  0.4845 -0.3181
  198DOPC   H9X24597   5.622   2.311  11.200  0.2073  0.2227  0.6733
  198DOPC  C31024598   5.787   2.299  11.334 -0.7089 -0.7309  0.8041
  198DOPC  H10X24599   5.726   2.358  11.405 -0.0867  2.2458 -0.9415
  198DOPC  C31124600   5.931   2.250  11.371  0.2497 -0.5194  0.3344
  198DOPC  H11X24601   5.981   2.323  11.438  0.0209 -0.9045  0.9247
  198DOPC  H11Y24602   5.996   2.250  11.280  0.7733  0.8338  0.6831
  198DOPC  C31224603   5.950   2.099  11.420 -0.2045 -0.2370 -0.3252
  198DOPC  H12X24604   6.048   2.056  11.390  0.4718  1.2979 -0.4125
  198DOPC  H12Y24605   5.866   2.039  11.379 -0.7740  0.3545 -0.0384
  198DOPC  C31324606   5.937   2.083  11.572 -0.0891 -0.1349 -0.3994
  198DOPC  H13X24607   5.837   2.122  11.604  0.2662  0.5926 -0.1495
  198DOPC  H13Y24608   5.947   1.975  11.596 -1.9871 -0.2837 -0.1047
  198DOPC  C31424609   6.035   2.173  11.655  0.5684  1.2651  0.4849
  198DOPC  H14X24610   6.135   2.151  11.613  0.4830  3.1980 -0.8613
  198DOPC  H14Y24611   6.022   2.283  11.641  1.2255  1.3327  0.3836
  198DOPC  C31524612   6.025   2.153  11.807 -0.6245 -1.2953  0.2005
  198DOPC  H15X24613   6.041   2.044  11.825  1.3675 -1.2668 -1.0816
  198DOPC  H15Y24614   5.925   2.184  11.842 -1.0774  0.9087 -2.7011
  198DOPC  C31624615   6.136   2.231  11.888 -0.4976 -0.5572  0.5634
  198DOPC  H16X24616   6.229   2.194  11.839 -1.0745 -1.1677 -0.0914
  198DOPC  H16Y24617   6.131   2.341  11.873  1.4641 -0.3151  1.3840
  198DOPC  C31724618   6.144   2.196  12.036  0.1818  0.2413 -0.5537
  198DOPC  H17X24619   6.058   2.227  12.101  1.9610  1.5112  1.3255
  198DOPC  H17Y24620   6.165   2.088  12.027  0.9982  0.3037  0.3800
  198DOPC  C31824621   6.266   2.252  12.110 -0.0145 -0.1092  0.2271
  198DOPC  H18X24622   6.250   2.221  12.216 -1.1956  0.1814  0.1465
  198DOPC  H18Y24623   6.367   2.221  12.074 -0.5063 -0.8314 -0.5402
  198DOPC  H18Z24624   6.280   2.361  12.126  0.3847 -0.1977  0.5188
  199DOPC     N24625   4.319   2.315   9.471  0.4097  0.0268  1.0025
  199DOPC   C1224626   4.465   2.381   9.482 -0.0493  1.0196  0.4507
  199DOPC  H12A24627   4.503   2.395   9.382 -1.6607  0.4889 -0.2734
  199DOPC  H12B24628   4.540   2.314   9.521 -1.2992 -1.2787 -0.8704
  199DOPC   C1324629   4.336   2.187   9.395  0.1810 -0.5202 -0.3008
  199DOPC  H13A24630   4.410   2.123   9.442  0.9800 -0.0487 -0.8888
  199DOPC  H13B24631   4.242   2.135   9.386  1.1303 -2.0228 -2.7062
  199DOPC  H13C24632   4.360   2.201   9.291 -0.9832  1.6034 -0.3427
  199DOPC   C1424633   4.226   2.405   9.397  0.4237 -0.3504  0.2030
  199DOPC  H14A24634   4.124   2.372   9.395  1.5381 -4.2590 -0.0873
  199DOPC  H14B24635   4.237   2.501   9.446  3.4999 -0.8465  0.6939
  199DOPC  H14C24636   4.257   2.431   9.297  0.1891 -0.6886  0.0395
  199DOPC   C1524637   4.264   2.293   9.603 -0.0157 -0.3076  0.8379
  199DOPC  H15A24638   4.169   2.243   9.605 -0.2001 -0.5852 -3.8183
  199DOPC  H15B24639   4.263   2.382   9.665  0.4974  0.2092  0.1306
  199DOPC  H15C24640   4.334   2.236   9.662  2.7561  1.9239 -0.0233
  199DOPC   C1124641   4.487   2.520   9.551 -0.4368 -0.0023 -0.2797
  199DOPC  H11A24642   4.589   2.558   9.527  0.0557 -1.0928  0.0377
  199DOPC  H11B24643   4.411   2.591   9.512 -0.9158  0.6212  1.6513
  199DOPC     P24644   4.571   2.414   9.775  0.2359 -0.2514 -0.6319
  199DOPC   O1324645   4.719   2.448   9.742 -0.3408 -0.5809 -0.3920
  199DOPC   O1424646   4.539   2.266   9.765 -0.0523 -0.1279  0.2879
  199DOPC   O1224647   4.479   2.512   9.695  0.2579  0.4287 -0.0348
  199DOPC   O1124648   4.534   2.466   9.923  0.5030 -0.5474  0.2186
  199DOPC    C124649   4.602   2.588   9.970 -0.6027  0.0084 -0.3756
  199DOPC    HA24650   4.532   2.642  10.037  1.3637  2.0537  0.1598
  199DOPC    HB24651   4.625   2.661   9.889  1.3711 -0.1000  0.0463
  199DOPC    C224652   4.723   2.560  10.059 -0.0518 -0.1767  0.5048
  199DOPC    HS24653   4.768   2.470  10.011 -2.8520 -1.6396  0.4108
  199DOPC   O2124654   4.678   2.532  10.189  0.8313  0.3993 -0.6626
  199DOPC   C2124655   4.758   2.454  10.255  0.5039  0.2469 -0.7060
  199DOPC   O2224656   4.848   2.387  10.209  0.0566  0.1944 -0.0189
  199DOPC   C2224657   4.732   2.485  10.405  0.4624  0.1147  0.7797
  199DOPC   H2R24658   4.633   2.443  10.432  0.2259  1.0058  1.3448
  199DOPC   H2S24659   4.734   2.596  10.416 -0.3994  0.1388  0.7764
  199DOPC    C324660   4.831   2.674  10.069  0.5496  0.2557 -0.3138
  199DOPC    HX24661   4.771   2.767  10.060  0.9789  0.5995  0.3275
  199DOPC    HY24662   4.899   2.682   9.981 -0.6773  1.8682 -1.1886
  199DOPC   O3124663   4.911   2.669  10.189 -0.1127  0.4015  0.4875
  199DOPC   C3124664   4.988   2.769  10.199 -0.2464  0.0664  0.0517
  199DOPC   O3224665   5.017   2.855  10.114 -0.3094  0.5473  0.4354
  199DOPC   C3224666   5.049   2.770  10.343 -0.7029 -0.2064  0.3802
  199DOPC   H2X24667   5.072   2.666  10.373 -0.4433 -0.9597 -2.2090
  199DOPC   H2Y24668   5.146   2.822  10.328 -1.8248  1.5761 -1.1477
  199DOPC   C2324669   4.850   2.427  10.489 -1.0244  0.2547  0.1285
  199DOPC   H3R24670   4.948   2.476  10.467  0.2368 -2.1721 -0.0063
  199DOPC   H3S24671   4.870   2.319  10.471  0.9574  0.2512  1.9707
  199DOPC   C2424672   4.821   2.442  10.640 -0.8101  0.1068  0.3168
  199DOPC   H4R24673   4.721   2.396  10.658 -0.6802 -0.8507 -1.2427
  199DOPC   H4S24674   4.816   2.551  10.661  0.4687  0.2891 -0.2386
  199DOPC   C2524675   4.920   2.365  10.744 -0.0425 -0.0219 -0.1506
  199DOPC   H5R24676   4.911   2.260  10.708 -1.7319  0.6831 -1.9469
  199DOPC   H5S24677   4.878   2.375  10.846  2.5001 -2.2903  1.2883
  199DOPC   C2624678   5.064   2.423  10.736  0.1374 -0.0659 -0.4153
  199DOPC   H6R24679   5.041   2.530  10.752 -0.8833 -0.1435 -1.2381
  199DOPC   H6S24680   5.105   2.421  10.633  0.8226  1.8202 -0.2140
  199DOPC   C2724681   5.154   2.372  10.851 -0.4260  0.0123  0.0675
  199DOPC   H7R24682   5.159   2.261  10.847  2.3096  0.0820 -0.0836
  199DOPC   H7S24683   5.114   2.419  10.944  1.6284  1.1093  0.4439
  199DOPC   C2824684   5.307   2.411  10.840 -0.4834 -0.9239 -0.4807
  199DOPC   H8R24685   5.346   2.393  10.738  0.1614 -1.7634 -0.1000
  199DOPC   H8S24686   5.357   2.337  10.906 -1.2091 -2.2636 -1.3782
  199DOPC   C2924687   5.320   2.555  10.871 -0.3039  0.1390  0.7773
  199DOPC   H9R24688   5.285   2.619  10.788 -2.9095 -0.1183  1.5926
  199DOPC  C21024689   5.370   2.613  10.977  0.4361 -0.2791  0.4987
  199DOPC  H10R24690   5.373   2.722  10.990  1.1312 -0.0966 -1.0352
  199DOPC  C21124691   5.421   2.545  11.099  0.2217  0.0956 -0.0499
  199DOPC  H11R24692   5.503   2.601  11.149 -0.9241  0.6727  1.2430
  199DOPC  H11S24693   5.461   2.443  11.083 -0.4923 -0.0731 -0.8571
  199DOPC  C21224694   5.305   2.533  11.207  0.3732  0.5591 -0.9666
  199DOPC  H12R24695   5.219   2.494  11.148 -0.3929 -0.6984  0.8681
  199DOPC  H12S24696   5.286   2.626  11.264 -0.6032 -0.6205  0.7274
  199DOPC  C21324697   5.336   2.426  11.321 -0.2714  0.2020 -0.0572
  199DOPC  H13R24698   5.371   2.330  11.276  1.5332  2.2602 -3.5138
  199DOPC  H13S24699   5.233   2.404  11.356 -0.0808 -0.5264  0.0703
  199DOPC  C21424700   5.430   2.488  11.427  0.6210 -0.1362  0.1520
  199DOPC  H14R24701   5.370   2.561  11.485  0.6055 -0.4034  0.4767
  199DOPC  H14S24702   5.510   2.545  11.375 -0.1504  1.3785  0.5585
  199DOPC  C21524703   5.478   2.389  11.529 -0.5069 -0.0891  0.2213
  199DOPC  H15R24704   5.530   2.304  11.479  0.6922  0.0999  1.1113
  199DOPC  H15S24705   5.395   2.348  11.591 -1.3605  0.4297 -0.5468
  199DOPC  C21624706   5.571   2.454  11.631  0.2139 -0.2133  0.3248
  199DOPC  H16R24707   5.522   2.537  11.687  1.0976  0.6295 -0.1116
  199DOPC  H16S24708   5.655   2.506  11.580 -1.1305  0.6915 -1.0483
  199DOPC  C21724709   5.623   2.361  11.735  0.2100  0.2289 -0.5821
  199DOPC  H17R24710   5.670   2.271  11.691  1.3829  0.3108  0.4333
  199DOPC  H17S24711   5.536   2.317  11.790 -0.5081 -0.6496 -2.3331
  199DOPC  C21824712   5.730   2.416  11.836 -0.4126 -0.0929  0.3825
  199DOPC  H18R24713   5.819   2.439  11.773 -1.2688 -0.4861 -1.0274
  199DOPC  H18S24714   5.746   2.340  11.915  2.5378  0.6073  0.5602
  199DOPC  H18T24715   5.697   2.515  11.873 -1.9873 -0.2606 -0.4860
  199DOPC   C3324716   4.957   2.834  10.449  0.1515  0.1019  0.3111
  199DOPC   H3X24717   4.874   2.767  10.479 -1.9166  1.9189 -1.0308
  199DOPC   H3Y24718   4.897   2.918  10.409 -1.2699 -2.0721 -2.3724
  199DOPC   C3424719   5.037   2.878  10.570  0.1227  0.4222 -0.1506
  199DOPC   H4X24720   5.106   2.959  10.539 -0.4434  1.1515  0.4544
  199DOPC   H4Y24721   5.107   2.800  10.605 -0.9031 -0.5898 -0.3027
  199DOPC   C3524722   4.942   2.936  10.678  0.0692 -0.7434 -1.1015
  199DOPC   H5X24723   4.846   2.881  10.687  0.8534 -2.0031  0.0251
  199DOPC   H5Y24724   4.916   3.041  10.652 -2.1179 -0.3412  2.1123
  199DOPC   C3624725   5.013   2.952  10.818  0.4729 -0.0286  0.6451
  199DOPC   H6X24726   5.118   2.984  10.804  0.2680 -0.2185 -1.7186
  199DOPC   H6Y24727   4.974   3.044  10.866  1.1880  1.8539 -2.1831
  199DOPC   C3724728   5.021   2.828  10.903  0.4194  0.1689  0.2964
  199DOPC   H7X24729   5.073   2.746  10.850  1.2086  1.7148 -1.4121
  199DOPC   H7Y24730   5.081   2.852  10.994 -0.8574  1.2092  0.9095
  199DOPC   C3824731   4.881   2.790  10.955 -0.1330  0.3102  0.4107
  199DOPC   H8X24732   4.818   2.775  10.865 -2.3593 -0.0288  1.9591
  199DOPC   H8Y24733   4.837   2.870  11.018 -1.1510 -0.4301  0.6746
  199DOPC   C3924734   4.871   2.657  11.025 -0.1856 -0.1678 -0.3762
  199DOPC   H9X24735   4.877   2.577  10.950  0.0750  0.2620 -0.8164
  199DOPC  C31024736   4.873   2.625  11.157  0.0928 -0.1459 -0.3695
  199DOPC  H10X24737   4.847   2.525  11.194 -1.1826 -0.0736 -1.0471
  199DOPC  C31124738   4.879   2.729  11.271 -0.1097 -0.1033 -0.0340
  199DOPC  H11X24739   4.772   2.733  11.301 -1.0268 -1.0609 -2.8365
  199DOPC  H11Y24740   4.907   2.828  11.231  0.2933 -0.2847 -0.2075
  199DOPC  C31224741   4.975   2.668  11.376  0.0766  0.1637  0.3134
  199DOPC  H12X24742   5.072   2.658  11.323  0.7121 -0.8067  1.6209
  199DOPC  H12Y24743   4.927   2.573  11.409  0.1896  0.0483  0.1449
  199DOPC  C31324744   4.998   2.754  11.505 -0.1348 -0.0348  0.0131
  199DOPC  H13X24745   5.024   2.861  11.492 -0.0040  0.2909  2.5450
  199DOPC  H13Y24746   4.904   2.755  11.563  0.0192  1.2474  0.2534
  199DOPC  C31424747   5.113   2.686  11.575 -0.3800  0.3184  0.7787
  199DOPC  H14X24748   5.112   2.577  11.556  1.5669  0.5757 -1.1160
  199DOPC  H14Y24749   5.205   2.710  11.518  0.4054 -1.8907  1.0430
  199DOPC  C31524750   5.136   2.734  11.718 -0.2392 -0.1001  0.4824
  199DOPC  H15X24751   5.054   2.699  11.785  2.2150 -4.8763  1.4473
  199DOPC  H15Y24752   5.137   2.845  11.728  2.0196 -0.1455  1.4666
  199DOPC  C31624753   5.258   2.654  11.774 -0.0693  0.0198  0.7601
  199DOPC  H16X24754   5.231   2.547  11.758  0.4582 -0.3920  2.3584
  199DOPC  H16Y24755   5.355   2.680  11.727 -1.2910  0.1962 -1.8119
  199DOPC  C31724756   5.280   2.661  11.923  0.3642  1.0393 -0.3688
  199DOPC  H17X24757   5.266   2.767  11.955 -0.4849  0.8422 -0.0704
  199DOPC  H17Y24758   5.199   2.606  11.976 -0.8150  1.9497 -1.1678
  199DOPC  C31824759   5.409   2.611  11.969 -0.0561  0.3385  0.5377
  199DOPC  H18X24760   5.422   2.501  11.968 -0.6557  0.2269 -1.8590
  199DOPC  H18Y24761   5.496   2.647  11.910 -0.1076 -0.9941 -0.3891
  199DOPC  H18Z24762   5.427   2.650  12.072 -1.1525  1.6545  0.2529
  200DOPC     N24763   6.559   4.163  10.055  1.2830 -0.1897 -0.2746
  200DOPC   C1224764   6.627   4.264   9.957 -0.0708 -0.6662 -0.4270
  200DOPC  H12A24765   6.734   4.255   9.966  0.0262 -1.4703 -1.9721
  200DOPC  H12B24766   6.601   4.366   9.981  0.0263 -0.4680 -1.1408
  200DOPC   C1324767   6.406   4.161  10.052 -0.1713 -0.4143  0.4281
  200DOPC  H13A24768   6.352   4.080  10.097 -1.3747  0.4776  0.6412
  200DOPC  H13B24769   6.371   4.251  10.100  0.7624  0.0465  0.2728
  200DOPC  H13C24770   6.359   4.159   9.955 -2.1610  3.6086  1.1007
  200DOPC   C1424771   6.607   4.191  10.198 -0.1905  0.3267  0.1799
  200DOPC  H14A24772   6.573   4.100  10.245 -1.5886 -0.2596 -1.8585
  200DOPC  H14B24773   6.714   4.185  10.206 -0.2604 -0.5456  0.6265
  200DOPC  H14C24774   6.564   4.283  10.237 -3.1832 -0.5012 -0.8995
  200DOPC   C1524775   6.598   4.027  10.022 -0.0919  0.0423  0.2055
  200DOPC  H15A24776   6.546   3.945  10.070 -0.9515 -0.5235 -1.6059
  200DOPC  H15B24777   6.706   4.027  10.025  0.1317  4.7858  0.0790
  200DOPC  H15C24778   6.571   4.007   9.920  0.3052 -0.8351  0.2641
  200DOPC   C1124779   6.597   4.243   9.805 -0.6186  0.1696  0.2188
  200DOPC  H11A24780   6.492   4.215   9.785  0.3662 -4.7868  0.8365
  200DOPC  H11B24781   6.612   4.337   9.748 -0.1636 -0.7652 -1.2565
  200DOPC     P24782   6.823   4.155   9.716 -0.0060  0.1432 -0.1475
  200DOPC   O1324783   6.831   4.260   9.613  0.9267 -0.2124 -0.2505
  200DOPC   O1424784   6.871   4.020   9.683 -0.5378 -0.5418  0.2740
  200DOPC   O1224785   6.675   4.134   9.753 -0.7473  0.2947  0.2739
  200DOPC   O1124786   6.887   4.211   9.847 -0.1028  0.4253 -0.7993
  200DOPC    C124787   7.021   4.190   9.881  0.2853  0.3981 -1.1267
  200DOPC    HA24788   7.078   4.276   9.838 -0.6142  2.6197  1.8069
  200DOPC    HB24789   7.065   4.095   9.844  0.9884  1.3038 -2.7345
  200DOPC    C224790   7.051   4.202  10.039  0.3733  0.6527 -0.1460
  200DOPC    HS24791   7.160   4.193  10.057  0.4455 -1.5216 -1.3091
  200DOPC   O2124792   6.961   4.104  10.099 -0.1572  0.1841 -0.1119
  200DOPC   C2124793   7.002   3.973  10.072  0.1315 -0.2207  0.6013
  200DOPC   O2224794   7.110   3.948  10.030 -0.1395 -0.0759 -0.4061
  200DOPC   C2224795   6.894   3.872  10.111  0.6365  0.4704 -0.2588
  200DOPC   H2R24796   6.843   3.840  10.017  0.0261  3.0925 -0.9119
  200DOPC   H2S24797   6.817   3.919  10.176 -0.2698 -3.2825  1.6624
  200DOPC    C324798   6.999   4.339  10.094  0.3966  0.3403  0.3462
  200DOPC    HX24799   6.905   4.367  10.040  0.4352  2.4608  1.2824
  200DOPC    HY24800   7.078   4.410  10.061  0.4334  0.8109  1.4215
  200DOPC   O3124801   6.984   4.336  10.239 -0.3932 -0.3304  0.5571
  200DOPC   C3124802   7.082   4.386  10.312 -0.4897  0.0612 -0.5219
  200DOPC   O3224803   7.192   4.416  10.273  0.0266  0.5800  0.3098
  200DOPC   C3224804   7.040   4.392  10.463  0.3935  0.3888 -0.3121
  200DOPC   H2X24805   7.105   4.471  10.506  0.0445 -0.1185  1.1722
  200DOPC   H2Y24806   6.933   4.421  10.472 -0.4681 -2.4353 -0.3774
  200DOPC   C2324807   6.963   3.763  10.196 -0.1563 -0.2709 -0.6618
  200DOPC   H3R24808   7.042   3.716  10.132  0.6662 -0.3996  0.4241
  200DOPC   H3S24809   6.887   3.683  10.207  0.8716 -1.0185  1.5860
  200DOPC   C2424810   7.015   3.802  10.336  0.2456 -0.6251 -0.0301
  200DOPC   H4R24811   7.044   3.909  10.331 -0.1644 -0.4924  0.3274
  200DOPC   H4S24812   7.114   3.760  10.362 -0.7585 -1.8435  2.0938
  200DOPC   C2524813   6.913   3.774  10.440 -0.0180 -0.3611 -0.6494
  200DOPC   H5R24814   6.903   3.665  10.459  0.5464 -0.4513 -0.8348
  200DOPC   H5S24815   6.813   3.804  10.403  0.3355 -0.4378 -1.6965
  200DOPC   C2624816   6.937   3.845  10.570  0.3738 -0.1090  0.2219
  200DOPC   H6R24817   6.916   3.954  10.558  1.4998  0.0465 -0.5070
  200DOPC   H6S24818   7.042   3.843  10.608  0.5113 -1.4416 -0.1869
  200DOPC   C2724819   6.840   3.800  10.678  0.3011  0.3288  0.5799
  200DOPC   H7R24820   6.862   3.694  10.704 -0.5515 -0.5198 -1.8361
  200DOPC   H7S24821   6.738   3.794  10.634  0.8699 -2.7185 -0.5787
  200DOPC   C2824822   6.844   3.891  10.801  0.4047 -0.1272  0.3231
  200DOPC   H8R24823   6.831   3.997  10.769  1.9617 -1.0713 -4.0003
  200DOPC   H8S24824   6.941   3.869  10.851  1.1683 -0.6450 -1.3307
  200DOPC   C2924825   6.731   3.879  10.901  0.1265  0.1515 -0.3754
  200DOPC   H9R24826   6.637   3.833  10.866 -1.4979  2.7379  0.3290
  200DOPC  C21024827   6.738   3.911  11.033 -0.0475 -0.1507  0.5349
  200DOPC  H10R24828   6.640   3.892  11.079  0.4426  0.7532  1.9979
  200DOPC  C21124829   6.844   3.987  11.104  0.2423  0.1812  0.8945
  200DOPC  H11R24830   6.812   4.094  11.105  1.6658  0.6656 -0.4325
  200DOPC  H11S24831   6.938   3.983  11.045 -0.7143 -1.1471 -0.6112
  200DOPC  C21224832   6.864   3.940  11.245 -0.1025  0.1225 -0.4497
  200DOPC  H12R24833   6.963   3.968  11.288 -0.7031  0.3723  0.8407
  200DOPC  H12S24834   6.859   3.829  11.249 -1.5861  0.1801 -0.1909
  200DOPC  C21324835   6.750   3.981  11.345 -0.4385  0.1317 -0.0181
  200DOPC  H13R24836   6.648   3.957  11.308  0.4051  1.1708 -3.3345
  200DOPC  H13S24837   6.743   4.092  11.343 -2.3553  0.0784  1.1740
  200DOPC  C21424838   6.772   3.922  11.487  0.0356 -0.2197 -0.2401
  200DOPC  H14R24839   6.795   3.813  11.494  1.2272  0.1081  1.4482
  200DOPC  H14S24840   6.682   3.947  11.547  0.0441 -1.5290  0.3578
  200DOPC  C21524841   6.889   3.983  11.562  0.8597 -0.0278 -0.1980
  200DOPC  H15R24842   6.878   4.094  11.562  3.5099  0.3050 -1.0616
  200DOPC  H15S24843   6.991   3.963  11.522  0.5481 -2.0191 -0.0583
  200DOPC  C21624844   6.895   3.941  11.708 -0.4031 -0.0352 -0.2185
  200DOPC  H16R24845   6.984   3.993  11.748 -0.6709  2.9520 -3.0781
  200DOPC  H16S24846   6.907   3.831  11.717  1.3401 -0.0680 -2.2014
  200DOPC  C21724847   6.776   3.971  11.793 -0.1777 -0.6119 -0.1093
  200DOPC  H17R24848   6.677   3.935  11.758 -1.1890  0.4690  1.4939
  200DOPC  H17S24849   6.776   4.082  11.798 -0.6859 -0.5891 -0.5140
  200DOPC  C21824850   6.763   3.933  11.943  0.4325 -0.0386 -0.1105
  200DOPC  H18R24851   6.665   3.975  11.974  0.3408  2.1389 -2.8771
  200DOPC  H18S24852   6.834   3.986  12.010 -1.6172  2.1643  0.4624
  200DOPC  H18T24853   6.769   3.822  11.945  2.6151 -0.0725 -2.3978
  200DOPC   C3324854   7.057   4.258  10.547 -0.5737  0.1593 -0.4854
  200DOPC   H3X24855   7.165   4.230  10.547 -0.4951  0.4197 -1.6431
  200DOPC   H3Y24856   7.001   4.183  10.487 -0.4919  0.5896 -1.0992
  200DOPC   C3424857   6.991   4.254  10.688  0.6292 -0.2025 -0.5982
  200DOPC   H4X24858   7.004   4.154  10.733  1.3824  0.4070  0.5704
  200DOPC   H4Y24859   6.881   4.257  10.672  0.3391  3.0390  1.1636
  200DOPC   C3524860   7.041   4.374  10.773 -0.6754  0.4242 -0.0922
  200DOPC   H5X24861   7.018   4.468  10.720 -0.0520  0.7797  0.2622
  200DOPC   H5Y24862   7.150   4.358  10.766 -0.8190 -0.2792 -1.0074
  200DOPC   C3624863   6.995   4.368  10.924 -0.0278 -0.1579  0.3277
  200DOPC   H6X24864   6.948   4.270  10.946  1.5336 -1.5517 -2.0466
  200DOPC   H6Y24865   7.079   4.402  10.989  1.0597  0.7121 -1.4560
  200DOPC   C3724866   6.883   4.474  10.945 -0.5228  0.6238 -0.0129
  200DOPC   H7X24867   6.943   4.565  10.924  0.6832 -0.3322 -0.8809
  200DOPC   H7Y24868   6.803   4.469  10.868 -0.1259  0.2710 -0.4071
  200DOPC   C3824869   6.833   4.486  11.090  0.8317  0.2496 -0.1964
  200DOPC   H8X24870   6.831   4.595  11.115 -0.5582 -0.0246  0.9723
  200DOPC   H8Y24871   6.909   4.436  11.154  0.7956  1.1435  0.5686
  200DOPC   C3924872   6.702   4.412  11.094  0.2648 -0.2075 -0.2828
  200DOPC   H9X24873   6.658   4.376  11.000  1.4956 -2.8974  0.0908
  200DOPC  C31024874   6.657   4.355  11.201 -0.4108 -0.4782 -0.3441
  200DOPC  H10X24875   6.561   4.301  11.203 -1.6436  1.5938  1.9386
  200DOPC  C31124876   6.711   4.369  11.344  0.4491  0.4627 -0.4516
  200DOPC  H11X24877   6.740   4.476  11.358 -1.2073  1.2214 -2.3076
  200DOPC  H11Y24878   6.802   4.311  11.366 -0.5430  0.3705  4.8226
  200DOPC  C31224879   6.606   4.342  11.450  0.0674  0.1592  0.6755
  200DOPC  H12X24880   6.587   4.232  11.454  1.3534 -0.2182 -1.7897
  200DOPC  H12Y24881   6.514   4.391  11.412  1.0356 -0.5212 -2.9358
  200DOPC  C31324882   6.638   4.402  11.578  0.1876 -0.7255 -0.3027
  200DOPC  H13X24883   6.731   4.350  11.609  0.4323 -0.5684 -0.7575
  200DOPC  H13Y24884   6.632   4.513  11.571 -0.6597 -0.6555  1.0975
  200DOPC  C31424885   6.546   4.337  11.678  1.0404 -0.5018  0.3915
  200DOPC  H14X24886   6.438   4.350  11.657  0.8631 -0.3658  1.3260
  200DOPC  H14Y24887   6.571   4.230  11.662 -1.3268 -1.1439  0.6235
  200DOPC  C31524888   6.574   4.376  11.823  0.0930 -0.1304  0.5023
  200DOPC  H15X24889   6.552   4.483  11.839  3.5942  0.5473  1.6370
  200DOPC  H15Y24890   6.678   4.351  11.855  0.0654 -1.1780 -0.1600
  200DOPC  C31624891   6.472   4.293  11.910 -0.1740 -0.0978 -0.4674
  200DOPC  H16X24892   6.368   4.300  11.872 -1.5506 -1.7208  2.6128
  200DOPC  H16Y24893   6.497   4.185  11.899 -1.7472 -0.6460  0.9258
  200DOPC  C31724894   6.472   4.310  12.060  0.5202 -0.7886  0.2343
  200DOPC  H17X24895   6.445   4.418  12.070 -0.6180 -0.9335 -1.0185
  200DOPC  H17Y24896   6.401   4.239  12.108  0.7658 -0.7531  0.6536
  200DOPC  C31824897   6.611   4.287  12.115  0.6085 -0.1228 -0.5296
  200DOPC  H18X24898   6.686   4.346  12.059 -0.8367  1.6876 -0.6461
  200DOPC  H18Y24899   6.606   4.336  12.214  1.7389 -0.7521 -0.1398
  200DOPC  H18Z24900   6.638   4.179  12.114 -1.3415 -0.6501 -1.9465
  201SOD    SOD24901   0.790   1.320  15.949  0.0391  0.1497 -0.3663
  202SOD    SOD24902   5.541   5.609   8.749 -0.1096 -0.3914  0.1793
  203SOD    SOD24903   4.052   3.817  15.603 -0.4970 -0.2387 -0.0801
  204SOD    SOD24904   3.810   4.559   8.914  0.7307 -0.1692 -0.3499
  205SOD    SOD24905   0.559   4.350  16.398 -0.1569  0.3466  0.0631
  206SOD    SOD24906   0.400   3.425   8.065 -0.2289 -0.5044  0.2655
  207SOD    SOD24907   1.008   5.761   7.247  0.2567  0.2459  0.1629
  208SOD    SOD24908   2.981   4.945  16.771  0.1014 -0.4645  0.8384
  209SOD    SOD24909   1.286   1.315   9.071 -0.3087 -0.6031 -0.5642
  210SOD    SOD24910   1.663   5.886  16.129  0.1722  0.3118  0.0220
  211SOD    SOD24911   3.116   3.099  16.246 -0.0840 -0.4233  0.1363
  212SOD    SOD24912   1.569   6.369  14.367 -0.1693  0.1290  0.1155
  213SOD    SOD24913   6.343   0.017   9.317 -0.3370 -0.1323  0.0003
  214SOD    SOD24914   6.629   3.083  14.666  0.5833 -0.1039  0.2246
  215SOD    SOD24915   0.381   2.332  17.067 -0.4083  0.2478 -0.0007
  216SOD    SOD24916   2.900   4.089  14.670 -0.5232 -0.4395 -0.6100
  217SOD    SOD24917   5.376   1.405   9.801 -0.0094  0.4391 -0.0583
  218SOD    SOD24918   5.916   6.166  14.834  0.3650  0.2824 -0.1609
  219SOD    SOD24919   0.711   0.753  15.754 -0.2184 -0.1076 -0.2152
  220SOD    SOD24920   6.364   0.711   9.505  0.3205 -0.1676 -0.4903
  221SOD    SOD24921   2.769   4.205  10.111 -0.4278  0.1457  0.6467
  222SOD    SOD24922   4.428   6.150  17.359  0.2408 -0.3890 -0.3613
  223SOD    SOD24923   6.360   4.920   7.990 -0.2415  0.0325 -0.1305
  224SOD    SOD24924   2.941   3.146   7.837 -0.3114 -0.4162  0.0823
  225SOD    SOD24925   4.610   4.171   8.758 -0.8066 -0.0247  0.0484
  226SOD    SOD24926   2.615   0.847  16.338  0.2472 -0.0925 -0.0292
  227CLA    CLA24927   2.887   2.347   9.187  0.2341  0.0025  0.1900
  228CLA    CLA24928   0.748   2.750   9.065 -0.0364 -0.1985  0.1387
  229CLA    CLA24929   4.842   4.712   7.192  0.1807 -0.0796  0.0168
  230CLA    CLA24930   3.136   5.135  17.316 -0.2690 -0.4560  0.5698
  231CLA    CLA24931   2.035   2.441  16.161  0.3019  0.4114  0.1246
  232CLA    CLA24932   2.845   3.162  17.240  0.2673  0.3884  0.4150
  233CLA    CLA24933   3.356   0.338  15.315  0.2686 -0.0770 -0.0923
  234CLA    CLA24934   3.878   4.539  15.940  0.0262 -0.3705  0.0466
  235CLA    CLA24935   0.859   4.776   8.473  0.1235  0.3394  0.4440
  236CLA    CLA24936   2.742   2.039  16.312  0.3853  0.6618 -0.6389
  237CLA    CLA24937   4.993   2.651  16.246 -0.3767  0.1721  0.3210
  238CLA    CLA24938   4.784   2.212   7.380 -0.2299 -0.1057  0.4215
  239CLA    CLA24939   3.023   2.933   9.508 -0.0767  0.2252 -0.2057
  240CLA    CLA24940   6.417   1.034  15.399 -0.0035 -0.1129 -0.2994
  241CLA    CLA24941   1.989   0.136   8.609  0.0719  0.3273  0.5184
  242CLA    CLA24942   6.232   3.381  16.015 -0.3119  0.1443  0.2458
  243CLA    CLA24943   0.146   6.608   9.612  0.1668 -0.0263 -0.1643
  244CLA    CLA24944   4.729   6.086   7.499 -0.1967 -0.3325 -0.0861
  245CLA    CLA24945   5.397   1.911   8.897 -0.1905 -0.4394 -0.1195
  246CLA    CLA24946   2.180   0.828  16.450 -0.0562 -0.3103  0.1050
  247CLA    CLA24947   4.011   4.397   8.866 -0.1323 -0.5722  0.0825
  248CLA    CLA24948   0.262   5.983   8.922 -0.2427 -0.0582  0.0719
  249CLA    CLA24949   5.011   6.637   8.548 -0.0797 -0.1593  0.0207
  250CLA    CLA24950   6.434   2.069  17.629 -0.1178 -0.2275 -0.1668
  251CLA    CLA24951   0.935   0.243  17.895  0.0950 -0.0114  0.5909
  252CLA    CLA24952   2.262   2.845   8.168 -0.0787 -0.2959  0.0515
  253TIP3   OH224953   1.872   4.528  17.307 -0.4308  0.2132 -0.0305
  253TIP3    H124954   1.924   4.562  17.380  1.6972 -0.7248 -1.0082
  253TIP3    H224955   1.879   4.596  17.239  2.9040 -1.4069 -1.5748
  254TIP3   OH224956   4.828   1.942  15.243 -0.3402 -0.1999 -0.4109
  254TIP3    H124957   4.857   1.850  15.242  0.5220  0.0014  1.3555
  254TIP3    H224958   4.909   1.992  15.258 -0.8524  0.8212 -0.9857
  255TIP3   OH224959   2.086   1.780  14.689  0.0093 -0.3582  0.1830
  255TIP3    H124960   2.058   1.738  14.770 -1.1579 -0.0821 -0.0558
  255TIP3    H224961   2.125   1.863  14.716  0.7319 -0.7956  0.5287
  256TIP3   OH224962   4.796   3.932  14.735  0.3851 -1.1143 -0.1886
  256TIP3    H124963   4.807   4.026  14.748 -0.5034 -1.1883  1.4020
  256TIP3    H224964   4.702   3.918  14.740  0.6266 -2.4027  2.4985
  257TIP3   OH224965   2.552   5.230  15.649  0.1505  0.5155 -0.1407
  257TIP3    H124966   2.623   5.273  15.696  0.5837 -0.4441  0.0991
  257TIP3    H224967   2.563   5.258  15.558 -0.2219  1.7520  0.1705
  258TIP3   OH224968   1.398   1.928  16.724  0.1594 -0.0443  0.4558
  258TIP3    H124969   1.480   1.973  16.706  1.8845 -2.4010  1.7765
  258TIP3    H224970   1.393   1.860  16.657 -1.3781  0.8059 -0.3375
  259TIP3   OH224971   0.009   5.019  15.918  0.3888  0.7218  0.0619
  259TIP3    H124972   0.003   5.084  15.848 -0.8042  1.5880  0.9269
  259TIP3    H224973  -0.082   4.999  15.939  0.7305  0.3809  1.2769
  260TIP3   OH224974   1.824   1.323  15.642 -0.4074 -0.1429 -0.1803
  260TIP3    H124975   1.773   1.392  15.599 -0.0751  0.7954  0.8528
  260TIP3    H224976   1.845   1.261  15.572  0.9390  1.7961 -1.6104
  261TIP3   OH224977   2.395   4.088  16.838  0.0032  0.0840 -0.2663
  261TIP3    H124978   2.348   4.088  16.755  0.8936  0.1761 -0.7920
  261TIP3    H224979   2.468   4.149  16.824  1.7653 -1.9280 -0.3822
  262TIP3   OH224980   0.371   2.808  15.036  0.0622 -0.3299  0.1917
  262TIP3    H124981   0.316   2.770  15.104 -0.5890  1.0969  0.4757
  262TIP3    H224982   0.313   2.817  14.960 -0.0666  0.9750  0.4244
  263TIP3   OH224983   3.112   4.349  15.264  0.1306 -0.2807 -0.0476
  263TIP3    H124984   3.086   4.307  15.182 -2.1533  1.5196 -0.3359
  263TIP3    H224985   3.058   4.307  15.331 -0.9460  0.9497 -0.0999
  264TIP3   OH224986   5.434   0.960  16.289 -0.5561 -0.2387  0.2012
  264TIP3    H124987   5.426   0.900  16.215  0.7740 -1.4393  0.9797
  264TIP3    H224988   5.479   1.036  16.253 -0.3502 -0.6121 -0.3501
  265TIP3   OH224989   4.276   2.145  17.969 -0.2345 -0.1191 -0.4602
  265TIP3    H124990   4.250   2.092  17.894 -2.5809 -0.5429  0.5464
  265TIP3    H224991   4.323   2.085  18.027 -0.3986 -0.3771 -0.5973
  266TIP3   OH224992   3.093   0.619  16.616  0.3911  0.4971  0.4458
  266TIP3    H124993   3.022   0.634  16.553 -0.2021  1.4573  1.3037
  266TIP3    H224994   3.171   0.609  16.562 -0.3768 -0.5307 -0.5137
  267TIP3   OH224995   1.558   6.077  16.534  0.1878 -0.1834 -0.0017
  267TIP3    H124996   1.509   6.038  16.607 -0.4486  0.2189 -0.2051
  267TIP3    H224997   1.495   6.080  16.462  0.6055  0.0623 -0.3607
  268TIP3   OH224998   3.272   1.362  16.801 -0.7536  0.4546 -0.5659
  268TIP3    H124999   3.316   1.408  16.729  0.1332 -0.8557 -0.8912
  268TIP3    H225000   3.233   1.285  16.760 -2.1681  0.8471 -0.0163
  269TIP3   OH225001   0.689   2.655  15.356  0.5026  0.2429  0.2514
  269TIP3    H125002   0.701   2.695  15.270 -0.5143  0.7820  0.3469
  269TIP3    H225003   0.739   2.711  15.415 -0.2592  0.9297  0.2639
  270TIP3   OH225004   4.984   1.552  17.642 -0.2468  0.0788  0.3121
  270TIP3    H125005   5.017   1.483  17.584 -0.0939  0.6629 -0.3179
  270TIP3    H225006   4.965   1.625  17.582 -1.1615  0.3024  0.8620
  271TIP3   OH225007   0.337   3.735  15.821  0.4112  0.4775 -0.0209
  271TIP3    H125008   0.419   3.704  15.781  0.7387  0.7973  0.4004
  271TIP3    H225009   0.315   3.668  15.886  0.8198  0.8481  0.4982
  272TIP3   OH225010   0.767   5.172  15.035 -0.4622  0.0155  0.1050
  272TIP3    H125011   0.683   5.164  15.081 -0.4942  0.2043  0.0780
  272TIP3    H225012   0.743   5.191  14.944 -0.4776 -2.4567 -0.4848
  273TIP3   OH225013   5.716   6.220  15.645  0.2984  0.3582  0.1274
  273TIP3    H125014   5.688   6.308  15.621 -1.4035 -0.3254 -0.5442
  273TIP3    H225015   5.689   6.165  15.571  1.7137 -0.6694  0.3411
  274TIP3   OH225016   2.596   5.182  14.933 -0.7984 -0.1942  0.2290
  274TIP3    H125017   2.678   5.134  14.920  0.2197  1.4343  0.3560
  274TIP3    H225018   2.528   5.124  14.898  0.3275 -1.8147  0.6185
  275TIP3   OH225019   3.354   1.096  15.425 -0.2939 -0.1236 -0.0603
  275TIP3    H125020   3.322   1.168  15.480  0.1693 -1.3398  1.9343
  275TIP3    H225021   3.276   1.046  15.403 -0.6549  1.0636 -1.6790
  276TIP3   OH225022   5.812   4.991  17.227 -0.3147  0.0436  0.0893
  276TIP3    H125023   5.867   5.054  17.180  0.2337 -1.0733 -0.8297
  276TIP3    H225024   5.864   4.911  17.227 -1.8763 -1.0125 -0.6890
  277TIP3   OH225025   4.950   6.627  13.839 -0.3065  0.3611  0.6673
  277TIP3    H125026   5.002   6.679  13.902 -1.3121  1.6136  0.4959
  277TIP3    H225027   4.990   6.646  13.754  0.7177 -0.9196  0.8273
  278TIP3   OH225028   5.946   0.579  15.914  0.7636 -0.0318 -0.4329
  278TIP3    H125029   5.935   0.674  15.913 -0.6554 -0.1803 -1.7429
  278TIP3    H225030   5.857   0.545  15.920  1.0444 -1.2894 -2.4705
  279TIP3   OH225031   1.288   2.934  16.432  0.8089  0.1309 -0.0431
  279TIP3    H125032   1.360   2.992  16.407 -0.7050  1.8786 -0.5799
  279TIP3    H225033   1.304   2.854  16.383  2.0879  0.6792 -0.5650
  280TIP3   OH225034   0.046   3.156  15.507  0.0307  0.5347 -1.0904
  280TIP3    H125035   0.132   3.148  15.465  0.4312 -0.4516 -0.1501
  280TIP3    H225036   0.032   3.070  15.548 -0.4289  1.3519  0.5725
  281TIP3   OH225037   3.304   0.781  16.210 -0.7136 -0.5237 -0.1022
  281TIP3    H125038   3.259   0.853  16.166 -2.9860 -1.5302  0.4103
  281TIP3    H225039   3.386   0.771  16.162 -0.3954  2.2461 -0.2865
  282TIP3   OH225040   3.262   5.484  17.016 -0.1289 -0.0665  0.3959
  282TIP3    H125041   3.311   5.419  17.067  1.3769  1.1747  0.6051
  282TIP3    H225042   3.279   5.461  16.925  0.2902 -0.0606  0.4694
  283TIP3   OH225043   4.252   1.691  15.421 -0.7254 -0.0864 -0.0853
  283TIP3    H125044   4.260   1.717  15.329  0.8863 -0.9335 -0.2204
  283TIP3    H225045   4.337   1.651  15.442 -1.0236  0.1974  1.8069
  284TIP3   OH225046   6.670   4.460   8.709 -0.6130 -0.4976  0.7917
  284TIP3    H125047   6.706   4.549   8.707 -0.5445 -0.5295  0.3745
  284TIP3    H225048   6.614   4.456   8.631 -0.2898 -0.9491  0.5767
  285TIP3   OH225049   3.412   1.569   8.840 -0.0091 -0.3439 -0.4815
  285TIP3    H125050   3.470   1.645   8.836 -0.0569 -0.3036 -0.4123
  285TIP3    H225051   3.471   1.495   8.857  0.0146 -0.2918 -0.3325
  286TIP3   OH225052   1.071   0.484   8.864 -0.4138  0.2762 -0.0277
  286TIP3    H125053   0.991   0.536   8.877 -0.7850 -0.4803  0.7515
  286TIP3    H225054   1.122   0.535   8.801 -0.5309  1.8600  1.1007
  287TIP3   OH225055   4.032   2.527   8.653  0.1723  0.0573  0.0856
  287TIP3    H125056   3.999   2.516   8.564 -1.7653 -0.8445  0.8406
  287TIP3    H225057   3.979   2.599   8.689  0.7986  0.2808  0.5651
  288TIP3   OH225058   0.743   2.442   7.304  0.3237  0.3295 -0.0892
  288TIP3    H125059   0.807   2.398   7.360 -0.2859 -0.9682 -0.3763
  288TIP3    H225060   0.658   2.405   7.329  0.0420 -0.3808 -1.9029
  289TIP3   OH225061   2.726   1.209   7.016 -0.3320  0.3166 -0.0895
  289TIP3    H125062   2.704   1.291   6.971  2.2347  0.9331 -0.3651
  289TIP3    H225063   2.742   1.236   7.107 -0.6889 -0.1007  0.0990
  290TIP3   OH225064   2.706   3.135   9.108 -0.1924 -0.0818  0.0930
  290TIP3    H125065   2.765   3.202   9.141  0.9514 -0.7423 -0.5510
  290TIP3    H225066   2.708   3.146   9.013  0.5256 -1.4236 -0.0741
  291TIP3   OH225067   5.544   6.035   8.743  0.5608  0.4954 -0.1630
  291TIP3    H125068   5.501   6.088   8.810  1.9212  2.6468 -0.8891
  291TIP3    H225069   5.476   6.017   8.679 -0.2725  0.1095  0.8070
  292TIP3   OH225070   1.268   1.425   8.154  0.4161  0.5783  0.1435
  292TIP3    H125071   1.235   1.421   8.243  0.7092  0.7865  0.2612
  292TIP3    H225072   1.218   1.496   8.113  0.1649  0.3734  0.0918
  293TIP3   OH225073   1.595   3.489   7.208  0.1932  0.0212  0.0472
  293TIP3    H125074   1.560   3.568   7.250 -0.1020  1.5154 -2.7042
  293TIP3    H225075   1.518   3.434   7.193 -0.1987  0.8538 -1.1533
  294TIP3   OH225076   0.856   3.603   9.236  0.0217  0.2325  0.3436
  294TIP3    H125077   0.920   3.612   9.306  0.1746 -2.0735  0.5477
  294TIP3    H225078   0.773   3.584   9.280 -0.3447  0.8653 -0.0371
  295TIP3   OH225079   3.922   2.122   8.227 -0.2613 -0.6081  0.4238
  295TIP3    H125080   3.849   2.107   8.287 -1.2143  0.8099 -0.3371
  295TIP3    H225081   3.901   2.071   8.149 -0.6379  0.0763  0.0673
  296TIP3   OH225082   0.215   3.245   8.698 -0.4946  0.6392  0.1332
  296TIP3    H125083   0.301   3.270   8.729  0.5449 -4.4688  2.3360
  296TIP3    H225084   0.226   3.232   8.604  0.3876  2.2832 -0.0213
  297TIP3   OH225085   1.235   1.256   8.360  0.2170 -0.0135 -0.3075
  297TIP3    H125086   1.313   1.307   8.382 -0.7535  1.6087 -0.5193
  297TIP3    H225087   1.270   1.174   8.324  1.8114  0.1257  0.8081
  298TIP3   OH225088   6.477   1.551   8.191  0.1977 -0.4362 -0.1524
  298TIP3    H125089   6.514   1.488   8.129  0.8301 -0.7057  0.4806
  298TIP3    H225090   6.389   1.567   8.159  1.1061  0.8837 -2.2078
  299TIP3   OH225091   1.566   2.869   8.932 -0.9428 -0.4131 -0.5248
  299TIP3    H125092   1.548   2.846   9.023  2.0819  1.2667  0.6619
  299TIP3    H225093   1.496   2.929   8.908 -1.6652 -0.7047  0.7790
  300TIP3   OH225094   0.551   6.200   9.668  0.2741  0.1695 -0.5846
  300TIP3    H125095   0.581   6.258   9.738 -0.8167  1.1158 -0.8681
  300TIP3    H225096   0.629   6.184   9.615  1.2894 -1.1811  1.2349
  301TIP3   OH225097   5.648   4.457   8.963 -1.0170  0.0079 -0.0658
  301TIP3    H125098   5.574   4.517   8.970 -2.0463 -1.0210 -1.6770
  301TIP3    H225099   5.722   4.506   9.000 -1.6410  2.5565 -1.9678
  302TIP3   OH225100   5.601   5.143   9.598  0.3515  0.0469 -0.8627
  302TIP3    H125101   5.657   5.082   9.647 -0.4484 -0.5233 -0.6229
  302TIP3    H225102   5.513   5.125   9.631  0.0018  0.7704 -1.3872
  303TIP3   OH225103   0.780   2.423   7.828  0.4467 -0.3285  0.0327
  303TIP3    H125104   0.824   2.503   7.859 -0.2957  0.0584  0.1079
  303TIP3    H225105   0.804   2.357   7.893  2.0940 -0.5091 -0.6926
  304TIP3   OH225106   3.206   4.389   9.498  0.2786  0.2875  0.0252
  304TIP3    H125107   3.283   4.354   9.541 -0.8543 -0.4868  1.5060
  304TIP3    H225108   3.187   4.470   9.545  0.1666  0.4700 -0.3293
  305TIP3   OH225109   3.327   4.796   8.557 -0.0185  0.2435  0.6351
  305TIP3    H125110   3.251   4.738   8.551 -0.5418  0.7134  2.3025
  305TIP3    H225111   3.370   4.771   8.639  0.1797  1.7035  0.9973
  306TIP3   OH225112   2.773   3.326   7.847 -0.9454  0.0166  0.0856
  306TIP3    H125113   2.689   3.295   7.812 -1.0019 -2.8988  2.3408
  306TIP3    H225114   2.749   3.382   7.921 -0.8150  2.0344 -1.3235
  307TIP3   OH225115   2.563   4.758   8.626 -0.0966 -0.1843  0.2331
  307TIP3    H125116   2.497   4.756   8.557  0.5978  2.1745 -0.5944
  307TIP3    H225117   2.618   4.682   8.609 -0.3298 -0.0094 -1.4527
  308TIP3   OH225118   4.403   4.000   9.883  0.0696 -0.5787 -0.2036
  308TIP3    H125119   4.480   4.035   9.839 -0.9385 -0.9184 -2.3606
  308TIP3    H225120   4.362   4.076   9.924  0.2709  0.0099 -1.0781
  309TIP3   OH225121   6.419   4.131   9.075 -0.2568  0.3428 -0.0088
  309TIP3    H125122   6.468   4.070   9.128 -1.9378  0.9110  2.3678
  309TIP3    H225123   6.486   4.181   9.027  1.3561 -0.2116  1.5618
  310TIP3   OH225124   2.839   0.759   6.952 -0.1360 -0.8006 -0.2121
  310TIP3    H125125   2.771   0.752   6.885 -1.9079 -0.3253  1.4395
  310TIP3    H225126   2.805   0.709   7.026  0.9925  0.0241  0.9087
  311TIP3   OH225127   1.081   4.549   7.664 -0.1131 -0.5746 -0.0098
  311TIP3    H125128   1.096   4.603   7.741 -1.3352  1.3284 -1.0000
  311TIP3    H225129   1.017   4.484   7.692 -0.6508  0.1842  0.5596
  312TIP3   OH225130   5.631   5.987   8.065  0.0023 -0.6094 -0.1005
  312TIP3    H125131   5.697   5.980   8.134 -0.0533  1.9383  0.3100
  312TIP3    H225132   5.602   5.897   8.050  2.4481 -1.6364  0.7698
  313TIP3   OH225133   6.193   5.967  10.201  0.3550 -0.2755 -0.3020
  313TIP3    H125134   6.191   6.000  10.291  0.9707 -0.1601 -0.3319
  313TIP3    H225135   6.247   5.888  10.205  1.9027  0.7312 -0.9006
  314TIP3   OH225136   1.448   0.814   9.228 -0.7291  0.0176 -0.0830
  314TIP3    H125137   1.425   0.861   9.309 -0.0021  0.3508 -0.0534
  314TIP3    H225138   1.543   0.804   9.234 -0.8808 -1.5352 -0.0657
  315TIP3   OH225139   4.677   4.636   8.588 -0.2574  0.7204  0.2387
  315TIP3    H125140   4.701   4.707   8.648  1.2242 -0.5717  1.2613
  315TIP3    H225141   4.756   4.623   8.534 -0.7058  0.1985 -0.3023
  316TIP3   OH225142   3.501   3.036   8.167 -0.0883  0.3287 -0.5235
  316TIP3    H125143   3.455   2.961   8.129  0.9191 -0.4899 -0.2070
  316TIP3    H225144   3.492   3.105   8.102 -0.4996 -0.2700 -1.1209
  317TIP3   OH225145   4.485   1.107   9.558  0.0408  0.5345 -0.2703
  317TIP3    H125146   4.532   1.061   9.627 -0.1626 -0.4323 -0.7606
  317TIP3    H225147   4.542   1.181   9.536  0.5280  0.3432  0.3049
  318TIP3   OH225148   3.202   2.667   7.078  0.0335  0.8357  0.3236
  318TIP3    H125149   3.202   2.638   7.169 -0.4722 -0.4429 -0.0641
  318TIP3    H225150   3.288   2.639   7.045  0.2143  1.2937  0.3948
  319TIP3   OH225151   3.026   4.928   9.344 -0.2134  0.0869  0.0110
  319TIP3    H125152   3.072   5.011   9.359 -0.8106  0.4597 -0.1950
  319TIP3    H225153   3.012   4.892   9.431  0.3766  0.0212  0.0807
  320TIP3   OH225154   3.544   1.529   7.242 -0.5222 -0.6375  0.0237
  320TIP3    H125155   3.563   1.438   7.267 -1.3977 -0.4324  1.5282
  320TIP3    H225156   3.598   1.582   7.300  1.1018 -0.1454 -1.8093
  321TIP3   OH225157   1.178   0.721   7.798  0.6300  0.1242 -0.6188
  321TIP3    H125158   1.190   0.802   7.848  0.8143 -0.1978 -0.1315
  321TIP3    H225159   1.227   0.735   7.717  1.1668  0.2655 -0.2719
  322TIP3   OH225160   3.109   3.251   7.690 -0.3963 -0.2375 -0.7237
  322TIP3    H125161   3.178   3.240   7.624  0.4066 -0.7228  0.1503
  322TIP3    H225162   3.056   3.324   7.659  0.2668 -0.1315 -1.6424
  323TIP3   OH225163   2.216   1.588  17.008  0.0264  0.3046  0.1119
  323TIP3    H125164   2.249   1.668  16.965  1.2797  0.1531  0.7387
  323TIP3    H225165   2.157   1.549  16.943  0.1173  1.2603 -0.5749
  324TIP3   OH225166   3.545   4.271  15.707  1.0623  0.0470  0.2905
  324TIP3    H125167   3.451   4.271  15.690  1.3714  0.3876 -1.5496
  324TIP3    H225168   3.551   4.290  15.801 -0.7506 -2.4577  1.0298
  325TIP3   OH225169   1.459   2.211  14.838  0.4870 -0.0519  0.2777
  325TIP3    H125170   1.529   2.235  14.777  1.2619 -1.9313  0.3573
  325TIP3    H225171   1.421   2.132  14.800 -0.3881 -0.0904  1.2020
  326TIP3   OH225172   2.410   6.411  15.345  0.1889 -0.2399 -0.0418
  326TIP3    H125173   2.424   6.316  15.347 -1.0371 -0.4332  0.0847
  326TIP3    H225174   2.450   6.438  15.262 -0.0161 -0.9717 -0.3945
  327TIP3   OH225175   6.024   6.324  16.101 -0.2146  0.0157  0.1516
  327TIP3    H125176   6.087   6.298  16.169  1.6460  0.3395 -1.3445
  327TIP3    H225177   6.044   6.416  16.084 -1.5859  0.3230  0.0967
  328TIP3   OH225178   0.707   6.398  17.693  0.3162  0.4316  0.4338
  328TIP3    H125179   0.799   6.412  17.715  0.1485  1.2523  0.6385
  328TIP3    H225180   0.667   6.485  17.700 -0.4831  0.0750  0.3934
  329TIP3   OH225181   1.681   3.496  16.148 -0.2597  0.0780 -0.3163
  329TIP3    H125182   1.747   3.506  16.216 -2.2259  3.8353  1.3904
  329TIP3    H225183   1.708   3.557  16.079  0.3691 -1.8012 -1.8022
  330TIP3   OH225184   6.694   4.351  14.752 -0.5340 -0.3070 -0.5769
  330TIP3    H125185   6.780   4.363  14.792 -0.4698 -1.0850 -0.4589
  330TIP3    H225186   6.709   4.357  14.658 -0.6502  1.3264 -0.5156
  331TIP3   OH225187   4.963   2.000  17.639  0.7149 -0.0266 -0.2033
  331TIP3    H125188   4.983   1.999  17.546 -0.1775  2.3992 -0.4864
  331TIP3    H225189   4.910   2.078  17.652  0.1956 -0.6873  2.2338
  332TIP3   OH225190   0.335   1.667  14.906  0.0822  0.3030 -0.5458
  332TIP3    H125191   0.303   1.642  14.993  0.7700 -0.1237 -0.3997
  332TIP3    H225192   0.386   1.591  14.877 -1.6133 -0.2855 -2.1135
  333TIP3   OH225193   1.577   0.039  15.841  0.6070  0.0425  0.3590
  333TIP3    H125194   1.582   0.114  15.900  1.0260 -0.6517  1.2253
  333TIP3    H225195   1.617   0.071  15.759  1.4586  0.5443  0.9496
  334TIP3   OH225196   3.960   0.652  17.473 -0.2956  0.2324 -0.5219
  334TIP3    H125197   3.901   0.722  17.445 -0.5632  0.2084 -0.0354
  334TIP3    H225198   4.035   0.697  17.511  0.2189  0.2696 -1.5592
  335TIP3   OH225199   4.943   1.992  16.944  0.5227 -0.3653  0.4418
  335TIP3    H125200   4.975   2.083  16.938 -1.1288  0.2560  0.5803
  335TIP3    H225201   4.848   2.001  16.947  0.3553 -2.1059  0.8017
  336TIP3   OH225202   1.166   3.112  15.915 -0.3356  0.2235  0.2398
  336TIP3    H125203   1.134   3.058  15.843 -0.5572 -0.6094  0.9351
  336TIP3    H225204   1.253   3.141  15.887  0.2479 -1.3934  0.2770
  337TIP3   OH225205   5.438   5.619  16.661  0.6636  0.0543  0.0369
  337TIP3    H125206   5.383   5.570  16.722  0.1877  1.0175  0.3910
  337TIP3    H225207   5.520   5.633  16.708  0.1999  1.0382  0.5903
  338TIP3   OH225208   5.122   0.414  16.832  0.1159 -0.0540  0.0508
  338TIP3    H125209   5.069   0.435  16.909 -0.2114  0.2574 -0.2622
  338TIP3    H225210   5.068   0.436  16.757  0.1542 -1.0468 -0.2886
  339TIP3   OH225211   2.539   6.069  17.442 -0.0601  0.0575 -0.0722
  339TIP3    H125212   2.546   5.991  17.387 -2.4945  0.4920 -1.0868
  339TIP3    H225213   2.625   6.112  17.433  0.8749 -1.7962 -0.5044
  340TIP3   OH225214   2.579   0.336  17.350 -0.6944 -0.8225 -0.1107
  340TIP3    H125215   2.530   0.339  17.431  0.3078 -3.7509  0.7440
  340TIP3    H225216   2.644   0.407  17.358 -0.0984 -1.5399  2.0455
  341TIP3   OH225217   6.347   1.403  15.120  0.0464  1.0555  0.7718
  341TIP3    H125218   6.332   1.352  15.040 -2.9812  0.6781  1.4425
  341TIP3    H225219   6.364   1.492  15.088  3.8162  0.1121 -0.3493
  342TIP3   OH225220   6.748   6.649  16.418  0.1393  0.3613 -1.0288
  342TIP3    H125221   6.787   6.641  16.331  2.6978 -0.3254  0.0791
  342TIP3    H225222   6.817   6.687  16.473 -0.8794 -0.5394  1.0153
  343TIP3   OH225223   6.541   6.586  17.455 -0.8644  0.3260 -0.1972
  343TIP3    H125224   6.627   6.598  17.414 -1.4527  2.0082 -1.0006
  343TIP3    H225225   6.559   6.588  17.549  0.0427  0.0641 -0.3537
  344TIP3   OH225226   0.617   1.065  17.353  0.0462  0.2013  0.1067
  344TIP3    H125227   0.647   1.051  17.263 -0.0037  1.8512 -0.1853
  344TIP3    H225228   0.693   1.043  17.407  0.7833  1.2681 -0.4629
  345TIP3   OH225229   5.923   6.485  17.089  0.0055  0.7334 -0.6191
  345TIP3    H125230   5.937   6.580  17.092  1.3495  0.5881 -1.4439
  345TIP3    H225231   5.841   6.471  17.137  0.0803  2.2461 -0.0011
  346TIP3   OH225232   2.766   0.861  16.793  0.3547 -0.3238  0.0556
  346TIP3    H125233   2.706   0.787  16.805  1.6050 -1.1109  1.9129
  346TIP3    H225234   2.710   0.938  16.802 -0.7720 -1.0238 -0.7105
  347TIP3   OH225235   2.335   6.554  15.829  0.3324 -0.0115  0.1438
  347TIP3    H125236   2.311   6.629  15.883 -1.5486  0.8881 -1.8011
  347TIP3    H225237   2.322   6.478  15.886 -0.5569  0.9489  1.2709
  348TIP3   OH225238   3.658   4.698  17.574 -0.6936 -0.0624  0.3217
  348TIP3    H125239   3.646   4.679  17.667  1.5981 -0.2046  0.6418
  348TIP3    H225240   3.705   4.781  17.572 -1.7792  0.5641 -0.7769
  349TIP3   OH225241   3.578   2.679  17.522  0.1790 -0.1915  0.1475
  349TIP3    H125242   3.636   2.698  17.449  0.0294  0.4131  0.1808
  349TIP3    H225243   3.496   2.651  17.481 -0.0013  0.4375  0.0823
  350TIP3   OH225244   6.587   2.838  16.197 -0.1423 -0.4936  0.1945
  350TIP3    H125245   6.617   2.921  16.234 -1.9282 -0.3671  1.4942
  350TIP3    H225246   6.579   2.855  16.103  1.7883  0.0447  0.0957
  351TIP3   OH225247   2.549   0.593  16.907 -0.3651  0.3283 -0.4424
  351TIP3    H125248   2.502   0.531  16.962 -0.8783  1.6331  0.6802
  351TIP3    H225249   2.536   0.562  16.818  1.5108 -2.5778  0.1488
  352TIP3   OH225250   1.183   5.546  16.401  0.2931 -0.3913  0.0312
  352TIP3    H125251   1.089   5.556  16.418  0.2912  1.6004 -0.9037
  352TIP3    H225252   1.203   5.616  16.339  2.7825  0.4210  1.6270
  353TIP3   OH225253   0.490   2.856  17.687  0.2570  0.1467 -0.4632
  353TIP3    H125254   0.585   2.851  17.699  0.2151  0.2653 -0.0559
  353TIP3    H225255   0.477   2.931  17.629  0.3189  1.1321  0.7630
  354TIP3   OH225256   2.394   2.689  15.498  0.1949  0.3701 -0.6821
  354TIP3    H125257   2.340   2.767  15.510 -1.3810 -0.7304 -0.2280
  354TIP3    H225258   2.414   2.688  15.404 -1.6215  0.1954 -1.1047
  355TIP3   OH225259   4.371   2.315  18.171 -0.5864  0.4633  0.3859
  355TIP3    H125260   4.298   2.304  18.233 -1.3825  0.1158 -0.5785
  355TIP3    H225261   4.339   2.277  18.090  1.3007 -1.2605  0.3699
  356TIP3   OH225262   1.918   0.725  16.268 -0.3423  0.3258  0.1024
  356TIP3    H125263   1.984   0.783  16.304 -0.3303  1.9095 -2.2736
  356TIP3    H225264   1.965   0.643  16.251  0.7674  1.0906 -0.6219
  357TIP3   OH225265   2.241   3.177  15.510  0.2982 -0.1083  0.0541
  357TIP3    H125266   2.170   3.227  15.469  1.2004  0.8752 -0.3551
  357TIP3    H225267   2.313   3.182  15.447  0.0132 -3.1839 -0.7154
  358TIP3   OH225268   5.644   2.415  17.788  0.1118 -0.5097 -0.5055
  358TIP3    H125269   5.692   2.495  17.767  1.4826 -1.1355  0.0904
  358TIP3    H225270   5.669   2.396  17.879  0.2104 -1.8673 -0.7952
  359TIP3   OH225271   6.116   5.776  15.500 -0.1650 -0.0172 -0.4733
  359TIP3    H125272   6.073   5.691  15.496  1.5929 -0.9163 -1.8186
  359TIP3    H225273   6.050   5.835  15.536 -1.9837 -1.6019 -1.0304
  360TIP3   OH225274   4.269   3.587  16.485  0.4309 -0.1850 -0.0351
  360TIP3    H125275   4.316   3.615  16.407 -1.6553 -1.0916 -1.7014
  360TIP3    H225276   4.204   3.655  16.500  0.1583 -0.5157  0.3128
  361TIP3   OH225277   2.065   0.643  17.508  0.2829 -0.0914 -0.5055
  361TIP3    H125278   2.090   0.727  17.547 -2.4419  1.8372 -2.5284
  361TIP3    H225279   2.040   0.588  17.583  1.9427  0.8947  0.8473
  362TIP3   OH225280   6.599   3.500  18.054  0.6512  0.4547  0.3517
  362TIP3    H125281   6.532   3.435  18.073  0.3741  0.0536 -1.7971
  362TIP3    H225282   6.552   3.583  18.051  0.3114  0.2357 -0.6871
  363TIP3   OH225283   6.424   0.174  16.300 -0.9800  0.1104 -0.0064
  363TIP3    H125284   6.482   0.207  16.231 -1.8350  0.0313 -0.7711
  363TIP3    H225285   6.464   0.207  16.381  0.3468 -0.2640 -0.4730
  364TIP3   OH225286   0.971   0.702  14.589 -0.3993  0.6962 -0.0188
  364TIP3    H125287   0.919   0.723  14.511  1.8019 -1.6145 -2.2872
  364TIP3    H225288   1.034   0.774  14.596 -1.1454  1.3491  0.2053
  365TIP3   OH225289   4.579   3.878  17.308  0.7181  0.2679 -0.3625
  365TIP3    H125290   4.540   3.850  17.225 -0.7929  0.2757  0.3137
  365TIP3    H225291   4.589   3.973  17.299  0.7855  0.2364 -0.6233
  366TIP3   OH225292   2.338   0.085  17.033  0.1933 -0.2284 -0.9023
  366TIP3    H125293   2.392   0.156  17.069  1.1606 -1.7214  0.7101
  366TIP3    H225294   2.248   0.118  17.043  0.6374  1.0537 -0.8473
  367TIP3   OH225295   5.542   5.327  17.263 -0.9854  0.1815  0.3842
  367TIP3    H125296   5.494   5.410  17.261 -1.3511 -0.0302 -0.6142
  367TIP3    H225297   5.474   5.260  17.267 -0.8777 -0.1487 -1.7926
  368TIP3   OH225298   3.763   2.762  17.299  0.3826  0.2318 -0.4611
  368TIP3    H125299   3.831   2.802  17.354  1.4332 -0.0778 -1.4864
  368TIP3    H225300   3.783   2.668  17.302 -1.2076 -0.0955  0.7976
  369TIP3   OH225301   2.250   5.186  15.857 -0.0475  0.4511  0.1190
  369TIP3    H125302   2.309   5.261  15.851 -0.3143  0.7242  0.7659
  369TIP3    H225303   2.254   5.145  15.771  2.0763 -0.2970  0.5198
  370TIP3   OH225304   3.082   1.314  15.402  0.3263 -0.3048  0.6862
  370TIP3    H125305   3.041   1.312  15.315  1.8158 -0.3412 -0.0317
  370TIP3    H225306   3.023   1.261  15.456 -0.3688 -0.6963 -0.4023
  371TIP3   OH225307   6.005   6.429  15.645 -0.2834  0.3507  0.7818
  371TIP3    H125308   5.981   6.516  15.677 -0.8057  0.6704 -0.4112
  371TIP3    H225309   5.943   6.412  15.575  1.6111  0.2877 -0.9808
  372TIP3   OH225310   1.111   2.052  17.452 -0.2184 -0.2957 -0.0417
  372TIP3    H125311   1.065   2.003  17.384  1.0727 -0.4102 -0.8596
  372TIP3    H225312   1.195   2.075  17.413  0.4452 -0.1056  1.4193
  373TIP3   OH225313   6.026   5.544  16.228 -0.5289  0.4006 -0.0924
  373TIP3    H125314   5.991   5.573  16.143 -2.6740 -1.1641  0.1785
  373TIP3    H225315   5.993   5.608  16.291  0.4641  1.1521 -0.3047
  374TIP3   OH225316   1.209   6.310  15.339  0.0410 -0.2244  0.0526
  374TIP3    H125317   1.295   6.272  15.356 -0.4158 -1.1813  0.2778
  374TIP3    H225318   1.195   6.372  15.410 -0.8564 -2.4902  1.9634
  375TIP3   OH225319   0.883   5.495  16.701  0.2822  0.0674 -0.0866
  375TIP3    H125320   0.795   5.517  16.671  0.9409  2.1100 -0.7377
  375TIP3    H225321   0.941   5.539  16.639  1.7282  1.4241  2.0541
  376TIP3   OH225322   4.023   1.039  14.970 -0.5333  0.1445  0.1055
  376TIP3    H125323   4.082   1.039  15.046 -3.0137  1.3177  2.1670
  376TIP3    H225324   4.010   1.131  14.950 -0.8356 -0.1289 -1.0414
  377TIP3   OH225325   2.160   3.012  16.372  0.1283  0.0370  0.1740
  377TIP3    H125326   2.115   2.932  16.344  2.1696 -1.7360  1.6236
  377TIP3    H225327   2.118   3.035  16.455 -0.2206  0.2477 -0.0616
  378TIP3   OH225328   4.336   5.759  15.328 -0.1288  0.4569 -0.9283
  378TIP3    H125329   4.365   5.678  15.371  1.4008  1.5736  0.3011
  378TIP3    H225330   4.260   5.734  15.276  0.1904 -1.7166 -0.4249
  379TIP3   OH225331   1.642   5.734  16.626  0.3841  0.3667  0.0543
  379TIP3    H125332   1.685   5.687  16.697 -0.0493  0.0770  0.1299
  379TIP3    H225333   1.593   5.667  16.579 -0.1294  0.7132  0.0800
  380TIP3   OH225334   1.062   6.474  17.728  0.4505 -0.1536 -0.6702
  380TIP3    H125335   0.978   6.518  17.724  0.8050  0.6217  0.0943
  380TIP3    H225336   1.052   6.398  17.671 -0.4378  0.4677 -1.3632
  381TIP3   OH225337   0.670   3.122  16.029  0.3617  0.1635  0.0875
  381TIP3    H125338   0.690   3.199  15.975  1.2218 -0.2125 -0.1579
  381TIP3    H225339   0.691   3.048  15.973  0.3947 -0.2412  0.6302
  382TIP3   OH225340   3.578   2.486  17.096  0.0139  0.1375  0.2245
  382TIP3    H125341   3.548   2.550  17.031 -0.7553 -0.7974 -0.3770
  382TIP3    H225342   3.637   2.535  17.153 -1.7956  1.7761  0.7670
  383TIP3   OH225343   1.658   0.231  15.480 -0.1248  0.0919  0.2588
  383TIP3    H125344   1.689   0.245  15.390 -0.3196 -1.2421 -0.0365
  383TIP3    H225345   1.730   0.259  15.535  0.7947 -0.9677 -0.3672
  384TIP3   OH225346   4.228   1.552  14.717  0.1834 -0.3535 -0.1586
  384TIP3    H125347   4.178   1.609  14.774  0.0152  0.0598 -0.7138
  384TIP3    H225348   4.224   1.466  14.759  0.6648  0.0925  0.8161
  385TIP3   OH225349   6.124   3.205  15.764  0.0525  0.2209 -0.0900
  385TIP3    H125350   6.157   3.266  15.830  1.1897 -0.0376 -0.3927
  385TIP3    H225351   6.043   3.171  15.802 -1.1060  2.5486 -0.2938
  386TIP3   OH225352   5.620   3.402  15.850  0.1644  0.2623 -0.0086
  386TIP3    H125353   5.590   3.334  15.910  0.2536 -3.1972 -3.4632
  386TIP3    H225354   5.700   3.436  15.890  0.7370 -2.5153  1.4585
  387TIP3   OH225355   2.114   5.338  15.434 -0.0636  0.5570 -0.5790
  387TIP3    H125356   2.182   5.287  15.479 -1.5513  0.8746  2.2818
  387TIP3    H225357   2.051   5.273  15.405 -0.7049  0.5340  0.7968
  388TIP3   OH225358   0.318   5.192  16.096 -0.6137 -0.1259  0.1191
  388TIP3    H125359   0.337   5.122  16.034 -0.0306  0.0753  0.0645
  388TIP3    H225360   0.227   5.217  16.077 -0.9279 -1.0628  0.3444
  389TIP3   OH225361   2.216   1.711  15.770 -0.4165 -0.4290 -0.5547
  389TIP3    H125362   2.240   1.651  15.699 -1.3336 -1.4596 -0.0222
  389TIP3    H225363   2.291   1.770  15.777  1.3641 -2.6066  0.0953
  390TIP3   OH225364   3.267   3.107  15.862  0.0678  0.0798  0.8450
  390TIP3    H125365   3.315   3.048  15.803  0.5434 -0.7694  2.0240
  390TIP3    H225366   3.329   3.177  15.881 -0.1779  0.4924  0.1479
  391TIP3   OH225367   1.976   1.125  15.918  0.5253 -0.6605 -0.2647
  391TIP3    H125368   1.941   1.091  16.000  2.3012  0.1930  0.9302
  391TIP3    H225369   1.958   1.219  15.920  2.6319 -0.2023  0.3570
  392TIP3   OH225370   3.252   6.615  16.594 -0.0601  0.7905 -0.3186
  392TIP3    H125371   3.253   6.520  16.584  0.3266  0.7958 -0.3528
  392TIP3    H225372   3.206   6.648  16.517  1.7370  0.7608 -1.4451
  393TIP3   OH225373   3.090   6.547  15.785  0.2807 -0.0793  0.1053
  393TIP3    H125374   3.025   6.502  15.840  1.6030 -0.2414  1.6439
  393TIP3    H225375   3.039   6.605  15.729 -1.2055 -0.4147  1.0443
  394TIP3   OH225376   1.839   0.873  15.476 -0.1204  0.6219 -0.0253
  394TIP3    H125377   1.895   0.808  15.434  1.4683  0.5272  2.0813
  394TIP3    H225378   1.777   0.822  15.527 -0.3550  0.7475 -0.1822
  395TIP3   OH225379   4.417   2.975  17.788 -0.4867  0.3082  0.0795
  395TIP3    H125380   4.424   2.917  17.713 -0.7448 -0.4090  0.5966
  395TIP3    H225381   4.461   3.056  17.761  1.2244 -0.6535 -0.1083
  396TIP3   OH225382   3.018   1.368  14.932 -0.1985  0.2912 -0.2346
  396TIP3    H125383   3.061   1.432  14.875  0.2912 -0.7442 -1.0801
  396TIP3    H225384   3.019   1.408  15.019  1.4234  0.8137 -0.4572
  397TIP3   OH225385   0.494   1.112  17.911  0.6105 -0.9280  0.3679
  397TIP3    H125386   0.475   1.195  17.955 -0.5907 -0.0673 -1.6008
  397TIP3    H225387   0.589   1.113  17.898  0.6542  0.0018  0.6593
  398TIP3   OH225388   1.580   1.494  17.510  0.0131  0.3208  0.5475
  398TIP3    H125389   1.559   1.466  17.421  0.7464 -1.0634  0.7920
  398TIP3    H225390   1.630   1.575  17.499 -1.6766  1.3192 -0.1886
  399TIP3   OH225391   6.468   3.100  15.721  0.1156  0.2114 -0.0480
  399TIP3    H125392   6.466   3.195  15.712 -2.1147  0.2687  0.5591
  399TIP3    H225393   6.477   3.068  15.632  0.1311  0.9626 -0.3282
  400TIP3   OH225394   1.672   2.213  15.690  0.2108 -0.2110  0.4392
  400TIP3    H125395   1.746   2.236  15.635 -0.2251 -1.5382 -0.7714
  400TIP3    H225396   1.701   2.231  15.779  2.1363 -1.0388  0.0162
  401TIP3   OH225397   5.265   0.680  16.431 -0.0234 -0.4863  0.1466
  401TIP3    H125398   5.353   0.713  16.413 -0.3175  1.2407  1.6336
  401TIP3    H225399   5.278   0.610  16.495  0.3552 -1.3489 -0.8287
  402TIP3   OH225400   0.518   6.551  17.237  0.2102 -0.0916  0.4614
  402TIP3    H125401   0.426   6.537  17.262  0.0967 -0.8690 -0.3421
  402TIP3    H225402   0.561   6.468  17.256  0.3834 -0.2909 -0.7081
  403TIP3   OH225403   6.722   0.796  16.454  0.1950  0.5717  0.3133
  403TIP3    H125404   6.630   0.817  16.468  0.7061  2.6463  0.8818
  403TIP3    H225405   6.750   0.753  16.535  0.0491  1.1904  0.6971
  404TIP3   OH225406   0.974   3.225  17.658  0.0373  0.1785  0.3949
  404TIP3    H125407   0.966   3.256  17.748  3.0099  1.7781  0.2156
  404TIP3    H225408   1.047   3.164  17.660 -0.6564 -0.7356 -0.7627
  405TIP3   OH225409   4.893   4.586  16.822 -0.2117 -0.3838  0.0089
  405TIP3    H125410   4.850   4.666  16.851  1.4430  0.5553 -0.0189
  405TIP3    H225411   4.932   4.549  16.901  2.9097  1.3187 -0.5807
  406TIP3   OH225412   4.077   5.184  15.224 -0.4265 -0.0602 -0.4230
  406TIP3    H125413   4.004   5.209  15.167 -0.7536 -0.8016 -0.3341
  406TIP3    H225414   4.042   5.194  15.313 -0.5667 -0.8401 -0.3857
  407TIP3   OH225415   4.906   4.653  17.364  0.1300 -0.1014 -0.0490
  407TIP3    H125416   4.919   4.682  17.455 -0.3273  3.3400 -0.9628
  407TIP3    H225417   4.874   4.563  17.373 -1.0669  0.4897  3.2717
  408TIP3   OH225418   2.564   4.315  16.810 -0.1381  0.4106  0.5291
  408TIP3    H125419   2.495   4.379  16.828  0.3160  0.8666  0.6505
  408TIP3    H225420   2.645   4.364  16.820  0.2102 -0.1764  0.5707
  409TIP3   OH225421   3.301   2.642  17.298  0.0647  0.0817 -0.3423
  409TIP3    H125422   3.290   2.554  17.261  1.1915 -0.6560  0.9795
  409TIP3    H225423   3.298   2.629  17.393 -0.4882  1.5895 -0.1348
  410TIP3   OH225424   2.026   6.579  15.244  0.0409  0.0700  0.1981
  410TIP3    H125425   1.972   6.657  15.259 -0.8646 -0.3224 -0.9120
  410TIP3    H225426   2.027   6.534  15.328 -0.0998  0.8687  0.6351
  411TIP3   OH225427   0.990   2.179  16.965 -0.4395  0.2224 -0.2786
  411TIP3    H125428   0.904   2.209  16.936  0.6009  2.5959 -1.2597
  411TIP3    H225429   1.030   2.143  16.887 -0.0153  0.5332 -0.2098
  412TIP3   OH225430   1.761   5.171  17.309  0.0209  0.4621  0.7673
  412TIP3    H125431   1.730   5.131  17.227  1.7587 -0.6423  0.5914
  412TIP3    H225432   1.753   5.102  17.374  0.2014  0.8019  1.1576
  413TIP3   OH225433   4.256   6.096  17.522  0.2368 -0.2869 -0.0184
  413TIP3    H125434   4.278   6.009  17.555 -1.1220 -0.2599  1.0121
  413TIP3    H225435   4.209   6.138  17.594  2.4117  2.0013  0.2197
  414TIP3   OH225436   0.010   3.290  18.040 -0.6782  0.1257 -0.3912
  414TIP3    H125437   0.064   3.298  18.118  1.8274  2.9829 -2.1927
  414TIP3    H225438  -0.060   3.355  18.051 -1.7789 -1.1514  0.4331
  415TIP3   OH225439   0.103   0.810  17.735 -0.1495 -0.5732 -0.0502
  415TIP3    H125440   0.026   0.802  17.791  1.2867 -1.3677  1.9561
  415TIP3    H225441   0.073   0.782  17.648 -2.2783 -0.0835  0.4842
  416TIP3   OH225442   5.563   3.499  17.172  0.4739  0.7107 -0.0413
  416TIP3    H125443   5.617   3.445  17.230  0.9722 -0.0361 -1.1715
  416TIP3    H225444   5.482   3.449  17.160  0.1064  1.1546  0.4772
  417TIP3   OH225445   4.776   0.652  16.711 -0.5951  0.1701  0.3152
  417TIP3    H125446   4.803   0.743  16.697 -4.2248  1.0981 -1.9648
  417TIP3    H225447   4.698   0.659  16.766 -0.0112 -1.7897  1.5004
  418TIP3   OH225448   0.415   4.942  17.910 -0.1122  0.2910  0.0076
  418TIP3    H125449   0.493   4.996  17.898 -0.4030  0.4386 -1.3584
  418TIP3    H225450   0.348   4.984  17.856 -0.7290 -0.6508  0.0073
  419TIP3   OH225451   6.305   1.827  15.614 -0.1755 -0.4317 -0.3712
  419TIP3    H125452   6.214   1.797  15.612 -0.3169 -0.0286 -0.0313
  419TIP3    H225453   6.318   1.857  15.704  0.9783 -2.5913  0.2696
  420TIP3   OH225454   1.604   5.355  14.567 -0.2999 -0.3985  0.1322
  420TIP3    H125455   1.511   5.373  14.584 -0.0391 -0.4139  1.6529
  420TIP3    H225456   1.651   5.428  14.607  0.4512 -1.4272  1.1732
  421TIP3   OH225457   0.334   2.959  17.460 -0.2013  0.0060 -0.3943
  421TIP3    H125458   0.397   2.955  17.388  0.0581 -2.1404 -0.0980
  421TIP3    H225459   0.253   2.923  17.424 -0.1558 -0.7990  0.2773
  422TIP3   OH225460   0.133   2.608  17.686  0.2368 -0.6673  0.2172
  422TIP3    H125461   0.134   2.530  17.742  4.2126 -0.5541  0.6008
  422TIP3    H225462   0.182   2.674  17.736  0.7149  0.6459 -1.8625
  423TIP3   OH225463   3.680   5.176  17.233  0.2117  0.0318  0.0153
  423TIP3    H125464   3.692   5.083  17.211 -1.0008  0.1561 -1.3409
  423TIP3    H225465   3.649   5.175  17.323 -0.9109 -0.9885 -0.3470
  424TIP3   OH225466   2.868   1.757  16.201 -0.5522  0.4921 -0.2729
  424TIP3    H125467   2.839   1.847  16.217 -0.4134  0.3361  0.9289
  424TIP3    H225468   2.932   1.740  16.270  0.1130 -0.2208 -1.0508
  425TIP3   OH225469   5.622   4.898  15.976 -0.4795 -0.2922 -0.6309
  425TIP3    H125470   5.564   4.839  15.928  0.4232 -1.0954 -0.7638
  425TIP3    H225471   5.705   4.852  15.981  0.4705  1.2559 -1.3410
  426TIP3   OH225472   6.310   4.742  17.889  0.1389  0.2286 -0.5458
  426TIP3    H125473   6.235   4.714  17.941  0.1056  1.6600  0.2315
  426TIP3    H225474   6.328   4.667  17.832 -0.2628 -1.1349  1.0135
  427TIP3   OH225475   3.861   5.263  15.075  0.2873 -0.2835  0.2641
  427TIP3    H125476   3.843   5.200  15.004  3.0659 -0.6746 -0.2102
  427TIP3    H225477   3.843   5.348  15.036  2.3291 -0.4453 -1.2496
  428TIP3   OH225478   2.786   6.099  15.488 -0.1627 -0.1397 -0.2612
  428TIP3    H125479   2.779   6.078  15.395  0.8544 -0.0909 -0.3580
  428TIP3    H225480   2.805   6.193  15.491 -0.3473 -0.1076  0.0020
  429TIP3   OH225481   1.809   5.109  14.747  0.3471  0.3901 -0.0823
  429TIP3    H125482   1.807   5.034  14.806  0.5335  0.6646  0.2747
  429TIP3    H225483   1.722   5.149  14.757 -0.3880 -0.7369 -1.5388
  430TIP3   OH225484   6.031   2.652  16.876 -0.1376 -0.5166 -0.6525
  430TIP3    H125485   5.989   2.630  16.959  0.0248  1.8680  0.1498
  430TIP3    H225486   6.125   2.642  16.893 -0.0254  1.1131 -0.1011
  431TIP3   OH225487   4.586   2.290  17.014  0.0531 -0.4202  0.4017
  431TIP3    H125488   4.667   2.278  16.965 -0.4855  2.0865 -1.3366
  431TIP3    H225489   4.524   2.229  16.974  0.3520 -0.3189 -0.2210
  432TIP3   OH225490   1.920   0.411  16.962  0.0666 -0.6287  0.5507
  432TIP3    H125491   1.841   0.428  17.013  2.5577 -0.3390  4.7840
  432TIP3    H225492   1.932   0.491  16.910 -1.3085  0.2270  1.4708
  433TIP3   OH225493   0.697   3.861  15.922 -0.1122 -0.1283 -0.2772
  433TIP3    H125494   0.784   3.848  15.959  0.2636  0.1811 -1.0343
  433TIP3    H225495   0.637   3.848  15.996  0.6897  1.8653  0.8091
  434TIP3   OH225496   4.804   3.482  15.123  0.2606 -0.0456  0.0110
  434TIP3    H125497   4.761   3.524  15.048  1.0385  0.7382 -0.0063
  434TIP3    H225498   4.881   3.536  15.140  0.4942 -0.6449  0.9139
  435TIP3   OH225499   0.604   3.897  16.320  0.2524 -0.3131 -0.0257
  435TIP3    H125500   0.571   3.837  16.255  0.9341 -0.2589 -0.4306
  435TIP3    H225501   0.657   3.843  16.379  1.4866 -0.0130 -0.8225
  436TIP3   OH225502   4.461   1.558  15.534 -0.2443 -0.9153 -0.2030
  436TIP3    H125503   4.511   1.590  15.459  0.4550 -2.9635 -0.6798
  436TIP3    H225504   4.464   1.462  15.526 -1.0378 -1.1709  1.8692
  437TIP3   OH225505   0.848   0.386  14.618 -0.0180  0.0762 -0.2346
  437TIP3    H125506   0.760   0.425  14.620 -0.4309 -0.8144  0.0049
  437TIP3    H225507   0.838   0.309  14.563  1.0942  1.0010 -1.7832
  438TIP3   OH225508   2.103   3.395  16.255 -0.0560 -0.5229  0.3835
  438TIP3    H125509   2.188   3.428  16.286 -0.0118 -1.0573  0.8532
  438TIP3    H225510   2.052   3.381  16.335 -0.9626  0.7551  0.0543
  439TIP3   OH225511   2.561   0.037  15.902  0.2063 -0.0584  0.2184
  439TIP3    H125512   2.644   0.085  15.907 -0.2391  0.7176  0.4839
  439TIP3    H225513   2.562  -0.020  15.979  0.3300  0.2211  0.4248
  440TIP3   OH225514   2.105   4.530  16.597 -0.3562 -0.0796 -0.2174
  440TIP3    H125515   2.010   4.536  16.610 -0.4309 -2.7176  1.1686
  440TIP3    H225516   2.126   4.438  16.615  2.4316  0.3452 -0.8384
  441TIP3   OH225517   2.453   5.405  17.793 -0.0075 -0.1217  0.2436
  441TIP3    H125518   2.504   5.467  17.845 -0.4172 -0.4230  1.0299
  441TIP3    H225519   2.490   5.410  17.705 -0.3198  1.5672  0.1779
  442TIP3   OH225520   0.450   5.093  16.797  0.3097  0.0011  0.3329
  442TIP3    H125521   0.492   5.118  16.880  0.4935  0.2200  0.1778
  442TIP3    H225522   0.409   5.174  16.766  0.0995 -0.1203  0.2915
  443TIP3   OH225523   6.577   5.920  15.739  0.1658 -0.2023 -0.4300
  443TIP3    H125524   6.603   6.009  15.715 -0.2563 -0.5384 -2.2751
  443TIP3    H225525   6.481   5.921  15.735  0.0939 -0.4404  0.7755
  444TIP3   OH225526   2.098   0.217  16.981 -0.1754  0.7544 -0.0377
  444TIP3    H125527   2.110   0.193  16.889 -0.5355 -0.4225  0.2063
  444TIP3    H225528   2.037   0.291  16.978 -1.8343 -0.5734 -0.6646
  445TIP3   OH225529   1.797   1.271  16.933 -0.1060  0.4777  0.6534
  445TIP3    H125530   1.745   1.235  17.004 -1.1005  0.8956  0.1535
  445TIP3    H225531   1.733   1.301  16.868  0.7625  0.5921 -0.1826
  446TIP3   OH225532   6.201   0.807  17.427 -1.1595 -0.2454 -0.3699
  446TIP3    H125533   6.182   0.834  17.337 -1.2994  1.6551  0.1763
  446TIP3    H225534   6.128   0.751  17.452 -1.3998 -0.3374 -1.2406
  447TIP3   OH225535   6.205   1.835  17.868  0.2509  0.2053 -0.6532
  447TIP3    H125536   6.184   1.746  17.842  0.0072  0.1138 -0.1463
  447TIP3    H225537   6.298   1.832  17.892  0.0123 -0.1185  0.2436
  448TIP3   OH225538   3.647   2.138  15.564 -0.0653  0.0546 -0.3005
  448TIP3    H125539   3.673   2.074  15.630  0.1400 -2.0663 -2.2948
  448TIP3    H225540   3.683   2.221  15.595  1.4194 -1.1469  1.3952
  449TIP3   OH225541   5.373   0.910  15.629 -0.3343 -0.1831 -0.1236
  449TIP3    H125542   5.378   0.932  15.536  0.3282 -0.4845 -0.1657
  449TIP3    H225543   5.299   0.850  15.636  0.1958 -0.9061 -0.6121
  450TIP3   OH225544   6.410   1.560  16.440  0.6116  0.0452 -0.2189
  450TIP3    H125545   6.434   1.467  16.436  3.6555  0.6706  0.9792
  450TIP3    H225546   6.387   1.583  16.350 -1.3941 -2.0528 -0.3650
  451TIP3   OH225547   4.492   2.058  18.203 -0.4621  0.4556  0.8687
  451TIP3    H125548   4.454   2.145  18.220  1.9239  1.7079  0.2277
  451TIP3    H225549   4.568   2.076  18.147  0.6940 -1.9602  1.5470
  452TIP3   OH225550   3.700   2.778  16.785  0.5096 -0.4138  0.2116
  452TIP3    H125551   3.681   2.777  16.879 -0.9557 -0.6202 -0.0683
  452TIP3    H225552   3.732   2.689  16.766  0.8188 -0.3674  0.5017
  453TIP3   OH225553   4.937   4.618  17.636  0.3919  0.8609 -0.0068
  453TIP3    H125554   4.891   4.594  17.716 -1.4487 -0.4275 -1.3536
  453TIP3    H225555   4.964   4.709  17.649 -0.0231  0.7304  1.9659
  454TIP3   OH225556   4.503   6.631  16.888  0.1795  0.0057 -0.7813
  454TIP3    H125557   4.517   6.725  16.873 -1.6706  0.2063 -1.5634
  454TIP3    H225558   4.497   6.594  16.800 -1.6513 -0.4016 -0.5129
  455TIP3   OH225559   3.106   1.691  15.029  1.1010 -0.2794 -0.0553
  455TIP3    H125560   3.166   1.766  15.028  0.6174  0.1363 -2.1182
  455TIP3    H225561   3.132   1.638  14.954  0.2443 -1.2391  0.2992
  456TIP3   OH225562   2.297   5.077  17.530 -0.5476 -0.2174  0.6439
  456TIP3    H125563   2.387   5.095  17.505 -0.3358 -0.9527  0.8661
  456TIP3    H225564   2.245   5.138  17.477 -0.0492 -1.0120 -0.8154
  457TIP3   OH225565   3.364   0.214  16.287 -0.5643  0.4163 -0.2254
  457TIP3    H125566   3.393   0.179  16.203 -0.6172 -0.2284  0.0252
  457TIP3    H225567   3.272   0.191  16.292 -0.0475 -1.6380  1.0369
  458TIP3   OH225568   3.624   4.041  17.020  0.0374 -0.3212 -0.7695
  458TIP3    H125569   3.600   4.132  17.005  0.2401 -0.0275  0.6112
  458TIP3    H225570   3.595   4.022  17.109 -0.0208 -1.6220 -1.0367
  459TIP3   OH225571   0.995   2.737  16.575 -0.1634 -0.1913 -0.0766
  459TIP3    H125572   1.037   2.757  16.659  0.4261 -1.6528  0.0219
  459TIP3    H225573   1.055   2.773  16.509 -0.0255 -0.0727  0.1123
  460TIP3   OH225574   4.202   1.049  15.167  0.2809  0.2009 -0.2852
  460TIP3    H125575   4.201   1.097  15.250  1.5741  1.2826 -0.8397
  460TIP3    H225576   4.273   0.986  15.177  2.0448  1.8969 -1.3147
  461TIP3   OH225577   2.503   3.571  17.259 -0.0385 -0.0598  0.4829
  461TIP3    H125578   2.555   3.528  17.190 -0.3382 -0.3614  0.4461
  461TIP3    H225579   2.524   3.664  17.249 -0.5262 -0.0309 -0.3992
  462TIP3   OH225580   0.761   2.184  16.535 -0.4285  0.4353  0.7574
  462TIP3    H125581   0.857   2.179  16.536 -0.3396 -1.0462 -2.1749
  462TIP3    H225582   0.741   2.267  16.491 -0.4792  0.5376  0.9727
  463TIP3   OH225583   2.733   1.635  15.988  0.5389  0.0086  0.1310
  463TIP3    H125584   2.640   1.644  16.006  0.7381  0.8749  0.8282
  463TIP3    H225585   2.776   1.670  16.067  1.4584 -1.3073  0.2498
  464TIP3   OH225586   1.493   6.138  14.423  0.1979 -0.1331 -0.0579
  464TIP3    H125587   1.563   6.125  14.487  1.3320  0.0691 -1.2169
  464TIP3    H225588   1.454   6.051  14.413  1.3315 -0.6182 -0.5418
  465TIP3   OH225589   4.116   6.413  14.749 -0.0605  0.0078 -0.0495
  465TIP3    H125590   4.087   6.503  14.738 -0.7458  0.0223  1.5948
  465TIP3    H225591   4.045   6.360  14.712 -0.7448  0.1140  1.0752
  466TIP3   OH225592   2.604   3.835  15.542  0.4659 -0.1363  0.5592
  466TIP3    H125593   2.611   3.742  15.564  0.3192 -0.2632  0.0824
  466TIP3    H225594   2.524   3.864  15.585 -0.5546 -0.7065 -0.8774
  467TIP3   OH225595   2.096   0.058  18.028 -0.3252 -0.1739 -0.0933
  467TIP3    H125596   2.135   0.055  18.116 -0.6147 -0.6369  0.0246
  467TIP3    H225597   2.098  -0.032  17.998  3.4504  0.4021 -2.2519
  468TIP3   OH225598   4.881   2.222  17.189  0.3959 -0.6240  0.8590
  468TIP3    H125599   4.839   2.140  17.162  1.5121 -0.7598 -0.5507
  468TIP3    H225600   4.820   2.290  17.162  1.0698 -0.8120 -1.2788
  469TIP3   OH225601   3.213   4.503  17.272  0.1742 -0.0208 -0.0190
  469TIP3    H125602   3.245   4.434  17.214  0.9883  0.3672 -0.0333
  469TIP3    H225603   3.289   4.529  17.323  0.1473  1.6539 -0.7845
  470TIP3   OH225604   3.350   4.724  16.943  0.1628  0.3896  0.2765
  470TIP3    H125605   3.436   4.690  16.966  0.0265  0.5018  0.9649
  470TIP3    H225606   3.329   4.786  17.012 -1.0267 -0.5787  0.8300
  471TIP3   OH225607   3.806   3.188  16.606  0.1456  0.0577  0.1146
  471TIP3    H125608   3.800   3.270  16.655 -0.6078 -0.4745  0.9271
  471TIP3    H225609   3.820   3.121  16.672  1.4915 -0.4164 -0.6003
  472TIP3   OH225610   4.957   0.044  16.524 -0.0757  0.7130 -0.6491
  472TIP3    H125611   4.992  -0.022  16.464  0.4016  1.1705 -0.8844
  472TIP3    H225612   4.866   0.017  16.540  0.9932 -1.8684  1.8804
  473TIP3   OH225613   3.024   1.685  16.441  0.2016  0.0981  0.0209
  473TIP3    H125614   3.053   1.777  16.442  1.1355 -0.1909  0.7073
  473TIP3    H225615   3.047   1.652  16.528  4.2946 -2.0935 -1.6132
  474TIP3   OH225616   4.742   1.204  14.857 -0.3135  0.0117  0.3409
  474TIP3    H125617   4.717   1.118  14.824 -0.9266  0.2204  0.2508
  474TIP3    H225618   4.802   1.239  14.791 -1.2700  0.2893 -0.3918
  475TIP3   OH225619   0.795   2.987  17.362 -0.5468  0.4331 -0.2934
  475TIP3    H125620   0.737   3.025  17.428 -0.0251  2.1817 -0.7932
  475TIP3    H225621   0.792   3.049  17.289  1.4989  0.2702 -0.5558
  476TIP3   OH225622   5.757   6.727  17.689 -0.3756 -0.1017  0.3771
  476TIP3    H125623   5.776   6.819  17.705 -0.0966 -0.1936  0.5591
  476TIP3    H225624   5.832   6.679  17.725 -1.3312 -0.5215  1.9081
  477TIP3   OH225625   2.133   6.686  16.883  0.0951  0.2462  0.4127
  477TIP3    H125626   2.209   6.634  16.909  0.5282  0.5458 -0.2046
  477TIP3    H225627   2.157   6.721  16.797 -1.0514 -0.2644 -0.1305
  478TIP3   OH225628   0.004   3.502  15.796  0.7155  0.7060 -0.0443
  478TIP3    H125629   0.039   3.476  15.881  2.5648  1.1315 -0.6282
  478TIP3    H225630   0.081   3.520  15.743 -0.4190  1.5047 -1.4971
  479TIP3   OH225631   1.481   0.056  15.014 -0.1687 -0.2247 -0.0941
  479TIP3    H125632   1.493   0.149  15.035 -1.8407  0.0569 -0.2336
  479TIP3    H225633   1.519   0.009  15.089  0.9381  0.5355 -0.1463
  480TIP3   OH225634   2.145   2.424  16.594 -0.1466  0.2662  0.6810
  480TIP3    H125635   2.240   2.415  16.593 -0.0099  1.1144  2.5601
  480TIP3    H225636   2.112   2.334  16.596  0.6469 -0.0238  0.9604
  481TIP3   OH225637   5.131   5.845  15.902  0.4894  0.2947 -0.1814
  481TIP3    H125638   5.051   5.885  15.869 -1.2701 -0.9590  2.2396
  481TIP3    H225639   5.154   5.896  15.980  1.8466  0.4085 -0.6323
  482TIP3   OH225640   1.803   5.606  17.138  0.4253  0.0895  0.0353
  482TIP3    H125641   1.879   5.618  17.195  0.6445  0.1321 -0.2591
  482TIP3    H225642   1.809   5.677  17.075  0.6012 -0.3789 -0.4899
  483TIP3   OH225643   5.796   1.319  16.478  0.0095  0.5124  0.2174
  483TIP3    H125644   5.806   1.230  16.443  0.2622  1.0611 -1.1942
  483TIP3    H225645   5.704   1.325  16.503 -0.4996  0.4461 -1.5023
  484TIP3   OH225646   0.736   0.102  17.701  0.1569  0.3973  0.2237
  484TIP3    H125647   0.651   0.142  17.721 -0.4942 -0.4469 -0.7574
  484TIP3    H225648   0.797   0.146  17.760 -0.7272  1.9624  0.0346
  485TIP3   OH225649   5.357   2.173  16.806 -0.3137 -0.0968  0.2256
  485TIP3    H125650   5.436   2.204  16.761 -0.1726 -0.8723 -0.0780
  485TIP3    H225651   5.285   2.217  16.761 -0.3728 -2.5383 -2.3575
  486TIP3   OH225652   1.183   6.187  14.969 -0.1201  0.0671 -0.1222
  486TIP3    H125653   1.263   6.146  15.002 -0.7038  1.0298  2.8270
  486TIP3    H225654   1.210   6.233  14.890  1.7445 -1.3008 -0.3518
  487TIP3   OH225655   3.955   2.308  18.062  0.2811  0.0606  0.5255
  487TIP3    H125656   3.962   2.281  18.154  3.0165 -1.1323  0.0518
  487TIP3    H225657   3.892   2.247  18.024 -1.3853  0.9743  1.6783
  488TIP3   OH225658   4.888   3.674  17.097 -0.1467  0.4048 -0.3800
  488TIP3    H125659   4.831   3.736  17.052 -0.7345 -1.0774 -1.7852
  488TIP3    H225660   4.934   3.628  17.027 -0.5659 -1.5049  0.5250
  489TIP3   OH225661   1.771   1.158  15.415  0.1271 -0.2297  0.5293
  489TIP3    H125662   1.797   1.066  15.414  0.2476 -0.1932 -0.1849
  489TIP3    H225663   1.700   1.164  15.350 -0.8972 -0.1048  1.6315
  490TIP3   OH225664   2.820   6.229  15.761  0.4392 -0.8887  0.8223
  490TIP3    H125665   2.795   6.194  15.676  0.2204  0.4785  0.3003
  490TIP3    H225666   2.741   6.274  15.792  1.4736  1.5079  0.1988
  491TIP3   OH225667   3.150   2.585  15.503 -0.1678 -0.3715  0.6022
  491TIP3    H125668   3.171   2.517  15.567 -0.3306  0.5740  1.7100
  491TIP3    H225669   3.082   2.546  15.448 -1.6387 -0.5006  2.3934
  492TIP3   OH225670   0.830   5.208  16.799 -0.6736 -0.2073  0.2093
  492TIP3    H125671   0.877   5.162  16.729 -1.5133  0.7468 -1.0256
  492TIP3    H225672   0.850   5.300  16.784 -2.6071  0.2002 -0.1178
  493TIP3   OH225673   3.461   3.706  16.156 -0.0060 -0.2728 -0.0054
  493TIP3    H125674   3.420   3.768  16.215  2.6119 -0.6919  2.5073
  493TIP3    H225675   3.537   3.753  16.121  2.2748 -1.9531  2.2758
  494TIP3   OH225676   0.335   5.547  17.588  0.3798  0.1114  0.3378
  494TIP3    H125677   0.390   5.622  17.611  0.9468  0.1732 -1.0881
  494TIP3    H225678   0.271   5.583  17.526 -1.2340  0.0143  1.8790
  495TIP3   OH225679   0.357   5.015  15.023  0.0476  0.0579  0.3526
  495TIP3    H125680   0.428   4.953  15.038 -0.2496 -0.0928  1.2029
  495TIP3    H225681   0.278   4.961  15.023  0.0406 -0.1751 -3.0806
  496TIP3   OH225682   4.829   4.914  16.515 -0.3730  0.1158 -0.4238
  496TIP3    H125683   4.816   4.927  16.609  1.3041  1.0734 -0.2952
  496TIP3    H225684   4.920   4.937  16.499  0.1686 -2.6101 -1.8592
  497TIP3   OH225685   1.515   4.676  16.637 -0.4252  0.4517 -0.5755
  497TIP3    H125686   1.470   4.759  16.619  0.3319  0.6937 -1.4423
  497TIP3    H225687   1.572   4.695  16.712  1.2916  1.3402 -2.0353
  498TIP3   OH225688   4.936   3.031  18.002 -0.3770  0.6417  0.4997
  498TIP3    H125689   4.908   3.118  18.030 -2.1561  0.2230  0.1178
  498TIP3    H225690   4.866   3.001  17.944  0.9875 -0.3963 -0.6869
  499TIP3   OH225691   4.365   5.958  17.219 -0.1932  0.0706 -0.3622
  499TIP3    H125692   4.319   5.877  17.242  0.1463  0.5080  2.1002
  499TIP3    H225693   4.312   5.996  17.149 -2.5900 -0.3545  1.0983
  500TIP3   OH225694   0.589   1.252  15.856 -0.2002 -0.4347 -0.7771
  500TIP3    H125695   0.594   1.177  15.915 -0.6681  0.0326 -0.1180
  500TIP3    H225696   0.500   1.248  15.819 -0.7110  0.5121  0.2779
  501TIP3   OH225697   4.059   3.598  17.758  1.1579  0.1928  0.3344
  501TIP3    H125698   4.124   3.596  17.687  1.5009 -0.9267  0.6706
  501TIP3    H225699   4.068   3.514  17.801 -0.8240 -0.1644  0.1349
  502TIP3   OH225700   5.419   0.313  16.990 -0.2203 -0.1245  0.0658
  502TIP3    H125701   5.436   0.248  17.057  3.0881 -1.2281 -1.6412
  502TIP3    H225702   5.445   0.271  16.908 -0.4781  2.4546 -1.4499
  503TIP3   OH225703   2.874   2.489  17.407 -0.4146 -0.0038  0.0134
  503TIP3    H125704   2.790   2.530  17.388 -0.0475  1.1311  0.7719
  503TIP3    H225705   2.913   2.543  17.475  1.2034 -0.1535 -0.7522
  504TIP3   OH225706   0.778   5.885  16.168 -0.2016 -0.5554 -0.2899
  504TIP3    H125707   0.812   5.799  16.143  0.2555 -0.2026 -0.9198
  504TIP3    H225708   0.853   5.931  16.204 -0.1893 -0.0608 -0.9182
  505TIP3   OH225709   3.009   5.756  14.887  0.1508 -0.5392  0.7489
  505TIP3    H125710   2.934   5.785  14.835 -0.5975  0.4109  2.2713
  505TIP3    H225711   3.066   5.711  14.825 -1.3310 -0.6386 -0.5951
  506TIP3   OH225712   2.229   0.662  14.849 -0.2433  0.2150 -0.9709
  506TIP3    H125713   2.314   0.702  14.866 -0.7936  0.4293  1.5930
  506TIP3    H225714   2.245   0.600  14.777  2.3166 -0.4912  0.1208
  507TIP3   OH225715   3.540   4.459  16.612  0.5779 -0.0596  0.0797
  507TIP3    H125716   3.606   4.417  16.667  2.7004  0.9375 -1.5407
  507TIP3    H225717   3.542   4.409  16.531 -2.5263 -1.5325  0.7732
  508TIP3   OH225718   3.336   1.766  16.948  0.4593  0.4796 -0.4784
  508TIP3    H125719   3.402   1.815  16.997 -0.2120  0.3124  0.6334
  508TIP3    H225720   3.279   1.834  16.910 -1.1938  0.6382  2.0659
  509TIP3   OH225721   6.076   4.111  16.634 -0.0583 -0.0330  0.0618
  509TIP3    H125722   6.028   4.037  16.672  2.4205 -0.9085  1.7738
  509TIP3    H225723   6.076   4.093  16.540 -1.4533 -0.9618  0.2075
  510TIP3   OH225724   1.255   4.380  17.748  0.5185  0.1752  0.2734
  510TIP3    H125725   1.191   4.310  17.740 -1.1357  1.5825  0.6692
  510TIP3    H225726   1.339   4.338  17.727 -0.5014 -1.7113 -0.2665
  511TIP3   OH225727   5.516   0.756  17.154  0.1546 -0.7238  0.6974
  511TIP3    H125728   5.553   0.670  17.173  0.3753 -0.9918 -0.8353
  511TIP3    H225729   5.592   0.811  17.135 -0.0336 -0.4018  0.8856
  512TIP3   OH225730   0.445   5.882  15.354  0.1197 -0.5563 -0.3719
  512TIP3    H125731   0.448   5.893  15.449 -0.4018 -1.2407 -0.2655
  512TIP3    H225732   0.470   5.967  15.319  0.3310 -0.3029  0.3786
  513TIP3   OH225733   6.462   2.315  16.574  0.0430 -0.0192  0.1754
  513TIP3    H125734   6.423   2.295  16.489  0.1941  1.7690 -0.3655
  513TIP3    H225735   6.462   2.411  16.578  0.9359 -0.0528  1.7739
  514TIP3   OH225736   2.366   6.478  16.393 -0.1982 -0.2777 -0.3183
  514TIP3    H125737   2.461   6.473  16.402 -0.2545  0.0708  0.5642
  514TIP3    H225738   2.340   6.390  16.366  0.5300  0.0548 -2.2569
  515TIP3   OH225739   0.017   2.924  16.693 -0.1595  0.4843  0.2590
  515TIP3    H125740   0.060   2.983  16.756  3.7668 -0.4569 -1.2986
  515TIP3    H225741  -0.023   2.984  16.629  0.0070  1.4207  0.9961
  516TIP3   OH225742   2.088   0.899  17.286 -0.6292 -0.6227  0.0775
  516TIP3    H125743   2.137   0.856  17.216  1.3218 -1.7167  2.0191
  516TIP3    H225744   2.040   0.828  17.329  0.5250 -0.4945  1.6526
  517TIP3   OH225745   6.761   1.673  15.591 -0.3201 -0.2019 -0.1746
  517TIP3    H125746   6.718   1.757  15.608 -0.6692 -0.3713 -0.1996
  517TIP3    H225747   6.704   1.630  15.527  0.0516 -0.3054 -0.4420
  518TIP3   OH225748   4.329   5.233  15.393 -0.1076 -0.2347 -0.1971
  518TIP3    H125749   4.380   5.167  15.346 -0.6690 -0.4970 -0.4483
  518TIP3    H225750   4.266   5.265  15.328 -1.7912 -1.5403  0.7241
  519TIP3   OH225751   6.391   6.391  16.475 -0.2250 -0.2970 -0.4588
  519TIP3    H125752   6.464   6.347  16.519  0.1564 -1.3261 -2.0311
  519TIP3    H225753   6.430   6.469  16.436 -0.2611 -0.1225 -0.1460
  520TIP3   OH225754   2.642   3.122  15.656  0.1721 -0.0855 -0.1062
  520TIP3    H125755   2.674   3.048  15.707  0.5067 -0.8929 -1.4541
  520TIP3    H225756   2.567   3.087  15.607  0.2780  0.4810 -0.6881
  521TIP3   OH225757   3.492   0.495  16.254 -0.1767 -0.5454 -0.0970
  521TIP3    H125758   3.471   0.404  16.274 -2.3798 -0.3848 -1.3761
  521TIP3    H225759   3.447   0.513  16.172 -0.4073  1.9012  0.4680
  522TIP3   OH225760   5.170   0.077  14.365  0.0969 -0.2892 -0.2546
  522TIP3    H125761   5.242   0.117  14.414 -1.1686  1.2467  0.4312
  522TIP3    H225762   5.107   0.148  14.353 -0.5492 -1.1562 -2.3662
  523TIP3   OH225763   1.886   5.129  16.943  0.3190 -0.4685 -0.4040
  523TIP3    H125764   1.838   5.088  17.015  1.1232  0.7369  0.8644
  523TIP3    H225765   1.971   5.085  16.943  0.5475 -0.0424 -0.1756
  524TIP3   OH225766   0.577   5.358  14.725 -0.6376  0.1785 -0.9603
  524TIP3    H125767   0.566   5.453  14.713  0.6232  0.5007  0.2324
  524TIP3    H225768   0.496   5.330  14.767 -0.3072  1.0593  0.3171
  525TIP3   OH225769   1.462   1.877  17.666  0.2167 -0.1921 -0.0720
  525TIP3    H125770   1.449   1.853  17.757 -2.1555 -2.5811 -0.8952
  525TIP3    H225771   1.536   1.824  17.637  0.3698 -0.1480  0.2418
  526TIP3   OH225772   0.261   6.247  16.212  0.4572  0.4604 -0.2776
  526TIP3    H125773   0.225   6.297  16.138  0.0048  1.0020  0.2909
  526TIP3    H225774   0.220   6.161  16.205 -0.7883  0.9814  0.2039
  527TIP3   OH225775   6.513   4.987  15.989 -0.0151 -0.5635  0.8561
  527TIP3    H125776   6.496   5.070  15.943 -0.9937 -0.1716  1.8584
  527TIP3    H225777   6.426   4.950  16.004  0.4034 -1.7053  0.5731
  528TIP3   OH225778   1.127   2.191  17.910 -0.5722 -0.4139  0.6197
  528TIP3    H125779   1.218   2.196  17.938 -0.5477  3.0754  0.3709
  528TIP3    H225780   1.124   2.118  17.848  2.6543  0.8015 -1.1789
  529TIP3   OH225781   4.394   3.277  17.780  0.2377  0.2666 -0.0142
  529TIP3    H125782   4.424   3.266  17.690  1.4872 -0.6035  0.4702
  529TIP3    H225783   4.433   3.359  17.809 -0.7252  0.8946 -0.4655
  530TIP3   OH225784   5.914   4.067  17.858  0.7735  0.1170 -0.1922
  530TIP3    H125785   5.925   3.980  17.895  0.0982 -0.0987 -0.4923
  530TIP3    H225786   5.829   4.065  17.815  2.1256 -0.1337 -3.0935
  531TIP3   OH225787   0.163   5.725  16.272  0.1257 -0.4015 -0.4529
  531TIP3    H125788   0.204   5.662  16.213 -1.3888 -0.6388 -1.3055
  531TIP3    H225789   0.218   5.725  16.350  0.9795 -1.6708 -1.0279
  532TIP3   OH225790   5.096   4.915  16.393 -0.0579 -0.2548 -0.6454
  532TIP3    H125791   5.155   4.904  16.468 -1.3969 -1.3087  0.3076
  532TIP3    H225792   5.092   4.828  16.353  0.9948  0.3901 -2.2784
  533TIP3   OH225793   1.883   0.017  17.496  0.0442  0.0384  0.0318
  533TIP3    H125794   1.878   0.070  17.416 -2.8956  2.3721  1.5791
  533TIP3    H225795   1.954   0.055  17.546  0.3921  0.0414 -0.4505
  534TIP3   OH225796   4.952   4.052  16.561  0.4114  0.1241  0.2560
  534TIP3    H125797   4.857   4.064  16.559  0.3873 -0.1126  0.0008
  534TIP3    H225798   4.984   4.130  16.606  0.1866  0.7615 -0.6706
  535TIP3   OH225799   3.040   1.580  14.522 -0.0218  0.3358  0.2694
  535TIP3    H125800   2.987   1.655  14.547 -0.4527  0.1013  0.0633
  535TIP3    H225801   3.127   1.617  14.504 -0.2279  0.7831  0.1854
  536TIP3   OH225802   5.694   6.106  14.819  0.5805 -0.1437 -0.4391
  536TIP3    H125803   5.644   6.187  14.811 -1.2980 -0.9118  2.1380
  536TIP3    H225804   5.672   6.056  14.740 -2.2113 -0.0961  0.1976
  537TIP3   OH225805   2.947   2.184  15.598  0.9580  0.1143  0.5091
  537TIP3    H125806   2.972   2.127  15.670 -0.1509 -0.9304  0.1077
  537TIP3    H225807   2.863   2.221  15.624  1.0170  0.4971  0.1744
  538TIP3   OH225808   4.460   6.281  17.546 -0.0567 -0.6372  0.1522
  538TIP3    H125809   4.419   6.285  17.632 -1.2643  0.9688 -0.4592
  538TIP3    H225810   4.554   6.276  17.564 -0.2489  0.4468  1.5607
  539TIP3   OH225811   6.681   3.187  17.753  0.3762 -0.0876  0.7085
  539TIP3    H125812   6.770   3.172  17.723  0.0144 -2.0150  0.4802
  539TIP3    H225813   6.634   3.106  17.732 -1.6308  1.1409  0.1349
  540TIP3   OH225814   1.523   0.557  15.852 -0.0131 -0.1607  0.6439
  540TIP3    H125815   1.432   0.585  15.866 -0.7537 -2.4089  0.8264
  540TIP3    H225816   1.520   0.509  15.769  0.8206 -0.8839  1.0161
  541TIP3   OH225817   2.284   3.140  16.160  0.9972 -0.0849  0.3073
  541TIP3    H125818   2.285   3.094  16.244 -0.6552 -2.1079 -0.7032
  541TIP3    H225819   2.191   3.152  16.140  1.3270 -0.4953 -1.6506
  542TIP3   OH225820   5.910   3.967  15.502  0.2553 -0.1651 -0.3330
  542TIP3    H125821   5.917   4.047  15.449  0.8518  0.6235  0.8882
  542TIP3    H225822   5.988   3.969  15.558  0.0267 -1.3712  0.0510
  543TIP3   OH225823   2.215   3.719  17.273  0.0124  0.1179 -0.1727
  543TIP3    H125824   2.159   3.784  17.316 -0.2541  0.3983 -0.9225
  543TIP3    H225825   2.273   3.770  17.217  0.8505 -0.1938  0.3849
  544TIP3   OH225826   1.725   3.729  17.358 -0.0303  0.4689 -0.3374
  544TIP3    H125827   1.785   3.655  17.352  0.1776  0.5164  0.7685
  544TIP3    H225828   1.641   3.696  17.329 -0.3370 -0.7080  1.7077
  545TIP3   OH225829   5.228   0.913  17.543  0.3109  0.2904  0.5775
  545TIP3    H125830   5.190   0.965  17.613 -0.4986 -1.4629  1.5019
  545TIP3    H225831   5.249   0.829  17.584 -1.9011 -1.4841 -1.6214
  546TIP3   OH225832   2.363   5.350  14.732  0.2709  0.5139  0.7603
  546TIP3    H125833   2.369   5.308  14.646  1.2003 -0.3383  1.2208
  546TIP3    H225834   2.358   5.277  14.794  0.3517  1.1026  1.4693
  547TIP3   OH225835   6.379   3.386  14.859  0.2324  0.3829  0.1797
  547TIP3    H125836   6.358   3.479  14.864  0.5682  0.4365  0.7483
  547TIP3    H225837   6.298   3.344  14.830 -0.8754  0.5330  2.7270
  548TIP3   OH225838   0.757   1.279  14.256  0.0853  0.5020  0.5529
  548TIP3    H125839   0.805   1.235  14.326 -0.0759 -0.3749  0.1298
  548TIP3    H225840   0.770   1.373  14.273  1.3607  0.2934  0.8445
  549TIP3   OH225841   5.673   0.689  15.255  0.4082  0.5195 -0.1272
  549TIP3    H125842   5.699   0.603  15.289  0.8757  1.0761  0.9731
  549TIP3    H225843   5.700   0.688  15.164  0.1786 -0.5938 -0.1993
  550TIP3   OH225844   6.646   4.375  17.065  0.8454 -0.0126 -0.2223
  550TIP3    H125845   6.694   4.457  17.054  0.0516  0.3737 -0.8951
  550TIP3    H225846   6.563   4.389  17.020 -0.9942  0.2476  2.9684
  551TIP3   OH225847   0.183   4.378  17.323  0.2209  0.1600  0.6008
  551TIP3    H125848   0.109   4.439  17.317 -0.5821 -0.7188  1.1882
  551TIP3    H225849   0.222   4.396  17.408 -0.4179 -0.5442  1.0665
  552TIP3   OH225850   2.736   1.213  17.269 -0.2924 -0.4343  0.2290
  552TIP3    H125851   2.767   1.135  17.223  0.9280  0.8331 -1.1981
  552TIP3    H225852   2.814   1.267  17.281 -1.5372  1.9452 -1.6450
  553TIP3   OH225853   0.348   5.233  14.837 -0.1512  0.2955  0.3331
  553TIP3    H125854   0.307   5.192  14.761 -1.3505 -0.6700  1.4574
  553TIP3    H225855   0.322   5.178  14.911  2.2475  0.3055  1.2721
  554TIP3   OH225856   1.229   0.437  17.936 -0.0379 -0.0186 -0.4271
  554TIP3    H125857   1.149   0.386  17.922  2.1983 -3.5973 -1.4711
  554TIP3    H225858   1.260   0.458  17.848  1.3245 -0.7411 -0.1538
  555TIP3   OH225859   6.521   6.121  17.225 -0.0913 -0.3911 -0.5893
  555TIP3    H125860   6.531   6.161  17.138 -0.6647 -2.0485 -1.4523
  555TIP3    H225861   6.556   6.187  17.285  0.7051  0.6293 -2.0968
  556TIP3   OH225862   0.395   3.673  16.953  0.0103 -0.1742  0.5678
  556TIP3    H125863   0.464   3.739  16.955  0.5950 -0.8033  1.6720
  556TIP3    H225864   0.361   3.678  16.863  0.7020  0.9358  0.3427
  557TIP3   OH225865   6.329   1.703  16.661  0.1718 -0.1758  0.4897
  557TIP3    H125866   6.365   1.636  16.602 -1.2151 -0.0248 -0.5709
  557TIP3    H225867   6.321   1.781  16.607 -0.4967  0.1571  1.0577
  558TIP3   OH225868   6.032   3.777  15.234  0.2006  0.0684  0.1757
  558TIP3    H125869   6.042   3.768  15.139  0.5101  1.6587  0.0137
  558TIP3    H225870   6.110   3.825  15.261 -0.2672  0.3230  1.1095
  559TIP3   OH225871   0.100   6.453  15.074  0.0863 -0.4678  0.2598
  559TIP3    H125872   0.033   6.391  15.104 -1.5725  1.1651  0.0923
  559TIP3    H225873   0.086   6.460  14.980  1.1638 -0.8456  0.0614
  560TIP3   OH225874   2.863   6.720  16.483 -0.0540 -0.3971 -0.5916
  560TIP3    H125875   2.957   6.705  16.472  0.0388 -0.4180  0.1984
  560TIP3    H225876   2.834   6.752  16.397  0.6721 -0.3837 -0.8398
  561TIP3   OH225877   2.927   4.670  17.780 -0.0838 -0.3224 -0.3962
  561TIP3    H125878   2.919   4.613  17.704  2.8179  0.8544 -1.7352
  561TIP3    H225879   3.009   4.644  17.821  0.2056  1.4141  0.2213
  562TIP3   OH225880   4.591   1.278  15.157  0.1534 -0.2533 -0.3342
  562TIP3    H125881   4.590   1.183  15.144  0.7465 -0.3389  0.1754
  562TIP3    H225882   4.671   1.294  15.208  0.9082  0.6876 -1.7339
  563TIP3   OH225883   6.440   2.211  16.820 -0.2150  0.0928  0.2020
  563TIP3    H125884   6.456   2.204  16.726  0.4217 -2.5956  0.4307
  563TIP3    H225885   6.367   2.273  16.828 -0.1861  0.4916 -2.0110
  564TIP3   OH225886   1.965   6.049  15.751 -0.2595 -0.4646 -1.0470
  564TIP3    H125887   1.964   6.131  15.702  2.5087  0.0847 -0.3997
  564TIP3    H225888   2.056   6.019  15.745 -0.6827 -2.3225  0.6204
  565TIP3   OH225889   5.704   5.798  15.762 -0.6801 -0.1103 -0.3610
  565TIP3    H125890   5.707   5.702  15.763 -1.1733 -0.1689 -1.5985
  565TIP3    H225891   5.612   5.819  15.781 -0.4494  0.1503  0.5031
  566TIP3   OH225892   5.352   4.494  15.785 -0.6011  0.0418  0.2798
  566TIP3    H125893   5.389   4.422  15.734  3.0569  1.2082  1.0249
  566TIP3    H225894   5.311   4.551  15.720 -0.3979 -0.9542 -0.7483
  567TIP3   OH225895   0.257   4.253  17.053  0.3922  0.5371 -0.2076
  567TIP3    H125896   0.337   4.217  17.092  0.6080  0.0903 -1.0541
  567TIP3    H225897   0.216   4.302  17.125  0.2335 -1.1302  0.9052
  568TIP3   OH225898   2.524   1.314  17.815 -0.0539 -0.9234  0.0143
  568TIP3    H125899   2.437   1.283  17.842 -0.7754  0.9019 -0.0614
  568TIP3    H225900   2.548   1.379  17.882  0.0262  0.5407 -1.3634
  569TIP3   OH225901   4.504   5.898  17.518 -0.1601 -0.2851  0.1854
  569TIP3    H125902   4.446   5.834  17.476 -0.9575 -0.5499  1.6253
  569TIP3    H225903   4.467   5.910  17.606 -2.0203  4.5949 -0.9472
  570TIP3   OH225904   6.598   3.778  16.644 -0.1679  0.6646  0.5215
  570TIP3    H125905   6.515   3.741  16.612 -0.3457  1.0965  0.4702
  570TIP3    H225906   6.581   3.797  16.736 -0.2395  1.0628  0.4294
  571TIP3   OH225907   5.867   1.343  17.087  0.1095  0.0863 -0.1888
  571TIP3    H125908   5.859   1.418  17.029  0.6551 -0.3660 -0.8670
  571TIP3    H225909   5.777   1.311  17.099  0.0370 -0.0715 -1.1251
  572TIP3   OH225910   5.766   3.630  15.143 -0.1381 -0.4414  0.0586
  572TIP3    H125911   5.853   3.593  15.126  1.3444  1.8357  2.0228
  572TIP3    H225912   5.747   3.604  15.234 -0.8710  0.2394  0.1117
  573TIP3   OH225913   4.902   4.995  16.186 -0.2479  0.6245  0.0376
  573TIP3    H125914   4.844   4.919  16.190 -1.1108  1.3026  1.0644
  573TIP3    H225915   4.977   4.971  16.240 -0.4490  0.4410  0.2362
  574TIP3   OH225916   6.083   0.865  16.471 -0.0761 -0.0878 -0.1340
  574TIP3    H125917   6.124   0.808  16.406  0.6933 -2.2529  2.0979
  574TIP3    H225918   6.118   0.952  16.451  0.9154 -0.8531 -1.9815
  575TIP3   OH225919   2.270   0.777  17.117 -0.1799 -0.5485 -0.2443
  575TIP3    H125920   2.336   0.725  17.162  0.1248 -0.1582 -0.2323
  575TIP3    H225921   2.220   0.714  17.065 -0.4594 -0.9864  0.5467
  576TIP3   OH225922   3.951   5.005  17.044 -0.3899  0.2865  0.6366
  576TIP3    H125923   4.004   5.039  16.972  0.7751  0.4557  1.5506
  576TIP3    H225924   3.918   4.921  17.012  0.9366 -0.1098  0.2771
  577TIP3   OH225925   1.091   1.818  17.299  0.1775 -0.5263  0.1211
  577TIP3    H125926   1.037   1.846  17.225 -0.0825 -1.2695  0.0132
  577TIP3    H225927   1.156   1.759  17.261  1.2019  0.5017  0.2259
  578TIP3   OH225928   5.048   6.708  17.435  1.2034 -0.2191  0.4280
  578TIP3    H125929   5.101   6.657  17.496  0.2877  0.8630  2.2041
  578TIP3    H225930   5.089   6.795  17.434  0.2389  0.2510  0.8170
  579TIP3   OH225931   1.154   2.758  13.850  0.3880  0.1796  0.2586
  579TIP3    H125932   1.226   2.714  13.895 -0.0283 -1.4891 -0.6256
  579TIP3    H225933   1.190   2.842  13.823  2.3461 -0.9777 -0.9704
  580TIP3   OH225934   4.545   2.827  16.524 -0.5646  0.3546 -0.2616
  580TIP3    H125935   4.616   2.803  16.585 -0.3485 -2.0124 -1.3032
  580TIP3    H225936   4.591   2.861  16.447 -0.6438  0.3013 -0.3318
  581TIP3   OH225937   1.112   0.753  17.627  0.2132 -0.1776  0.0090
  581TIP3    H125938   1.039   0.795  17.583  0.2529 -0.4180 -0.2815
  581TIP3    H225939   1.098   0.659  17.616  0.1917 -0.2453  0.5517
  582TIP3   OH225940   2.859   1.175  15.532 -0.4184 -0.3625  0.0429
  582TIP3    H125941   2.809   1.156  15.453  1.9471  3.4586 -2.7509
  582TIP3    H225942   2.807   1.241  15.578 -1.4374 -2.0500  1.4517
  583TIP3   OH225943   6.225   1.559  17.814  0.0378  0.4381  0.3975
  583TIP3    H125944   6.309   1.555  17.860  1.5939  1.1708 -2.1759
  583TIP3    H225945   6.187   1.471  17.825  2.3426 -0.7378 -0.4119
  584TIP3   OH225946   4.266   2.863  16.946 -0.1201  0.4126  0.5131
  584TIP3    H125947   4.202   2.885  16.879  0.4231 -0.2650 -0.2371
  584TIP3    H225948   4.237   2.779  16.981  0.6139 -0.1268 -0.1598
  585TIP3   OH225949   5.857   4.198  17.459  0.0891  0.0839  0.0027
  585TIP3    H125950   5.856   4.104  17.477 -0.6962 -0.1412 -1.0773
  585TIP3    H225951   5.950   4.218  17.444  0.2846 -0.4779  0.4357
  586TIP3   OH225952   1.779   4.996  16.624 -0.3741  0.2163  0.4897
  586TIP3    H125953   1.811   4.995  16.534 -0.4613  1.6356  0.4194
  586TIP3    H225954   1.773   5.089  16.646  1.6284 -0.0769  2.6656
  587TIP3   OH225955   2.535   5.365  15.127  0.0235 -0.7165  0.1078
  587TIP3    H125956   2.557   5.344  15.036  0.0693 -1.1575  0.2229
  587TIP3    H225957   2.452   5.412  15.121 -0.1903 -1.1268 -0.1230
  588TIP3   OH225958   0.171   5.197  14.255 -0.0235  0.3132 -0.6281
  588TIP3    H125959   0.201   5.283  14.226 -0.2351  0.8937  0.8106
  588TIP3    H225960   0.239   5.166  14.315  0.5398 -0.9863 -1.8829
  589TIP3   OH225961   0.849   0.349  16.213  1.0086 -0.3925  0.4966
  589TIP3    H125962   0.902   0.349  16.134 -0.2319 -0.2625 -0.3732
  589TIP3    H225963   0.897   0.294  16.275  1.0762 -2.1430 -1.0261
  590TIP3   OH225964   4.078   6.575  16.040 -0.2171 -0.2976 -0.1129
  590TIP3    H125965   4.023   6.643  16.001  0.3612 -0.6653 -1.6367
  590TIP3    H225966   4.022   6.531  16.103 -0.9147  0.9116  0.1234
  591TIP3   OH225967   1.033   1.957  16.433  0.3451 -0.4249  0.2054
  591TIP3    H125968   1.008   2.041  16.473 -0.5296 -0.8557  0.6052
  591TIP3    H225969   1.127   1.965  16.416 -0.1282  1.5333 -1.9780
  592TIP3   OH225970   4.531   6.426  16.196 -0.5532 -0.0147 -0.1031
  592TIP3    H125971   4.598   6.369  16.233  0.8203 -0.4453 -3.0211
  592TIP3    H225972   4.449   6.379  16.210  0.2365 -1.4144 -0.0091
  593TIP3   OH225973   4.448   4.067  15.847 -0.0785  0.3818  0.3405
  593TIP3    H125974   4.426   4.112  15.929  0.3763 -1.5994  1.6413
  593TIP3    H225975   4.380   4.000  15.838 -0.0178  0.4647 -0.8275
  594TIP3   OH225976   4.043   2.479  17.118 -0.3178  0.2338  0.1444
  594TIP3    H125977   4.127   2.475  17.072 -0.2029 -0.0471  0.3773
  594TIP3    H225978   3.993   2.406  17.082 -0.9513  1.1611 -0.9336
  595TIP3   OH225979   3.729   5.950  16.712 -0.1188 -0.3613 -0.2767
  595TIP3    H125980   3.815   5.983  16.738 -0.8588 -0.7813  3.2687
  595TIP3    H225981   3.748   5.871  16.661  1.6994 -1.2143  1.5669
  596TIP3   OH225982   3.131   6.381  17.255  0.2691  0.3804 -0.0915
  596TIP3    H125983   3.110   6.309  17.196  1.0514 -0.6771  0.8644
  596TIP3    H225984   3.152   6.454  17.198  3.7137 -1.3506 -1.2986
  597TIP3   OH225985   3.338   4.880  17.478 -0.5612 -0.6757 -0.2542
  597TIP3    H125986   3.250   4.878  17.440  0.5982 -0.0669 -3.1625
  597TIP3    H225987   3.356   4.973  17.493  0.5536 -0.5101 -2.2759
  598TIP3   OH225988   6.049   3.983  15.939 -0.1718 -0.5679 -0.0115
  598TIP3    H125989   5.968   3.951  15.900  0.2281 -1.2459 -0.2920
  598TIP3    H225990   6.114   3.915  15.921  0.7622  0.5063 -0.8650
  599TIP3   OH225991   1.486   5.851  15.756  0.8279 -0.1300 -0.0081
  599TIP3    H125992   1.531   5.934  15.772  1.0476 -0.2289 -0.0919
  599TIP3    H225993   1.504   5.798  15.834  0.3019  0.0673  0.2436
  600TIP3   OH225994   6.191   5.838  16.048 -0.1677  0.1992 -0.3019
  600TIP3    H125995   6.102   5.830  16.083  0.1341  0.4021  0.5456
  600TIP3    H225996   6.204   5.932  16.038  1.1681  0.5105  2.9832
  601TIP3   OH225997   2.394   4.064  17.126 -0.8960 -0.4331 -0.2481
  601TIP3    H125998   2.377   4.082  17.034  0.2136 -0.1195 -0.4128
  601TIP3    H225999   2.309   4.072  17.169 -1.8436 -2.6401 -1.5404
  602TIP3   OH226000   5.590   5.435  17.009  0.5121  0.5809  0.2499
  602TIP3    H126001   5.677   5.471  16.991  0.0270  1.3382 -0.7550
  602TIP3    H226002   5.593   5.407  17.100  1.8817  0.3679  0.1573
  603TIP3   OH226003   2.484   2.773  15.233 -0.4986  0.4064 -0.4402
  603TIP3    H126004   2.451   2.698  15.183 -1.5059  0.1467  0.6038
  603TIP3    H226005   2.520   2.831  15.166  2.0043 -1.7866 -1.1684
  604TIP3   OH226006   1.359   4.905  16.538  0.2675 -0.0035 -0.5261
  604TIP3    H126007   1.263   4.899  16.532  0.0188 -0.0038  2.2635
  604TIP3    H226008   1.375   4.997  16.560  0.8034 -0.2442  0.1285
  605TIP3   OH226009   4.581   2.419  16.360  0.6901  0.0807  0.1277
  605TIP3    H126010   4.528   2.497  16.346  1.9805  0.9883  0.1223
  605TIP3    H226011   4.551   2.384  16.444 -0.0572  0.4364  0.0179
  606TIP3   OH226012   1.892   3.635  15.466 -0.5898 -0.5082 -0.6017
  606TIP3    H126013   1.979   3.596  15.461  0.0816  1.0451 -2.4268
  606TIP3    H226014   1.846   3.602  15.389 -2.0583 -2.1584  0.8963
  607TIP3   OH226015   4.039   6.420  17.684 -0.2040  0.1073  0.5327
  607TIP3    H126016   3.963   6.475  17.664 -0.4846 -1.2769 -2.8664
  607TIP3    H226017   4.100   6.437  17.612 -0.1078 -3.5003 -0.4392
  608TIP3   OH226018   6.168   4.076  15.572  0.0579  0.1825 -0.4993
  608TIP3    H126019   6.223   4.067  15.649 -1.4459  1.1740  0.7449
  608TIP3    H226020   6.129   4.163  15.580 -2.7958 -0.9843 -0.5274
  609TIP3   OH226021   1.229   0.872  15.440  0.1144  0.0427  0.0537
  609TIP3    H126022   1.319   0.874  15.408  0.5480 -0.5323  1.1493
  609TIP3    H226023   1.192   0.957  15.417  1.4068  0.8464  0.8358
  610TIP3   OH226024   1.881   3.728  16.396 -0.1624 -0.0946 -0.5270
  610TIP3    H126025   1.880   3.797  16.463 -3.9723  0.0745 -0.5123
  610TIP3    H226026   1.850   3.650  16.443 -1.3028 -0.3843 -1.7194
  611TIP3   OH226027   1.094   4.980  16.398 -0.3264 -0.0907 -0.3589
  611TIP3    H126028   1.068   4.936  16.478 -2.0848  0.9954 -0.2839
  611TIP3    H226029   1.060   4.924  16.327  2.7813 -2.0289 -0.5257
  612TIP3   OH226030   1.365   2.551  17.130  0.1589  0.7230 -0.4894
  612TIP3    H126031   1.444   2.531  17.179 -1.5707 -0.0771  2.1979
  612TIP3    H226032   1.374   2.502  17.048  2.5608  0.9778 -0.4323
  613TIP3   OH226033   0.401   1.790  15.246 -0.1019 -0.2906  0.1916
  613TIP3    H126034   0.447   1.744  15.316  1.4299  0.2352 -0.4049
  613TIP3    H226035   0.312   1.801  15.278  0.2166 -1.2302  1.4857
  614TIP3   OH226036   6.628   4.166  16.041 -0.1254 -0.2061  0.4920
  614TIP3    H126037   6.650   4.077  16.070 -0.8463  0.3672  3.0946
  614TIP3    H226038   6.632   4.162  15.946  1.3454 -2.6269  0.5670
  615TIP3   OH226039   5.492   2.750  15.199 -0.1514  0.2418  0.5034
  615TIP3    H126040   5.480   2.661  15.232 -0.6947  0.1187 -0.0098
  615TIP3    H226041   5.475   2.743  15.105  0.3578  0.7800  0.3666
  616TIP3   OH226042   1.964   3.316  16.468  0.0133  0.2309  0.0231
  616TIP3    H126043   2.039   3.259  16.487  0.0497  0.2299 -0.1187
  616TIP3    H226044   1.957   3.372  16.545  0.5983  0.7031 -0.2584
  617TIP3   OH226045   4.950   2.674  16.563  0.2536  0.3675  0.0284
  617TIP3    H126046   5.031   2.671  16.613  0.2497 -2.3814  0.0127
  617TIP3    H226047   4.978   2.687  16.472  0.8463 -1.7056 -0.1418
  618TIP3   OH226048   2.341   5.663  17.487 -0.1719  0.6729  0.3572
  618TIP3    H126049   2.310   5.750  17.511  1.5433  1.5502 -0.4324
  618TIP3    H226050   2.435   5.672  17.478 -0.1186 -0.8613 -1.3699
  619TIP3   OH226051   5.081   5.252  17.261  0.2261  0.3279 -0.2153
  619TIP3    H126052   5.130   5.219  17.336  0.5126  0.1943 -0.4576
  619TIP3    H226053   5.076   5.346  17.275 -0.6572  0.1917  0.5154
  620TIP3   OH226054   4.266   4.392  18.061  0.1545 -0.2398 -0.0016
  620TIP3    H126055   4.195   4.409  17.999 -0.0682  0.8103  0.5125
  620TIP3    H226056   4.248   4.305  18.095 -1.6809  0.5075  1.1044
  621TIP3   OH226057   4.885   4.526  15.637 -0.3524 -0.0201  0.1995
  621TIP3    H126058   4.974   4.554  15.659  0.9706 -1.7924 -2.4150
  621TIP3    H226059   4.862   4.578  15.560  0.2449 -2.5002 -1.7783
  622TIP3   OH226060   3.298   0.610  16.429 -0.7012  0.0621 -0.3284
  622TIP3    H126061   3.323   0.543  16.366 -0.9249 -0.2035 -0.1378
  622TIP3    H226062   3.295   0.691  16.378  2.7295  0.5863  0.0194
  623TIP3   OH226063   5.219   3.087  17.752 -0.2990  0.5595 -1.2056
  623TIP3    H126064   5.172   3.077  17.835  0.6919 -0.2156 -0.7074
  623TIP3    H226065   5.214   3.001  17.711  1.3560  0.2002 -0.7449
  624TIP3   OH226066   6.251   4.584  16.767  0.4017  0.2260 -0.3608
  624TIP3    H126067   6.230   4.655  16.706  0.2890  0.1916 -0.3619
  624TIP3    H226068   6.210   4.611  16.850  0.5744  0.2845 -0.2938
  625TIP3   OH226069   3.565   0.211  16.468  0.3937 -0.7495  0.3773
  625TIP3    H126070   3.494   0.228  16.406  0.4907 -1.4947  0.0550
  625TIP3    H226071   3.643   0.243  16.424  0.1444  1.1666  1.2048
  626TIP3   OH226072   0.689   1.758  16.105  0.1662  0.0126 -0.2351
  626TIP3    H126073   0.759   1.823  16.107  0.2869 -0.0293 -1.6778
  626TIP3    H226074   0.641   1.771  16.186  0.4946  1.5672 -0.2657
  627TIP3   OH226075   1.024   2.788  16.277  0.3606  0.0589 -0.1830
  627TIP3    H126076   0.936   2.759  16.303  0.4225  1.3324  1.6209
  627TIP3    H226077   1.008   2.868  16.227  0.4881 -0.0127 -0.3421
  628TIP3   OH226078   2.303   1.830  16.886 -0.0882 -0.0407  0.3447
  628TIP3    H126079   2.261   1.912  16.860  0.6836  0.6635  1.2247
  628TIP3    H226080   2.395   1.842  16.865  0.0933 -0.5293  0.8276
  629TIP3   OH226081   1.326   3.862  15.314  0.1762  0.4955  0.2276
  629TIP3    H126082   1.271   3.787  15.295  1.2623 -0.7783  1.8559
  629TIP3    H226083   1.265   3.931  15.340 -0.7601 -0.1754 -0.1440
  630TIP3   OH226084   6.426   0.630  17.075  0.4303  0.4851  0.6950
  630TIP3    H126085   6.501   0.690  17.067  0.4241  0.2564 -3.3493
  630TIP3    H226086   6.350   0.685  17.056  0.1066 -0.1448  0.1103
  631TIP3   OH226087   4.196   4.813  18.080  0.5091 -0.3520 -0.1935
  631TIP3    H126088   4.203   4.744  18.146 -1.1253 -0.4331 -0.0704
  631TIP3    H226089   4.286   4.825  18.049  0.8639 -2.4847 -0.1669
  632TIP3   OH226090   4.268   1.158  15.669  0.1829 -0.2757  0.1771
  632TIP3    H126091   4.314   1.210  15.603 -1.7574  0.4074 -0.7003
  632TIP3    H226092   4.295   1.196  15.753  0.9008  0.3417 -0.3215
  633TIP3   OH226093   4.907   1.734  17.469 -0.2562 -0.4248 -0.6486
  633TIP3    H126094   4.990   1.761  17.429  0.3523 -2.4237 -0.8339
  633TIP3    H226095   4.855   1.700  17.396 -1.2361  0.7036 -0.5157
  634TIP3   OH226096   4.566   2.049  17.831  0.1864 -0.1043  0.7651
  634TIP3    H126097   4.507   2.042  17.757  1.3580  0.5176 -0.2695
  634TIP3    H226098   4.534   1.984  17.894 -3.1305  1.9771  1.4162
  635TIP3   OH226099   6.278   1.702  15.063  0.6960  0.3284  0.2883
  635TIP3    H126100   6.204   1.679  15.006  0.1575 -0.8524  1.3988
  635TIP3    H226101   6.241   1.699  15.151  2.0504 -0.1794  0.8553
  636TIP3   OH226102   4.976   0.451  17.085  0.1142 -0.0094  0.1417
  636TIP3    H126103   4.885   0.472  17.065  0.1810  0.6671  0.5290
  636TIP3    H226104   4.975   0.356  17.100 -0.6421  0.0774  0.7249
  637TIP3   OH226105   0.334   5.321  16.639 -0.4046 -0.8345 -0.1367
  637TIP3    H126106   0.289   5.279  16.566  1.1988 -0.9897 -1.0868
  637TIP3    H226107   0.353   5.410  16.607 -0.5112 -0.5990  0.4500
  638TIP3   OH226108   5.718   0.450  15.373 -0.0383 -0.1585  0.5189
  638TIP3    H126109   5.709   0.467  15.467  0.0906 -0.6389  0.6193
  638TIP3    H226110   5.785   0.382  15.367 -1.3858 -1.5044  0.2051
  639TIP3   OH226111   4.925   6.743  14.188 -0.2986  0.4506 -0.5999
  639TIP3    H126112   4.949   6.816  14.246  2.0240  0.8019 -1.8735
  639TIP3    H226113   4.980   6.755  14.111  0.2958 -2.7503 -0.8001
  640TIP3   OH226114   2.136   3.358  15.784 -0.2652  0.4261  0.0050
  640TIP3    H126115   2.215   3.310  15.810 -0.6415  0.1530  0.6739
  640TIP3    H226116   2.169   3.444  15.757  0.1202  1.0613  2.2463
  641TIP3   OH226117   3.382   5.336  17.238  0.2356 -0.0170 -0.1519
  641TIP3    H126118   3.444   5.303  17.174  0.7536  2.6706 -1.1629
  641TIP3    H226119   3.337   5.258  17.271  3.0151 -1.9050 -0.5138
  642TIP3   OH226120   1.883   3.952  16.589  0.6184 -0.3019  0.0101
  642TIP3    H126121   1.824   3.942  16.664  0.7522 -1.7905 -0.0668
  642TIP3    H226122   1.961   3.993  16.626 -0.3514  1.5442  0.1373
  643TIP3   OH226123   6.397   3.373  16.575 -0.1203  0.0736 -0.4256
  643TIP3    H126124   6.368   3.386  16.485 -1.4514 -0.5433 -0.1009
  643TIP3    H226125   6.465   3.305  16.568 -0.9256 -0.7093 -0.8672
  644TIP3   OH226126   5.880   2.831  16.764 -0.0261  0.8359  0.2103
  644TIP3    H126127   5.925   2.756  16.803  0.1641  0.4041 -0.8097
  644TIP3    H226128   5.793   2.829  16.803 -0.1239 -0.1045 -0.0212
  645TIP3   OH226129   1.538   6.622  17.685 -0.0750 -0.0236  0.0747
  645TIP3    H126130   1.542   6.551  17.749  0.9617  0.4743  0.5673
  645TIP3    H226131   1.454   6.665  17.703 -0.0264 -0.2010  0.7532
  646TIP3   OH226132   5.991   3.241  17.303 -0.3753 -0.3304  0.3491
  646TIP3    H126133   6.052   3.288  17.360 -0.6159 -0.0247  0.3586
  646TIP3    H226134   6.047   3.191  17.244 -0.1156 -0.0809  0.3835
  647TIP3   OH226135   3.780   5.360  17.627  0.5158 -0.9247  0.4169
  647TIP3    H126136   3.866   5.333  17.597  0.3314  0.2790 -1.3284
  647TIP3    H226137   3.719   5.301  17.582  0.3832 -1.9450  1.8408
  648TIP3   OH226138   2.220   4.178  15.693  0.2600 -0.1254  0.3625
  648TIP3    H126139   2.205   4.123  15.770  0.7910  0.0426  0.5935
  648TIP3    H226140   2.237   4.116  15.622  2.7172 -0.3136  0.9930
  649TIP3   OH226141   0.783   2.469  16.177 -0.1417 -0.0671  0.3328
  649TIP3    H126142   0.704   2.425  16.209  1.1112 -2.5524  0.2566
  649TIP3    H226143   0.801   2.536  16.242 -1.4700 -0.4491  1.1412
  650TIP3   OH226144   2.669   1.990  15.312 -0.1529 -0.0738  0.0224
  650TIP3    H126145   2.729   2.064  15.324 -0.0729 -0.2166  0.5137
  650TIP3    H226146   2.719   1.925  15.263 -0.5581  0.6099 -1.3528
  651TIP3   OH226147   4.515   3.223  18.045  0.3347 -0.0902 -0.1602
  651TIP3    H126148   4.442   3.226  17.983 -0.0171 -0.3511  0.2390
  651TIP3    H226149   4.564   3.304  18.027 -0.8864  0.8408  0.5696
  652TIP3   OH226150   3.649   1.370  14.452  0.6748 -0.6554 -0.9119
  652TIP3    H126151   3.631   1.457  14.417 -0.7889 -0.5547  0.0249
  652TIP3    H226152   3.563   1.336  14.478  1.4471 -1.5819  0.5698
  653TIP3   OH226153   4.182   2.073  15.679 -0.1257  0.2917  0.5150
  653TIP3    H126154   4.137   1.993  15.708 -0.5079  1.1945  2.6377
  653TIP3    H226155   4.257   2.081  15.739  1.7917 -0.1154 -1.6924
  654TIP3   OH226156   0.017   3.014  14.867  0.5261 -0.0413  0.1994
  654TIP3    H126157   0.088   2.950  14.856 -0.5842 -1.1937 -0.4998
  654TIP3    H226158   0.015   3.030  14.961 -0.1557 -2.2466  0.6278
  655TIP3   OH226159   6.234   6.752  16.167 -0.3100 -0.0805 -0.4820
  655TIP3    H126160   6.316   6.802  16.168 -1.2833  1.6514 -1.5585
  655TIP3    H226161   6.260   6.662  16.186  1.6825  0.6234  0.3194
  656TIP3   OH226162   3.484   4.693  17.968 -0.2499 -0.8879 -0.1036
  656TIP3    H126163   3.405   4.740  17.940  2.0536  3.4640 -0.2047
  656TIP3    H226164   3.491   4.710  18.062  0.7126 -0.9306 -0.1520
  657TIP3   OH226165   5.705   2.110  14.990  0.2425 -0.1961 -0.0433
  657TIP3    H126166   5.727   2.085  14.901 -0.9745  0.2864 -0.5066
  657TIP3    H226167   5.621   2.155  14.982  1.4643  2.5263  0.9236
  658TIP3   OH226168   0.047   2.377  17.787  0.6360  0.2104 -0.0919
  658TIP3    H126169  -0.026   2.407  17.841  1.4524  1.7560  0.2224
  658TIP3    H226170   0.094   2.315  17.844  0.8236  0.9329  0.5646
  659TIP3   OH226171   1.336   5.157  16.084  0.0023 -0.6300 -0.3120
  659TIP3    H126172   1.409   5.121  16.133  0.0156 -2.6689 -1.7217
  659TIP3    H226173   1.339   5.114  15.999 -2.8323 -0.8291 -0.4350
  660TIP3   OH226174   1.989   3.390  15.079 -0.2629 -0.1766 -0.2242
  660TIP3    H126175   2.025   3.478  15.086  0.3035 -0.3215 -1.1336
  660TIP3    H226176   2.007   3.364  14.989 -1.8027 -0.6339 -0.4189
  661TIP3   OH226177   5.163   2.434  15.191  0.5824  0.0922 -0.1434
  661TIP3    H126178   5.127   2.361  15.140  0.2039  0.1242  0.0780
  661TIP3    H226179   5.257   2.414  15.197  0.5908 -0.0309 -0.6525
  662TIP3   OH226180   5.684   1.862  16.736  0.5135  0.3779  0.3281
  662TIP3    H126181   5.656   1.853  16.645 -0.2689 -1.0055  0.6764
  662TIP3    H226182   5.611   1.907  16.780  0.6854  0.6131  0.3767
  663TIP3   OH226183   4.688   4.327  15.041  0.5374  0.2671  0.4898
  663TIP3    H126184   4.608   4.299  14.995  2.3861 -2.6595 -1.2444
  663TIP3    H226185   4.692   4.421  15.026 -0.6258 -0.0513 -2.7431
  664TIP3   OH226186   1.965   5.657  17.529 -0.1258  0.3748  0.5762
  664TIP3    H126187   1.910   5.579  17.522  1.7891 -1.0316  0.4325
  664TIP3    H226188   1.942   5.694  17.614  1.2589 -2.2912  2.2439
  665TIP3   OH226189   5.831   1.412  17.503  0.5070  0.5044 -0.1131
  665TIP3    H126190   5.774   1.396  17.579  0.2872 -0.4549 -0.4703
  665TIP3    H226191   5.915   1.438  17.542  0.6684 -0.8603  0.4950
  666TIP3   OH226192   2.281   0.329  16.690  0.1956 -0.1106 -0.2653
  666TIP3    H126193   2.277   0.398  16.625  2.3159 -2.7332 -3.5126
  666TIP3    H226194   2.201   0.279  16.677  0.5405 -0.5365 -0.8115
  667TIP3   OH226195   4.312   3.167  16.626 -0.8673 -0.1775 -0.1537
  667TIP3    H126196   4.359   3.196  16.704 -1.2468  0.2413 -0.0748
  667TIP3    H226197   4.221   3.196  16.641 -0.9257 -0.0291 -0.7776
  668TIP3   OH226198   0.229   6.503  17.287  0.3257 -0.6162  0.4931
  668TIP3    H126199   0.147   6.465  17.257 -0.8961  0.6649  2.0641
  668TIP3    H226200   0.205   6.558  17.362  2.5535  0.1248  0.7468
  669TIP3   OH226201   1.413   5.859  14.985  0.4616  0.1715 -0.4435
  669TIP3    H126202   1.330   5.825  14.951 -0.7463  2.2599  0.1959
  669TIP3    H226203   1.476   5.842  14.915 -0.4128 -1.6642 -0.8606
  670TIP3   OH226204   2.545   3.783  16.315 -0.5308 -0.5801 -0.0108
  670TIP3    H126205   2.455   3.751  16.311 -0.5690 -0.4379 -0.3074
  670TIP3    H226206   2.571   3.769  16.406 -1.4921  1.1244  0.5683
  671TIP3   OH226207   2.865   4.112  16.915 -0.1284  0.3763 -0.0526
  671TIP3    H126208   2.805   4.123  16.841  0.4809 -1.3973 -0.8762
  671TIP3    H226209   2.933   4.177  16.901  0.4778 -0.5441 -1.6135
  672TIP3   OH226210   1.674   4.346  15.553  0.1327  0.1068 -0.1238
  672TIP3    H126211   1.578   4.344  15.551  0.0712  1.6666 -0.4216
  672TIP3    H226212   1.695   4.418  15.613  1.1382 -0.7590  0.5921
  673TIP3   OH226213   3.277   2.387  17.148  0.4383 -0.1225 -0.4378
  673TIP3    H126214   3.254   2.304  17.190  1.1566 -0.6770 -1.1235
  673TIP3    H226215   3.371   2.382  17.135  0.3389  0.3597 -1.4214
  674TIP3   OH226216   0.045   6.624  16.969  0.1114 -0.2314 -0.1415
  674TIP3    H126217  -0.030   6.624  16.909 -0.2835  0.4204  0.3344
  674TIP3    H226218   0.072   6.716  16.973  0.6087 -0.3886  0.0845
  675TIP3   OH226219   3.438   0.396  14.815 -0.3763 -0.4831  0.0909
  675TIP3    H126220   3.493   0.405  14.737 -0.0845 -1.0844  0.2198
  675TIP3    H226221   3.351   0.423  14.786 -1.0991 -3.9360 -1.4732
  676TIP3   OH226222   2.326   2.303  14.954  0.4382 -0.5085  0.3927
  676TIP3    H126223   2.411   2.304  14.997  1.3093  0.3307 -1.2285
  676TIP3    H226224   2.327   2.225  14.899  0.3129 -0.3067  0.0997
  677TIP3   OH226225   2.795   3.905  17.357 -0.2778 -0.3806  0.2191
  677TIP3    H126226   2.883   3.869  17.346 -1.4222 -2.9864 -1.4595
  677TIP3    H226227   2.783   3.962  17.281 -0.0417 -0.0067  0.4606
  678TIP3   OH226228   1.317   3.054  18.002  0.4253 -0.1232 -0.3432
  678TIP3    H126229   1.340   2.969  17.967 -0.1562 -1.4209  2.2083
  678TIP3    H226230   1.401   3.095  18.024  0.6585 -0.5528 -0.4238
  679TIP3   OH226231   4.607   4.376  16.212 -0.1273  0.1853  0.1109
  679TIP3    H126232   4.695   4.403  16.187 -0.1010  0.7478  0.8031
  679TIP3    H226233   4.621   4.309  16.279 -0.2114 -0.7562 -0.7895
  680TIP3   OH226234   1.219   6.657  15.505  0.0507 -0.2083 -0.0678
  680TIP3    H126235   1.233   6.739  15.552  0.5326  0.5112 -1.4144
  680TIP3    H226236   1.221   6.682  15.413  0.6344 -1.7991 -0.5171
  681TIP3   OH226237   5.312   0.454  14.798 -0.3176 -0.0146 -0.5429
  681TIP3    H126238   5.400   0.487  14.819 -0.1556  0.5269 -1.9512
  681TIP3    H226239   5.253   0.518  14.839 -0.0696 -0.2045  0.1377
  682TIP3   OH226240   3.852   2.833  15.909  0.2417  0.2892 -0.6309
  682TIP3    H126241   3.904   2.893  15.856  0.4151  0.6122 -0.0936
  682TIP3    H226242   3.865   2.747  15.868  1.7045  0.2528 -0.1171
  683TIP3   OH226243   6.255   1.100  16.392  0.3185 -0.2507 -0.3435
  683TIP3    H126244   6.224   1.088  16.302  1.2075  0.7922 -0.8225
  683TIP3    H226245   6.204   1.174  16.425 -1.3981 -1.8166  0.7383
  684TIP3   OH226246   1.509   0.257  14.717 -0.7271  0.3878 -0.0849
  684TIP3    H126247   1.557   0.186  14.674  0.1543  1.7214 -1.4072
  684TIP3    H226248   1.465   0.302  14.645 -1.0733  1.3313  0.7021
  685TIP3   OH226249   5.282   0.582  17.024 -0.0245  0.3218 -0.2541
  685TIP3    H126250   5.307   0.582  17.116 -3.2041  1.0739  0.6950
  685TIP3    H226251   5.311   0.496  16.992 -2.3330 -1.6883  2.5345
  686TIP3   OH226252   1.365   0.739  16.430  0.1657 -0.0343  0.2322
  686TIP3    H126253   1.453   0.768  16.456  0.8678 -0.6155 -1.3464
  686TIP3    H226254   1.363   0.646  16.450  0.5775 -0.4051 -1.3211
  687TIP3   OH226255   4.673   3.778  17.524  0.3055 -0.6192 -0.1681
  687TIP3    H126256   4.633   3.801  17.439 -1.5717  1.0572  1.0709
  687TIP3    H226257   4.765   3.802  17.514  0.2454 -0.9844 -1.9061
  688TIP3   OH226258   4.345   0.468  15.508 -0.5003  0.5325 -0.4931
  688TIP3    H126259   4.330   0.478  15.602 -0.2393  0.9290 -0.4905
  688TIP3    H226260   4.338   0.374  15.492 -2.3844  0.6128 -0.3799
  689TIP3   OH226261   3.942   5.313  14.500 -0.9780  0.0910 -0.8284
  689TIP3    H126262   3.873   5.292  14.438 -0.2660 -2.0280 -0.9911
  689TIP3    H226263   3.928   5.254  14.573 -0.5810  1.1181  0.1037
  690TIP3   OH226264   6.769   3.209  14.527 -0.3599  0.2447 -0.6569
  690TIP3    H126265   6.815   3.212  14.443  0.1506 -0.6322 -0.4119
  690TIP3    H226266   6.823   3.262  14.586  0.7011 -1.2908 -0.2053
  691TIP3   OH226267   0.091   0.604  14.639 -0.5580 -0.6615  0.0821
  691TIP3    H126268   0.181   0.578  14.659 -0.2979 -0.4585 -0.7864
  691TIP3    H226269   0.080   0.584  14.546 -0.4809  1.8978 -0.5567
  692TIP3   OH226270   3.033   4.765  15.731 -0.1241  0.3721  0.1567
  692TIP3    H126271   3.059   4.700  15.797  0.9039 -0.9406 -1.4798
  692TIP3    H226272   3.052   4.849  15.772 -0.1215 -0.3825  1.7846
  693TIP3   OH226273   3.566   5.649  14.990  0.2227  0.4544  0.0615
  693TIP3    H126274   3.570   5.732  15.037 -0.9206 -1.2830  3.5355
  693TIP3    H226275   3.479   5.648  14.950 -0.5164  0.2075  1.6109
  694TIP3   OH226276   4.050   3.366  16.253 -0.1203 -0.0144 -0.4213
  694TIP3    H126277   4.143   3.383  16.235  0.3063 -2.3139 -0.7543
  694TIP3    H226278   4.051   3.291  16.312 -1.7748  0.0325 -0.3049
  695TIP3   OH226279   3.280   4.290  17.114  0.0272 -0.2002 -0.0409
  695TIP3    H126280   3.333   4.334  17.048 -0.6682  0.2266 -0.3217
  695TIP3    H226281   3.316   4.201  17.118  1.2523  0.2962  0.3317
  696TIP3   OH226282   1.332   0.399  14.910  0.3077 -0.2178 -0.9038
  696TIP3    H126283   1.414   0.358  14.880  0.1355 -0.7005 -0.7230
  696TIP3    H226284   1.347   0.492  14.899  1.0189 -0.2802 -0.5371
  697TIP3   OH226285   4.063   3.794  16.843 -0.0354 -0.4552 -0.5254
  697TIP3    H126286   4.131   3.851  16.807 -0.0210 -0.0846  0.0841
  697TIP3    H226287   3.988   3.851  16.856 -0.0990 -0.6267 -0.1343
  698TIP3   OH226288   5.335   1.477  17.588  0.6156  0.0310 -0.6939
  698TIP3    H126289   5.391   1.400  17.597 -1.1439 -1.1057  2.5160
  698TIP3    H226290   5.261   1.447  17.536  0.4855 -0.1317 -0.4199
  699TIP3   OH226291   1.106   3.981  15.419  0.3018 -0.0695 -0.1412
  699TIP3    H126292   1.047   4.024  15.357  1.6034 -0.2440 -1.5675
  699TIP3    H226293   1.154   4.053  15.460 -0.1228  0.0122  0.2217
  700TIP3   OH226294   4.312   4.309  17.075  0.5377  0.2357 -0.5468
  700TIP3    H126295   4.327   4.218  17.048 -0.9101 -0.4830  0.8910
  700TIP3    H226296   4.217   4.319  17.075  0.5366  0.9178  1.7186
  701TIP3   OH226297   1.122   5.105  16.997  0.0674  0.1649  0.4811
  701TIP3    H126298   1.115   5.193  16.959 -0.6118  0.5790  1.5261
  701TIP3    H226299   1.176   5.117  17.076  2.4855 -0.8853 -0.8877
  702TIP3   OH226300   0.059   6.303  15.840  0.7763 -0.0421 -0.4109
  702TIP3    H126301   0.023   6.381  15.799  1.3693  0.8096  0.6098
  702TIP3    H226302   0.147   6.330  15.869  1.1836 -1.2365 -0.4624
  703TIP3   OH226303   1.336   4.575  16.472 -0.2551 -0.1583  0.7556
  703TIP3    H126304   1.397   4.603  16.540 -0.9303  0.9547  0.9328
  703TIP3    H226305   1.251   4.574  16.516 -0.6398  0.1930  0.0211
  704TIP3   OH226306   5.786   6.454  15.849 -0.0776  0.0378  0.0696
  704TIP3    H126307   5.831   6.409  15.779 -0.8423  1.3969 -1.3543
  704TIP3    H226308   5.854   6.503  15.895  0.1822  0.7457 -1.0205
  705TIP3   OH226309   1.367   2.419  17.644 -0.4213  0.4942 -0.0749
  705TIP3    H126310   1.294   2.374  17.601 -0.6277  0.7671 -0.0212
  705TIP3    H226311   1.442   2.361  17.633 -1.1517 -0.9790  1.9350
  706TIP3   OH226312   3.880   3.990  16.014 -0.2716  0.2610 -0.2878
  706TIP3    H126313   3.827   4.054  16.061 -1.1093 -1.3321  1.0689
  706TIP3    H226314   3.916   4.038  15.940  1.4913  3.0922  2.1378
  707TIP3   OH226315   2.722   0.882  18.110  0.0575  0.2958 -0.1070
  707TIP3    H126316   2.792   0.831  18.070  1.3732  3.1577 -1.7178
  707TIP3    H226317   2.644   0.827  18.099  1.1743 -0.9532 -2.6242
  708TIP3   OH226318   3.007   5.135  16.099  0.1852  0.1246  0.5499
  708TIP3    H126319   3.052   5.215  16.126  2.0679 -1.1470  1.4048
  708TIP3    H226320   2.999   5.084  16.180  0.9144 -1.4040 -0.2953
  709TIP3   OH226321   5.469   3.109  16.910 -0.0592 -0.1009 -0.2361
  709TIP3    H126322   5.389   3.115  16.859 -1.1755 -2.1549  1.1031
  709TIP3    H226323   5.537   3.087  16.846 -0.8639  0.1208 -1.1906
  710TIP3   OH226324   4.733   0.615  15.137  0.2237  0.6015 -0.4268
  710TIP3    H126325   4.727   0.557  15.213 -0.2764 -1.0509 -1.6657
  710TIP3    H226326   4.728   0.703  15.173 -0.0127 -0.1453  1.4493
  711TIP3   OH226327   3.593   4.903  17.237  0.4391 -0.0286  0.2373
  711TIP3    H126328   3.558   4.861  17.316  1.5668 -1.3994  0.0464
  711TIP3    H226329   3.671   4.851  17.214 -0.2326 -0.1014 -2.1705
  712TIP3   OH226330   3.265   5.328  16.158 -0.0960  0.2625 -0.2909
  712TIP3    H126331   3.253   5.357  16.068 -1.2910  1.4094  0.1869
  712TIP3    H226332   3.213   5.391  16.210  2.7198  1.3371  1.4537
  713TIP3   OH226333   5.302   5.056  16.282 -0.4025 -0.1621  0.1095
  713TIP3    H126334   5.215   5.031  16.313 -1.3376 -1.9503 -3.4265
  713TIP3    H226335   5.354   4.976  16.288 -0.6316 -0.5974 -2.5986
  714TIP3   OH226336   1.250   3.901  17.648  0.7103  0.3929  0.2310
  714TIP3    H126337   1.245   3.881  17.554  1.4420 -0.9088  0.4434
  714TIP3    H226338   1.308   3.834  17.684  0.8184  1.1524  1.5496
  715TIP3   OH226339   5.588   2.506  15.619  0.2186 -0.1808 -0.2395
  715TIP3    H126340   5.557   2.504  15.709 -0.1104  2.7539 -0.1833
  715TIP3    H226341   5.661   2.568  15.619 -0.2926  0.5128 -2.0845
  716TIP3   OH226342   0.059   4.321  16.179 -0.0616 -0.0836 -0.4504
  716TIP3    H126343   0.032   4.328  16.270  1.7287 -2.8464  0.3991
  716TIP3    H226344   0.001   4.255  16.141  0.1695 -0.0257 -0.9127
  717TIP3   OH226345   4.986   0.296  15.344 -0.2441 -0.6166 -0.2547
  717TIP3    H126346   5.050   0.283  15.414 -1.0597  0.8983  0.8457
  717TIP3    H226347   4.908   0.247  15.373 -0.4344 -0.3465 -0.3019
  718TIP3   OH226348   2.548   3.660  17.711 -0.4752 -0.0105  0.2425
  718TIP3    H126349   2.558   3.750  17.740  0.7264 -0.3863  1.0835
  718TIP3    H226350   2.591   3.608  17.780 -3.0718 -1.4051  0.9254
  719TIP3   OH226351   0.546   0.198  15.528 -0.1623 -1.0034 -0.1832
  719TIP3    H126352   0.632   0.199  15.571 -0.1866  0.0540 -0.1344
  719TIP3    H226353   0.546   0.117  15.477  0.9877 -0.8785 -0.4135
  720TIP3   OH226354   0.318   1.725  17.259 -0.4995 -0.6433  0.3302
  720TIP3    H126355   0.302   1.720  17.165 -2.5756  2.1271  0.4141
  720TIP3    H226356   0.253   1.666  17.298 -1.9808  0.7815  0.1056
  721TIP3   OH226357   4.704   6.562  17.227 -0.7136  0.1087 -0.0307
  721TIP3    H126358   4.792   6.574  17.193 -0.8063  2.0671  0.3051
  721TIP3    H226359   4.717   6.531  17.317 -0.4232 -1.2761 -0.5276
  722TIP3   OH226360   5.507   5.989  17.226  0.0406  1.1332  0.5331
  722TIP3    H126361   5.503   5.899  17.193 -2.8863  0.7160  1.6465
  722TIP3    H226362   5.574   5.987  17.294  0.1992 -0.1650  0.3698
  723TIP3   OH226363   3.432   0.855  15.232  0.2168  0.0474  0.0242
  723TIP3    H126364   3.518   0.892  15.253 -0.9623  4.0012 -1.1067
  723TIP3    H226365   3.406   0.807  15.310  2.8662 -0.0667  0.9043
  724TIP3   OH226366   2.079   2.706  15.440 -0.5661 -0.2250 -0.0442
  724TIP3    H126367   1.992   2.740  15.417 -0.3564 -0.4244 -1.1993
  724TIP3    H226368   2.076   2.614  15.416 -0.0045 -0.2091 -0.1914
  725TIP3   OH226369   2.154   1.380  14.449  0.0953  0.1363  0.2172
  725TIP3    H126370   2.228   1.329  14.480 -0.1508 -0.4786 -0.1803
  725TIP3    H226371   2.174   1.470  14.473  2.1388  0.3849 -2.0456
  726TIP3   OH226372   5.872   6.109  15.877 -0.7502 -0.4861 -0.0256
  726TIP3    H126373   5.812   6.142  15.809  0.8584  2.4719 -0.1693
  726TIP3    H226374   5.842   6.151  15.957 -0.0991 -0.6398  0.2993
  727TIP3   OH226375   2.748   4.069  17.622 -0.2720  0.2374  0.8353
  727TIP3    H126376   2.746   4.038  17.532  2.2705  0.4950  0.6178
  727TIP3    H226377   2.838   4.055  17.650 -0.9184  0.5111  3.2334
  728TIP3   OH226378   2.225   1.098  17.398  0.0177 -0.4085 -0.1631
  728TIP3    H126379   2.286   1.143  17.340  1.1477 -1.1941  0.3758
  728TIP3    H226380   2.196   1.022  17.348 -0.1725 -0.2710 -0.2598
  729TIP3   OH226381   1.814   0.440  16.642  0.1824 -0.5663  0.6986
  729TIP3    H126382   1.861   0.500  16.701  1.4767 -2.1106  1.3154
  729TIP3    H226383   1.764   0.383  16.700  0.2162 -1.0912  0.2210
  730TIP3   OH226384   2.420   0.777  17.921  0.7399  0.0252 -0.1392
  730TIP3    H126385   2.398   0.745  18.008  0.8792  0.6862  0.1483
  730TIP3    H226386   2.337   0.808  17.885  0.6570 -0.3816 -0.3018
  731TIP3   OH226387   6.318   1.976  16.586  0.0750 -0.1756  0.1548
  731TIP3    H126388   6.300   1.986  16.680  1.0929 -0.1085  0.3500
  731TIP3    H226389   6.270   2.048  16.545 -2.2085 -1.4712  0.3666
  732TIP3   OH226390   5.081   6.297  17.497 -0.1890 -0.2230 -0.9364
  732TIP3    H126391   5.088   6.365  17.564  0.5766 -1.5732  0.3946
  732TIP3    H226392   5.153   6.315  17.437  0.9403 -0.7117  0.2351
  733TIP3   OH226393   0.398   6.486  14.533  0.1382 -0.1300 -0.0424
  733TIP3    H126394   0.304   6.480  14.548  0.1013 -2.1611 -0.6852
  733TIP3    H226395   0.416   6.579  14.522 -1.7203  0.3220  0.5246
  734TIP3   OH226396   3.010   4.619  16.669  0.3528  0.2905 -0.3300
  734TIP3    H126397   3.104   4.604  16.675  0.1921 -0.6127  0.0459
  734TIP3    H226398   3.002   4.710  16.640  1.3355  0.5267  0.1030
  735TIP3   OH226399   1.618   5.142  15.755  0.7506 -0.1467 -0.0248
  735TIP3    H126400   1.634   5.092  15.835  1.4148 -0.7731 -0.5439
  735TIP3    H226401   1.705   5.155  15.717  0.4706  0.4466 -0.4691
  736TIP3   OH226402   4.120   6.002  17.907  0.2460  0.5984  0.7568
  736TIP3    H126403   4.074   6.063  17.849  1.3458  1.1620  0.4466
  736TIP3    H226404   4.056   5.933  17.925 -0.0767  0.3056 -1.2734
  737TIP3   OH226405   0.242   0.475  15.060  0.1224 -0.8116  0.5004
  737TIP3    H126406   0.288   0.556  15.082  0.6085 -0.5236 -1.3482
  737TIP3    H226407   0.173   0.467  15.126  0.2070  0.9995  0.8553
  738TIP3   OH226408   2.499   3.461  17.492  0.4607 -0.1628 -0.0438
  738TIP3    H126409   2.502   3.534  17.554  0.6895  0.4646 -0.7761
  738TIP3    H226410   2.498   3.503  17.405 -0.5443 -1.0067 -0.4588
  739TIP3   OH226411   3.775   4.715  14.835  0.0328 -0.0045 -0.1780
  739TIP3    H126412   3.808   4.731  14.746 -0.1605 -0.0170 -0.2526
  739TIP3    H226413   3.724   4.634  14.827 -0.5064  0.3291 -0.1913
  740TIP3   OH226414   4.950   1.856  16.397 -0.3654 -0.0063 -0.4487
  740TIP3    H126415   4.945   1.944  16.361 -1.0053 -0.7820 -2.3988
  740TIP3    H226416   4.866   1.816  16.377 -0.2197 -0.9793  0.7046
  741TIP3   OH226417   2.576   4.341  17.611  0.1182  0.3101 -0.3284
  741TIP3    H126418   2.544   4.297  17.689 -2.0764  1.1763 -0.6748
  741TIP3    H226419   2.607   4.270  17.555 -2.2883 -0.7677 -0.4258
  742TIP3   OH226420   3.585   1.275  16.932 -0.0697 -0.2648 -0.2170
  742TIP3    H126421   3.492   1.259  16.919 -0.4309 -0.0110  1.8299
  742TIP3    H226422   3.624   1.257  16.846 -1.5954 -3.1265 -0.4483
  743TIP3   OH226423   3.465   5.223  15.354 -0.0423 -0.1484  0.0373
  743TIP3    H126424   3.386   5.198  15.307 -0.3099 -2.2868  1.4845
  743TIP3    H226425   3.435   5.289  15.417  0.0181  1.4972 -1.5629
  744TIP3   OH226426   0.924   5.550  14.664  0.2189 -0.4588  1.1134
  744TIP3    H126427   0.938   5.636  14.702  0.8949 -0.0205 -0.0842
  744TIP3    H226428   1.012   5.514  14.653  0.0304 -0.6423  0.1354
  745TIP3   OH226429   2.976   6.139  15.225 -0.0780  0.3394  0.0682
  745TIP3    H126430   3.043   6.173  15.285 -0.1213 -2.0723  1.6414
  745TIP3    H226431   3.027   6.097  15.155  0.0141  0.5661 -0.0017
  746TIP3   OH226432   3.446   0.097  16.014  0.3083  0.1426  0.3650
  746TIP3    H126433   3.491   0.178  15.990 -2.7926  2.8578  2.8504
  746TIP3    H226434   3.396   0.074  15.936 -0.7029  2.1751  0.3338
  747TIP3   OH226435   2.327   3.638  16.310  0.1363 -0.1149  0.2286
  747TIP3    H126436   2.286   3.635  16.397  1.4820  2.0970  1.0281
  747TIP3    H226437   2.354   3.547  16.293  2.2865 -0.2386  3.4157
  748TIP3   OH226438   2.222   3.179  16.938 -0.2670 -0.3431 -0.3165
  748TIP3    H126439   2.145   3.205  16.988 -0.7087 -0.3610 -0.9852
  748TIP3    H226440   2.253   3.100  16.982 -0.9544 -0.6512 -0.3758
  749TIP3   OH226441   3.572   2.203  15.943  0.3744 -0.2169 -0.3848
  749TIP3    H126442   3.559   2.150  16.022  0.3596 -0.6867 -0.7039
  749TIP3    H226443   3.484   2.237  15.923  0.2057 -0.8494 -0.7312
  750TIP3   OH226444   2.618   5.643  17.466 -0.5439 -0.1638  0.0316
  750TIP3    H126445   2.642   5.561  17.508 -0.9008 -0.6309 -0.6504
  750TIP3    H226446   2.676   5.709  17.505 -1.0919 -0.5073  1.4868
  751TIP3   OH226447   0.522   6.103  17.521 -0.3911 -0.0250  0.2720
  751TIP3    H126448   0.519   6.012  17.490 -0.1805 -0.0726  0.3868
  751TIP3    H226449   0.594   6.104  17.583  0.7961  0.6342 -1.0576
  752TIP3   OH226450   1.029   2.241  16.532  0.5571  0.1058  0.4174
  752TIP3    H126451   1.106   2.220  16.585  0.9873  0.0438 -0.2238
  752TIP3    H226452   1.055   2.318  16.481 -0.0096  0.4395  0.6232
  753TIP3   OH226453   3.000   2.563  16.802 -0.4380 -0.0596 -0.1645
  753TIP3    H126454   3.017   2.573  16.896  1.9958  0.5159 -0.5939
  753TIP3    H226455   2.955   2.644  16.777  1.1416  0.9428  0.0918
  754TIP3   OH226456   1.565   3.028  17.616  0.5467  0.1885  0.1185
  754TIP3    H126457   1.511   2.955  17.585  0.8335  0.6075 -1.4312
  754TIP3    H226458   1.654   2.992  17.620  0.9001  0.7421 -1.8391
  755TIP3   OH226459   3.081   5.955  16.902 -0.1801 -0.1690 -0.0351
  755TIP3    H126460   3.160   5.975  16.853  0.9949  0.6531  2.0507
  755TIP3    H226461   3.098   5.869  16.940 -0.4624 -0.1682  0.0967
  756TIP3   OH226462   1.275   4.376  16.862 -0.1273 -0.2420 -0.4821
  756TIP3    H126463   1.291   4.471  16.863 -1.3667 -0.0074  0.3333
  756TIP3    H226464   1.318   4.345  16.942 -0.2935 -0.2495 -0.3943
  757TIP3   OH226465   5.184   5.212  17.517  0.0874 -0.1639  0.4091
  757TIP3    H126466   5.278   5.193  17.513 -0.4260 -2.9460 -0.5950
  757TIP3    H226467   5.154   5.166  17.596 -0.2108  2.2500  1.7918
  758TIP3   OH226468   2.420   5.125  17.797 -0.1778 -0.1918  0.2126
  758TIP3    H126469   2.334   5.096  17.766 -0.0220 -0.3029 -0.1190
  758TIP3    H226470   2.413   5.220  17.801 -1.1283 -0.2872  2.5828
  759TIP3   OH226471   1.936   0.115  15.692  0.0620 -0.3020  0.4180
  759TIP3    H126472   2.008   0.174  15.668  0.0665 -0.4971 -0.0614
  759TIP3    H226473   1.877   0.169  15.745  0.4219 -0.0634  0.5794
  760TIP3   OH226474   3.359   6.026  14.857 -0.1945 -0.3360  0.0188
  760TIP3    H126475   3.376   6.011  14.764 -1.4917 -0.6117 -0.2048
  760TIP3    H226476   3.341   6.120  14.863  0.0871 -0.2820  0.0297
  761TIP3   OH226477   1.043   0.823  14.883  0.0478  0.1161 -0.3099
  761TIP3    H126478   0.968   0.774  14.917  0.8890 -0.0081  1.5241
  761TIP3    H226479   1.005   0.902  14.844 -1.0625 -0.1294  0.2372
  762TIP3   OH226480   4.877   0.235  16.731 -0.5086 -0.4305  0.0270
  762TIP3    H126481   4.909   0.316  16.691  2.7543 -0.6720  1.7526
  762TIP3    H226482   4.907   0.166  16.671  0.8489 -0.5578  0.8086
  763TIP3   OH226483   2.828   4.440  16.544 -0.1393  0.7046 -0.3100
  763TIP3    H126484   2.879   4.479  16.615  1.9159 -1.2561 -0.6107
  763TIP3    H226485   2.793   4.515  16.496 -0.8676  2.0875  2.1949
  764TIP3   OH226486   4.122   5.989  14.866 -0.6149 -0.1688  0.3726
  764TIP3    H126487   4.129   6.025  14.777  0.5960  1.7868  1.1801
  764TIP3    H226488   4.165   5.904  14.860  3.3216  1.5988 -0.1612
  765TIP3   OH226489   0.265   2.678  16.812  0.0770  0.2457 -0.6948
  765TIP3    H126490   0.354   2.709  16.791  1.7530 -3.4287  0.1938
  765TIP3    H226491   0.239   2.627  16.736  0.7495 -2.4318  0.7583
  766TIP3   OH226492   6.276   4.814  16.289  0.0036 -0.2876  0.4379
  766TIP3    H126493   6.267   4.903  16.323  0.3098  0.9355 -2.3455
  766TIP3    H226494   6.365   4.788  16.313  1.6249  2.0249 -2.3001
  767TIP3   OH226495   1.878   4.147  15.646  0.0194 -0.0320  0.2057
  767TIP3    H126496   1.878   4.056  15.618  0.9481  0.1879 -0.5720
  767TIP3    H226497   1.798   4.184  15.608 -0.3598 -0.5177  0.5260
  768TIP3   OH226498   2.532   3.841  15.850 -0.0993 -0.1289  0.4746
  768TIP3    H126499   2.461   3.905  15.845 -0.2083 -0.1977  1.1521
  768TIP3    H226500   2.499   3.772  15.908  1.3261  0.8655  2.5856
  769TIP3   OH226501   6.168   5.484  15.140 -0.6447  0.8990 -0.2189
  769TIP3    H126502   6.132   5.572  15.146  0.8300  1.7228 -2.3070
  769TIP3    H226503   6.094   5.429  15.116 -1.3934  1.7068  0.1716
  770TIP3   OH226504   5.261   1.174  16.100  0.0833 -0.2858 -0.2003
  770TIP3    H126505   5.327   1.243  16.093  0.1959 -0.2244  1.2065
  770TIP3    H226506   5.181   1.214  16.068  0.2606  0.3518  0.1293
  771TIP3   OH226507   1.471   4.548  15.794  0.2252 -0.2663  0.0411
  771TIP3    H126508   1.468   4.628  15.847  1.2948  0.9851 -1.6880
  771TIP3    H226509   1.562   4.520  15.799  0.2594 -0.3367 -0.8106
  772TIP3   OH226510   1.652   1.384  15.102  0.4773  0.3083  0.0030
  772TIP3    H126511   1.572   1.425  15.136  1.0507 -0.1272  1.9920
  772TIP3    H226512   1.648   1.294  15.134 -0.0967 -0.9166 -3.1524
  773TIP3   OH226513   5.608   5.641  16.223 -0.2287  0.0066 -0.1412
  773TIP3    H126514   5.588   5.552  16.251  2.8567 -1.2076 -1.3448
  773TIP3    H226515   5.679   5.669  16.281  0.0697  0.9481 -0.9325
  774TIP3   OH226516   5.247   1.239  17.953  0.5433  0.0716 -0.4196
  774TIP3    H126517   5.200   1.251  18.035  1.8821 -0.9631  0.5488
  774TIP3    H226518   5.228   1.318  17.903 -2.7157 -0.5642 -0.4033
  775TIP3   OH226519   5.095   6.440  14.972 -0.2840  0.0392 -0.1865
  775TIP3    H126520   5.168   6.493  15.004 -0.4054  1.1292 -1.5855
  775TIP3    H226521   5.133   6.386  14.903 -0.7954  0.7312 -1.0336
  776TIP3   OH226522   5.721   6.103  17.429  0.5447  0.0876  0.6023
  776TIP3    H126523   5.786   6.169  17.407  1.1738 -0.9169 -0.6633
  776TIP3    H226524   5.758   6.021  17.397 -0.9271 -0.6574  0.7220
  777TIP3   OH226525   2.754   2.211  17.616 -0.0708 -0.1123 -0.4460
  777TIP3    H126526   2.664   2.229  17.643  0.1622 -0.2066  0.4376
  777TIP3    H226527   2.746   2.172  17.529 -0.8168  0.8493 -0.8381
  778TIP3   OH226528   6.428   2.199  15.900  0.2834  0.0897 -0.0065
  778TIP3    H126529   6.447   2.233  15.988  0.8944  0.1105 -0.1402
  778TIP3    H226530   6.435   2.104  15.908 -1.1646 -0.0145  0.3059
  779TIP3   OH226531   0.957   6.306  16.957  0.3585 -0.3161 -0.1703
  779TIP3    H126532   0.966   6.320  17.051  2.1195  0.4503 -0.4167
  779TIP3    H226533   1.032   6.250  16.934 -0.2422 -0.7785 -1.0611
  780TIP3   OH226534   1.618   0.664  15.339 -0.5799 -0.0417 -0.5126
  780TIP3    H126535   1.620   0.679  15.244 -1.9223 -0.4684 -0.6262
  780TIP3    H226536   1.674   0.587  15.352  0.1317  0.4045 -0.8628
  781TIP3   OH226537   4.524   3.401  15.014  0.1867  0.5221 -1.0476
  781TIP3    H126538   4.443   3.356  14.991 -0.4278  1.2520 -0.3866
  781TIP3    H226539   4.593   3.336  15.000 -0.3134  0.3852 -3.2068
  782TIP3   OH226540   4.841   4.798  17.066 -0.4193 -0.0594 -0.6283
  782TIP3    H126541   4.859   4.706  17.085  0.6075  0.3143  0.3029
  782TIP3    H226542   4.927   4.840  17.064 -0.9426  1.1535  0.5116
  783TIP3   OH226543   4.477   1.644  16.563  0.5306 -0.5892  0.3028
  783TIP3    H126544   4.391   1.622  16.600  0.9096 -0.5251  1.2337
  783TIP3    H226545   4.491   1.735  16.586  0.1155 -0.0841 -1.3181
  784TIP3   OH226546   1.679   0.701  15.067 -0.1105  0.4515  0.2757
  784TIP3    H126547   1.751   0.638  15.059  0.1723  0.7790  0.2076
  784TIP3    H226548   1.701   0.771  15.005 -0.8617  0.2054 -0.2915
  785TIP3   OH226549   5.332   0.518  16.664  0.3425  0.1548  0.0034
  785TIP3    H126550   5.338   0.596  16.720  0.7005 -0.2086  0.4723
  785TIP3    H226551   5.270   0.461  16.709 -0.0421  0.2297 -0.4220
  786TIP3   OH226552   5.226   1.746  16.640  0.0192  0.2334 -0.1862
  786TIP3    H126553   5.239   1.652  16.624 -0.5431  0.4428 -2.0111
  786TIP3    H226554   5.144   1.750  16.690 -1.2656 -0.1586 -2.1391
  787TIP3   OH226555   2.432   6.059  16.329 -0.3140 -0.1237 -0.6464
  787TIP3    H126556   2.444   6.017  16.414  0.5220 -1.4013 -1.3591
  787TIP3    H226557   2.520   6.079  16.299 -0.4897 -1.0724 -1.8707
  788TIP3   OH226558   1.325   0.680  18.041  0.2409  0.1538  0.4594
  788TIP3    H126559   1.337   0.587  18.059  1.1564  0.1890  0.0557
  788TIP3    H226560   1.249   0.683  17.983  0.0538 -0.3234  0.6757
  789TIP3   OH226561   5.006   1.021  15.384  0.2654 -0.4622  0.5216
  789TIP3    H126562   5.010   1.008  15.479 -0.0282 -2.1616  0.3239
  789TIP3    H226563   5.079   0.971  15.349  0.1414 -0.1624 -0.1855
  790TIP3   OH226564   6.708   5.054  16.886  0.2869 -0.1578 -0.1707
  790TIP3    H126565   6.679   4.964  16.893 -1.1610  0.2309 -0.9543
  790TIP3    H226566   6.791   5.049  16.837  0.7394 -1.1261  0.6655
  791TIP3   OH226567   2.341   4.630  16.658 -0.6721 -0.3933 -0.2107
  791TIP3    H126568   2.250   4.610  16.638 -0.2878 -0.9991 -1.4810
  791TIP3    H226569   2.381   4.646  16.573 -0.0830  2.1959  0.4580
  792TIP3   OH226570   0.952   3.291  14.569 -0.5562 -0.2984  0.3476
  792TIP3    H126571   0.992   3.378  14.563  2.3969 -1.4739  1.5441
  792TIP3    H226572   0.887   3.300  14.639  0.4178  0.7183  1.1614
  793TIP3   OH226573   4.595   6.445  14.766 -0.4444 -0.0043  0.2118
  793TIP3    H126574   4.649   6.366  14.776  1.3889  1.2436  0.6933
  793TIP3    H226575   4.597   6.464  14.672 -0.4499 -0.2361  0.1642
  794TIP3   OH226576   3.855   3.670  16.565  0.2861  0.0818  0.1693
  794TIP3    H126577   3.919   3.600  16.557  0.0540 -0.1906  0.6698
  794TIP3    H226578   3.903   3.749  16.541  0.8241 -0.1117  0.5951
  795TIP3   OH226579   3.572   1.164  15.282 -0.3754  0.2052  0.2640
  795TIP3    H126580   3.587   1.080  15.326 -1.3531 -0.6067 -0.8784
  795TIP3    H226581   3.489   1.194  15.316 -1.6376 -0.9078 -1.6207
  796TIP3   OH226582   3.946   5.219  17.889 -0.1903  0.6704  0.3283
  796TIP3    H126583   3.853   5.200  17.877 -0.2802  0.4086  1.3534
  796TIP3    H226584   3.950   5.273  17.968  0.5595  0.3315  0.5346
  797TIP3   OH226585   5.190   3.506  17.380  0.3974  0.4365  0.7642
  797TIP3    H126586   5.112   3.558  17.398  0.4527  0.5707  0.6171
  797TIP3    H226587   5.157   3.417  17.368  0.1009  0.7214 -0.6547
  798TIP3   OH226588   5.637   1.979  14.231  0.1705  0.1847  0.1762
  798TIP3    H126589   5.593   1.918  14.173  0.6012 -2.8222  2.7400
  798TIP3    H226590   5.725   1.943  14.243 -0.1024  0.2086  3.1145
  799TIP3   OH226591   1.390   1.346  15.967  0.5046 -0.8695  0.5047
  799TIP3    H126592   1.356   1.395  16.041 -2.5100 -0.8643 -0.7562
  799TIP3    H226593   1.375   1.254  15.989  1.8708 -1.0291  0.8841
  800TIP3   OH226594   2.216   6.571  17.943  0.3658  0.4839  0.0702
  800TIP3    H126595   2.277   6.511  17.901 -0.6957 -2.1276  1.9910
  800TIP3    H226596   2.245   6.575  18.034 -0.2746  2.0484  0.2350
  801TIP3   OH226597   1.949   0.026  17.134 -0.7893 -0.6430 -0.0245
  801TIP3    H126598   2.007   0.081  17.081  1.5997 -0.5065  2.4879
  801TIP3    H226599   1.913   0.085  17.199 -0.7758 -1.4374  0.7154
  802TIP3   OH226600   4.801   2.808  15.393  0.0277 -0.3267  0.2492
  802TIP3    H126601   4.889   2.785  15.422  0.2386  0.4749  0.2701
  802TIP3    H226602   4.809   2.898  15.363  0.0062 -1.2662 -2.9899
  803TIP3   OH226603   2.370   3.520  15.068  0.0792 -0.0521 -0.6337
  803TIP3    H126604   2.284   3.561  15.080 -0.7403 -1.4412 -1.4810
  803TIP3    H226605   2.354   3.449  15.006  1.7215 -0.7642 -0.2849
  804TIP3   OH226606   1.944   1.398  15.326  0.4104 -0.3877 -0.0391
  804TIP3    H126607   1.857   1.367  15.351  0.7644 -0.7615  0.7409
  804TIP3    H226608   1.987   1.320  15.289  0.1703 -0.0319 -1.1218
  805TIP3   OH226609   6.060   3.764  17.220 -0.0300  0.3124 -0.5636
  805TIP3    H126610   6.123   3.745  17.290  1.8182 -1.4211 -2.5807
  805TIP3    H226611   6.000   3.689  17.221 -0.9534  1.0218  0.0701
  806TIP3   OH226612   4.348   0.189  14.599  0.0651  0.2798 -0.1553
  806TIP3    H126613   4.395   0.272  14.595 -1.3038  1.0570 -2.5770
  806TIP3    H226614   4.265   0.211  14.642 -0.2507  0.1883 -0.6972
  807TIP3   OH226615   6.374   3.668  16.521  0.0551 -0.0940 -0.1435
  807TIP3    H126616   6.362   3.574  16.504  0.5667 -0.7597  2.5571
  807TIP3    H226617   6.297   3.693  16.571  0.1991  0.7716 -0.3433
  808TIP3   OH226618   5.802   0.331  16.883 -0.3318  0.3678 -0.1324
  808TIP3    H126619   5.782   0.238  16.886  0.3721  0.1957 -0.5549
  808TIP3    H226620   5.835   0.351  16.971 -0.1180  0.1243 -0.1536
  809TIP3   OH226621   4.937   2.648  15.723  0.4066 -0.2026 -0.3344
  809TIP3    H126622   5.015   2.617  15.767  0.0243 -1.9370 -0.8104
  809TIP3    H226623   4.865   2.598  15.762 -0.1362 -0.5509 -1.6914
  810TIP3   OH226624   2.378   3.409  16.633 -0.4131  0.6641  0.3361
  810TIP3    H126625   2.350   3.326  16.671 -0.5910  2.0100  3.4612
  810TIP3    H226626   2.468   3.421  16.663  0.5996  0.4495 -2.3297
  811TIP3   OH226627   3.222   5.317  15.146 -0.0374  0.3149 -0.1660
  811TIP3    H126628   3.228   5.412  15.135  0.2686  0.4772  1.2582
  811TIP3    H226629   3.255   5.281  15.064  1.9105  1.4204  0.0818
  812TIP3   OH226630   2.278   4.733  17.351  0.0330  0.3653 -0.4787
  812TIP3    H126631   2.349   4.755  17.411  0.6091 -1.4302 -0.4235
  812TIP3    H226632   2.198   4.752  17.401  0.4948  0.1333  0.3800
  813TIP3   OH226633   5.791   2.705  15.598  0.5458  0.7755 -0.4918
  813TIP3    H126634   5.763   2.795  15.580  1.5740  1.0002 -1.0391
  813TIP3    H226635   5.886   2.711  15.608  0.7702 -0.4239 -1.7073
  814TIP3   OH226636   5.742   0.737  14.921  0.2623 -0.3684 -0.2228
  814TIP3    H126637   5.820   0.779  14.957  0.0014 -0.8555  0.9264
  814TIP3    H226638   5.675   0.806  14.922  0.8556  0.3075 -1.9969
  815TIP3   OH226639   3.865   0.906  14.791  0.5118 -0.0233  0.6398
  815TIP3    H126640   3.908   0.944  14.868  1.3945  0.9744 -0.2956
  815TIP3    H226641   3.897   0.959  14.718  2.2483 -2.8854 -0.8707
  816TIP3   OH226642   2.413   0.350  16.303 -0.0115 -0.1014 -0.0516
  816TIP3    H126643   2.321   0.328  16.317 -0.1962  0.6687 -0.0353
  816TIP3    H226644   2.431   0.325  16.213  0.2125 -1.7578  0.4084
  817TIP3   OH226645   3.014   0.993  14.921  0.1692  0.8955  0.2512
  817TIP3    H126646   3.065   0.915  14.899  0.3740  0.8154  0.9801
  817TIP3    H226647   2.987   1.029  14.837 -0.5140 -0.3483 -0.0834
  818TIP3   OH226648   3.806   6.585  16.498 -0.2196 -0.1009  0.3865
  818TIP3    H126649   3.895   6.585  16.535 -0.5483 -0.7240  1.2012
  818TIP3    H226650   3.760   6.654  16.546 -0.3801 -0.2547  0.4502
  819TIP3   OH226651   3.461   5.550  15.253 -0.8563 -0.3157  0.0003
  819TIP3    H126652   3.369   5.536  15.276 -0.8334 -2.1430 -0.8602
  819TIP3    H226653   3.461   5.550  15.157  0.0121 -0.0895 -0.0009
  820TIP3   OH226654   0.704   2.808  14.253  0.4094  0.2697 -0.2924
  820TIP3    H126655   0.630   2.868  14.267 -0.6089 -0.8587 -0.6464
  820TIP3    H226656   0.711   2.800  14.158 -0.6514 -1.5314 -0.2601
  821TIP3   OH226657   0.857   5.228  14.740 -0.5759 -0.7543 -0.2458
  821TIP3    H126658   0.791   5.289  14.707 -0.5088  0.1854  1.2598
  821TIP3    H226659   0.940   5.274  14.729 -0.4480 -0.8806  0.1603
  822TIP3   OH226660   2.677   4.799  17.837 -0.5730 -0.1170  0.3534
  822TIP3    H126661   2.681   4.891  17.810 -2.2546 -0.5257 -1.5489
  822TIP3    H226662   2.768   4.770  17.839 -0.0935  1.2764 -0.1440
  823TIP3   OH226663   2.197   5.192  16.616 -0.1189 -0.1919 -0.0323
  823TIP3    H126664   2.235   5.132  16.680  1.4119  0.1121 -0.6186
  823TIP3    H226665   2.188   5.139  16.536 -1.0586 -0.2837  0.1154
  824TIP3   OH226666   3.369   5.522  17.448  0.3287 -0.2687  0.3239
  824TIP3    H126667   3.399   5.468  17.375  2.4662  0.1779  0.8179
  824TIP3    H226668   3.342   5.458  17.515 -0.0852 -0.6839 -0.2314
  825TIP3   OH226669   3.037   5.179  16.776  0.5481 -0.2688 -0.4631
  825TIP3    H126670   3.055   5.225  16.858 -1.6931 -1.5320  0.8585
  825TIP3    H226671   2.954   5.216  16.747 -0.0805 -1.7337 -0.6392
  826TIP3   OH226672   5.537   2.732  16.627  0.2044 -0.6671  0.1680
  826TIP3    H126673   5.586   2.707  16.706  0.9132  1.0596  0.3213
  826TIP3    H226674   5.486   2.654  16.605  0.0793 -1.2329  2.2632
  827TIP3   OH226675   0.322   0.273  17.516  0.1990  0.5848 -0.4433
  827TIP3    H126676   0.388   0.320  17.464  0.8513 -0.9443 -1.0462
  827TIP3    H226677   0.260   0.341  17.543  1.3338  1.8517 -0.9318
  828TIP3   OH226678   0.993   3.142  16.786  0.1241  0.0946  0.0044
  828TIP3    H126679   0.957   3.192  16.859 -1.3954 -0.7055 -0.1536
  828TIP3    H226680   0.953   3.180  16.708  1.1864  0.4789 -0.3750
  829TIP3   OH226681   0.299   6.338  15.617  0.7032 -0.0562 -0.0860
  829TIP3    H126682   0.374   6.293  15.656 -0.3705  0.2812  2.6076
  829TIP3    H226683   0.335   6.421  15.586  1.4998  0.0355  1.0082
  830TIP3   OH226684   3.114   0.439  17.586 -0.1170 -0.4312  0.0922
  830TIP3    H126685   3.065   0.357  17.588 -0.0339 -0.4810  0.0930
  830TIP3    H226686   3.204   0.413  17.564 -0.0087 -0.3852  0.4601
  831TIP3   OH226687   1.051   0.459  16.421  0.2406  0.4581 -0.1249
  831TIP3    H126688   0.990   0.394  16.457  0.2641  0.8228  0.5937
  831TIP3    H226689   1.059   0.525  16.490  0.3139  1.1608 -0.8011
  832TIP3   OH226690   6.695   1.508  15.218  0.2217 -0.0922 -0.1284
  832TIP3    H126691   6.658   1.421  15.201  0.1477 -0.3635  1.3422
  832TIP3    H226692   6.667   1.529  15.307  0.8814  1.1140 -0.1938
  833TIP3   OH226693   1.153   0.923  17.321  0.0102  0.0628  0.4162
  833TIP3    H126694   1.238   0.959  17.343  0.5973  0.0086 -1.5436
  833TIP3    H226695   1.167   0.877  17.238 -2.2725  1.6583 -1.0042
  834TIP3   OH226696   1.023   3.000  16.122  0.7542  0.2803 -0.1998
  834TIP3    H126697   1.045   3.051  16.200  0.9603  1.4329 -0.9933
  834TIP3    H226698   1.045   3.057  16.049 -0.1364 -0.5021 -1.1004
  835TIP3   OH226699   3.015   5.962  15.642 -0.7515  0.8339  0.1725
  835TIP3    H126700   2.919   5.961  15.637 -0.8006  0.3362  1.0439
  835TIP3    H226701   3.035   5.934  15.731  0.2694 -2.7224 -0.9885
  836TIP3   OH226702   1.177   3.099  17.185 -0.2331  0.1262  0.4068
  836TIP3    H126703   1.221   3.105  17.270 -0.3021  0.7728  0.3994
  836TIP3    H226704   1.192   3.009  17.157 -1.2536 -0.4749  1.6763
  837TIP3   OH226705   6.626   3.775  17.841 -0.0783 -0.8491 -0.2082
  837TIP3    H126706   6.665   3.862  17.844 -0.7029 -0.5129 -1.3092
  837TIP3    H226707   6.580   3.766  17.925 -1.2255  0.4819 -0.6468
  838TIP3   OH226708   1.863   5.235  15.648  0.1223 -0.1517  0.5024
  838TIP3    H126709   1.874   5.225  15.554 -0.4513  1.2767  0.2499
  838TIP3    H226710   1.825   5.323  15.658 -0.9800 -0.7569  1.9841
  839TIP3   OH226711   6.201   6.090  17.129 -0.4098  0.5885 -0.0026
  839TIP3    H126712   6.227   6.183  17.125  0.6954  0.2953  0.0176
  839TIP3    H226713   6.253   6.048  17.060 -1.4056  0.0880 -0.4679
  840TIP3   OH226714   3.749   3.178  17.893  0.4186  0.0832  0.3469
  840TIP3    H126715   3.812   3.170  17.964  1.6223  2.3972 -0.3312
  840TIP3    H226716   3.775   3.112  17.830  2.9468  1.6140 -0.3722
  841TIP3   OH226717   0.799   5.383  14.463 -0.3139 -0.8688 -0.3342
  841TIP3    H126718   0.833   5.432  14.538  0.1770 -1.6336 -0.0360
  841TIP3    H226719   0.812   5.440  14.388 -0.2384 -0.3398  0.0762
  842TIP3   OH226720   1.757   4.550  16.076 -0.4517 -0.2260  0.2551
  842TIP3    H126721   1.847   4.577  16.094 -1.3059  1.0317  3.2470
  842TIP3    H226722   1.746   4.468  16.125 -1.2368  0.1780  0.7641
  843TIP3   OH226723   6.479   4.333  17.383 -0.1438  0.1615  0.3908
  843TIP3    H126724   6.435   4.310  17.301 -0.2741 -0.8303  0.7231
  843TIP3    H226725   6.442   4.418  17.406 -0.3688  0.2923 -0.3971
  844TIP3   OH226726   3.201   3.475  17.063 -0.3363 -0.0185 -0.0856
  844TIP3    H126727   3.125   3.511  17.017 -0.0105  0.2461 -0.4164
  844TIP3    H226728   3.271   3.539  17.049  0.9448 -1.7878 -2.6230
  845TIP3   OH226729   5.878   5.092  17.480  0.3774  0.0650  0.2785
  845TIP3    H126730   5.903   5.001  17.469  0.3327  0.2175 -1.2880
  845TIP3    H226731   5.851   5.121  17.393  1.7607  1.9941  0.4283
  846TIP3   OH226732   2.260   0.090  18.300 -0.2083 -0.4392  0.3658
  846TIP3    H126733   2.265   0.142  18.380 -1.8046  0.3140  0.0081
  846TIP3    H226734   2.294   0.147  18.232 -0.4587 -0.4447  0.2351
  847TIP3   OH226735   5.038   1.475  16.115 -0.3752 -0.3593 -0.4015
  847TIP3    H126736   4.980   1.516  16.179  0.0790 -0.1308 -0.1290
  847TIP3    H226737   5.092   1.547  16.081  0.3275 -0.6905 -0.0220
  848TIP3   OH226738   4.838   5.699  17.153  0.1453 -0.1422  0.2065
  848TIP3    H126739   4.798   5.783  17.133  0.6418  0.0185 -0.1419
  848TIP3    H226740   4.795   5.670  17.234 -0.2179  0.3134  0.1815
  849TIP3   OH226741   2.288   3.702  15.323  0.3411  0.5138  0.1420
  849TIP3    H126742   2.348   3.631  15.347  2.0235  0.9687 -2.3270
  849TIP3    H226743   2.245   3.671  15.243  0.8564  2.0795 -0.7899
  850TIP3   OH226744   2.371   0.581  17.640  0.0627 -0.0343 -0.4769
  850TIP3    H126745   2.440   0.637  17.605 -0.0480 -0.3840 -1.2921
  850TIP3    H226746   2.338   0.533  17.563 -0.3628 -0.6458  0.0706
  851TIP3   OH226747   0.324   1.875  15.576  0.2357 -0.1987  0.0960
  851TIP3    H126748   0.308   1.801  15.635 -1.9189 -0.4641 -0.7371
  851TIP3    H226749   0.366   1.941  15.631 -1.0125 -0.7199  1.7570
  852TIP3   OH226750   1.022   3.601  16.669  0.2219 -0.0708  0.2376
  852TIP3    H126751   1.078   3.552  16.730 -0.1889 -0.6234  0.1870
  852TIP3    H226752   0.944   3.621  16.720  0.4582  0.6908  0.3077
  853TIP3   OH226753   4.355   1.065  16.210 -0.0909 -0.5325 -0.0431
  853TIP3    H126754   4.376   1.008  16.285 -0.7115  0.0376  0.5824
  853TIP3    H226755   4.360   1.007  16.134 -1.7300 -1.6964  0.6789
  854TIP3   OH226756   3.251   3.288  16.156 -0.2628  0.6364  0.0617
  854TIP3    H126757   3.289   3.338  16.229  3.5853 -2.1977  0.2770
  854TIP3    H226758   3.308   3.306  16.082  0.0024 -1.7134 -0.3785
  855TIP3   OH226759   3.101   0.125  17.358  0.0087 -0.0278 -0.4802
  855TIP3    H126760   3.079   0.116  17.265  0.9798  0.2648 -0.7524
  855TIP3    H226761   3.193   0.151  17.358  0.0504 -0.1454  0.5729
  856TIP3   OH226762   5.017   0.634  16.383  0.2826  0.0999 -0.7319
  856TIP3    H126763   5.111   0.636  16.398  0.3908 -1.3930 -1.0928
  856TIP3    H226764   5.007   0.593  16.297 -0.6866  0.6055 -0.8752
  857TIP3   OH226765   2.385   4.873  17.110 -0.2344  0.2471  0.8145
  857TIP3    H126766   2.343   4.832  17.185  1.4529 -0.1125  1.6295
  857TIP3    H226767   2.410   4.961  17.141  1.0853 -0.1472  0.9569
  858TIP3   OH226768   2.232   5.922  15.749 -0.4104  0.0262 -0.0674
  858TIP3    H126769   2.322   5.947  15.725 -0.3707 -0.3648 -0.3402
  858TIP3    H226770   2.237   5.828  15.766 -0.3738  0.3245  1.8033
  859TIP3   OH226771   5.811   4.744  16.612 -0.9197 -0.2769 -0.0205
  859TIP3    H126772   5.890   4.728  16.664 -0.4484  0.7631 -0.3980
  859TIP3    H226773   5.743   4.762  16.677 -0.2058  1.5923  0.2820
  860TIP3   OH226774   5.700   6.383  16.723 -0.0810  0.3907 -0.1191
  860TIP3    H126775   5.664   6.296  16.711 -0.0160  0.2374  0.7032
  860TIP3    H226776   5.736   6.382  16.812  3.3077  0.0314 -1.3343
  861TIP3   OH226777   2.530   6.138  17.695 -0.0446  0.3419  0.5617
  861TIP3    H126778   2.536   6.134  17.600  0.0691 -0.1843  0.5885
  861TIP3    H226779   2.439   6.115  17.714  0.3867 -1.4860  0.6650
  862TIP3   OH226780   2.170   4.694  16.398  0.5205  0.4672 -0.1448
  862TIP3    H126781   2.131   4.664  16.316  0.3338 -0.2274  0.1936
  862TIP3    H226782   2.142   4.630  16.463  1.9093  0.1604  0.1868
  863TIP3   OH226783   3.614   3.717  17.300  0.0636  0.1241  0.6015
  863TIP3    H126784   3.605   3.649  17.366  0.9966 -0.2733  0.3337
  863TIP3    H226785   3.683   3.685  17.241 -0.3051  0.7597 -0.1981
  864TIP3   OH226786   2.925   4.761  16.031  0.3144 -0.5943  0.4868
  864TIP3    H126787   2.918   4.750  16.126 -0.7607  0.5530  0.5730
  864TIP3    H226788   3.013   4.793  16.016  0.6004 -1.0967  1.0566
  865TIP3   OH226789   3.955   5.169  16.290  0.2315 -0.4727  0.3106
  865TIP3    H126790   3.965   5.172  16.195  0.6436  1.6003  0.3759
  865TIP3    H226791   4.039   5.134  16.321  0.2826 -0.6823 -0.0513
  866TIP3   OH226792   2.878   0.354  15.039 -0.2666  0.2701 -0.9911
  866TIP3    H126793   2.967   0.379  15.015  0.1915  0.4571  0.7677
  866TIP3    H226794   2.825   0.431  15.019  0.3453  0.9588 -0.0400
  867TIP3   OH226795   2.929   3.849  16.929  0.3574  0.0490 -0.9287
  867TIP3    H126796   2.996   3.864  16.862 -0.4602  0.3204 -1.7099
  867TIP3    H226797   2.895   3.936  16.949 -1.0158 -0.2265 -1.8893
  868TIP3   OH226798   0.524   1.168  14.504 -0.5795  0.3222  0.2550
  868TIP3    H126799   0.521   1.110  14.428 -0.8984 -0.1348  0.6102
  868TIP3    H226800   0.457   1.234  14.487 -0.0712  0.7195 -0.2483
  869TIP3   OH226801   2.808   2.729  17.033 -0.6422  0.3574 -0.2026
  869TIP3    H126802   2.886   2.766  17.074 -0.9975  1.2016 -0.2660
  869TIP3    H226803   2.789   2.788  16.961 -1.0856 -0.0986 -0.4688
  870TIP3   OH226804   5.617   5.743  17.450  0.1595 -0.0200 -0.0517
  870TIP3    H126805   5.545   5.699  17.496  0.0515  0.2445  0.0395
  870TIP3    H226806   5.680   5.764  17.519 -0.0022  0.3759 -0.0176
  871TIP3   OH226807   5.808   3.441  16.589 -0.2415  0.0267 -1.0651
  871TIP3    H126808   5.885   3.399  16.550  1.5524 -0.0087  2.1403
  871TIP3    H226809   5.742   3.372  16.593  0.5473 -0.7664 -1.3916
  872TIP3   OH226810   2.046   2.827  17.426  0.4575 -0.8573  0.0696
  872TIP3    H126811   1.998   2.821  17.344  1.4687 -1.3403 -0.5184
  872TIP3    H226812   2.033   2.917  17.456 -0.2381 -0.7900 -0.4156
  873TIP3   OH226813   0.306   1.826  16.211  0.0862 -0.0826  0.3692
  873TIP3    H126814   0.254   1.899  16.243 -0.7650 -0.8956  0.9112
  873TIP3    H226815   0.395   1.861  16.205 -0.3404  1.0522  0.3920
  874TIP3   OH226816   5.031   3.406  16.226  0.8520  0.6412  0.0238
  874TIP3    H126817   5.063   3.484  16.181  3.4292  0.4469  1.2896
  874TIP3    H226818   4.970   3.439  16.291  2.9893  1.9063  1.5387
  875TIP3   OH226819   5.123   4.238  16.720 -0.6441  0.3452 -0.1991
  875TIP3    H126820   5.120   4.158  16.773 -0.8207  0.5267  0.0691
  875TIP3    H226821   5.181   4.297  16.768 -1.5559  0.8604  0.2926
  876TIP3   OH226822   4.673   5.568  17.391 -0.1939 -0.2802  0.8861
  876TIP3    H126823   4.582   5.574  17.421 -0.0514  0.1942  1.2295
  876TIP3    H226824   4.722   5.623  17.451 -0.2086  2.4746 -1.3942
  877TIP3   OH226825   5.664   3.502  17.736 -0.8327 -0.0710  0.1822
  877TIP3    H126826   5.723   3.537  17.669  1.3038 -2.5869  0.6016
  877TIP3    H226827   5.599   3.452  17.686 -0.7694  0.1631 -0.1365
  878TIP3   OH226828   6.516   0.368  15.251  0.6396 -0.0629 -0.1848
  878TIP3    H126829   6.609   0.386  15.268  0.6675  0.6855 -1.1198
  878TIP3    H226830   6.500   0.399  15.163 -0.8355  1.0378  0.4274
  879TIP3   OH226831   0.909   2.703  17.408  0.0784  0.0282 -0.2830
  879TIP3    H126832   0.888   2.721  17.499  0.2157 -2.1861  0.2373
  879TIP3    H226833   0.938   2.787  17.373 -1.4389  1.2780  1.2628
  880TIP3   OH226834   0.643   6.737  15.378 -0.3338  0.0742  0.0801
  880TIP3    H126835   0.610   6.691  15.301  0.0234  0.8286 -0.5366
  880TIP3    H226836   0.733   6.762  15.355 -0.0986  0.0038  0.8789
  881TIP3   OH226837   3.774   4.316  15.326  0.3008 -0.0351  0.1680
  881TIP3    H126838   3.846   4.374  15.348 -0.2320  0.3074  1.0637
  881TIP3    H226839   3.753   4.270  15.407 -1.4899  1.0157  0.3732
  882TIP3   OH226840   0.532   4.250  16.002  0.0773 -0.2118 -0.0237
  882TIP3    H126841   0.538   4.333  16.050  2.8510 -0.7830  0.7939
  882TIP3    H226842   0.494   4.189  16.064 -1.2120  0.2122 -0.3597
  883TIP3   OH226843   0.122   5.058  17.437  0.0535 -0.0468 -0.2460
  883TIP3    H126844   0.082   4.971  17.433 -1.2764  0.4412  1.3603
  883TIP3    H226845   0.208   5.044  17.476 -0.1166 -0.6570 -0.0870
  884TIP3   OH226846   4.445   4.841  17.936 -0.5937 -0.5846  0.3709
  884TIP3    H126847   4.425   4.934  17.929 -0.6141 -0.5795  0.4961
  884TIP3    H226848   4.476   4.816  17.849  1.7534  0.0950  0.9197
  885TIP3   OH226849   0.530   5.072  15.717  0.0669 -0.1261  0.7050
  885TIP3    H126850   0.557   5.095  15.629  2.4304 -1.1311  1.0970
  885TIP3    H226851   0.467   5.000  15.705 -0.9610  0.8813 -0.1688
  886TIP3   OH226852   1.677   3.604  14.984  0.6532 -0.8133  0.0054
  886TIP3    H126853   1.768   3.626  14.967  0.5638 -0.6842 -0.3218
  886TIP3    H226854   1.627   3.662  14.926  0.3038  0.1365  1.2189
  887TIP3   OH226855   4.866   2.783  17.115 -0.0651 -0.5152  0.1611
  887TIP3    H126856   4.878   2.758  17.206 -0.0648 -2.0282 -0.2327
  887TIP3    H226857   4.948   2.759  17.072 -0.1733 -0.0793 -0.2964
  888TIP3   OH226858   3.607   3.876  16.366 -0.0789  0.6550 -0.5278
  888TIP3    H126859   3.652   3.960  16.356 -1.2506  1.4709  0.6772
  888TIP3    H226860   3.655   3.816  16.309  0.9800  2.0608 -1.1779
  889TIP3   OH226861   0.085   6.268  17.160 -0.0599 -0.0585  0.0456
  889TIP3    H126862   0.016   6.226  17.212 -0.1960  0.2106  0.0839
  889TIP3    H226863   0.045   6.281  17.074 -1.1517  2.8096  0.8493
  890TIP3   OH226864   0.715   1.544  16.752  0.1123 -0.4889  0.2310
  890TIP3    H126865   0.774   1.483  16.796  0.9719  1.1838  1.5094
  890TIP3    H226866   0.639   1.550  16.810 -0.2349 -0.7628 -0.1869
  891TIP3   OH226867   1.132   2.320  17.529 -0.1639 -0.5156 -0.1863
  891TIP3    H126868   1.062   2.333  17.593 -0.0387 -0.1035 -0.1301
  891TIP3    H226869   1.122   2.229  17.500 -0.9638 -0.3543 -0.4546
  892TIP3   OH226870   1.846   6.506  16.876  0.3051  0.2504  0.8523
  892TIP3    H126871   1.908   6.573  16.904 -0.7797  0.9932  1.5750
  892TIP3    H226872   1.867   6.430  16.930  0.9170  0.3163  0.7161
  893TIP3   OH226873   6.707   4.783  17.518 -0.1472 -0.1521 -0.0018
  893TIP3    H126874   6.649   4.822  17.584 -2.5371 -1.7287 -1.0354
  893TIP3    H226875   6.656   4.787  17.436  1.7554 -0.4440 -1.2648
  894TIP3   OH226876   5.595   3.449  16.848  0.1603 -0.0928 -0.1195
  894TIP3    H126877   5.640   3.419  16.927  0.0690 -0.8247 -0.3420
  894TIP3    H226878   5.618   3.384  16.781 -1.5715 -0.7340 -0.1310
  895TIP3   OH226879   1.175   5.218  17.305  0.1528 -0.5694  0.2561
  895TIP3    H126880   1.111   5.192  17.372  0.1056 -0.4797  0.2465
  895TIP3    H226881   1.137   5.296  17.265  0.1198 -0.6981  0.0346
  896TIP3   OH226882   2.251   3.556  17.721 -0.2534 -0.6577  0.1287
  896TIP3    H126883   2.300   3.475  17.707 -0.4967 -0.4638 -2.1912
  896TIP3    H226884   2.318   3.625  17.717 -0.3463 -0.5872 -0.2187
  897TIP3   OH226885   2.441   1.018  16.256 -0.1109  0.1674 -0.2745
  897TIP3    H126886   2.369   1.028  16.193 -1.4292 -1.1522  0.9519
  897TIP3    H226887   2.429   1.091  16.318  0.8313  1.1133 -1.1638
  898TIP3   OH226888   1.898   1.634  15.851  0.7789  0.5660  0.0532
  898TIP3    H126889   1.926   1.701  15.912  0.9741  2.2642 -1.7885
  898TIP3    H226890   1.923   1.667  15.765 -1.6176 -0.5534 -1.1857
  899TIP3   OH226891   0.671   4.943  15.942 -1.0484  0.4061 -0.2411
  899TIP3    H126892   0.587   4.899  15.941 -0.6751 -0.3291 -0.1137
  899TIP3    H226893   0.662   5.015  15.880 -1.3820 -0.4122 -1.1594
  900TIP3   OH226894   5.415   1.759  17.375  0.3528 -0.3507  0.0928
  900TIP3    H126895   5.491   1.754  17.432  0.3328 -1.1597  0.0618
  900TIP3    H226896   5.443   1.817  17.304  1.3107 -1.3992 -0.4371
  901TIP3   OH226897   3.936   1.529  14.707 -0.6009  0.0192  0.4153
  901TIP3    H126898   3.848   1.556  14.732 -0.1301 -1.3492  3.9997
  901TIP3    H226899   3.932   1.434  14.702  0.9741 -0.2170  2.3740
  902TIP3   OH226900   5.857   2.173  18.017  0.4370 -0.4949  0.0695
  902TIP3    H126901   5.926   2.124  17.973  0.3024 -0.4748 -0.1639
  902TIP3    H226902   5.889   2.263  18.019 -0.6661  0.0317 -2.3336
  903TIP3   OH226903   0.107   5.952  15.233  0.1854  0.4503  0.4620
  903TIP3    H126904   0.082   5.961  15.325 -0.4362 -0.2909  0.3733
  903TIP3    H226905   0.183   5.893  15.235  1.6838  2.2912  0.6835
  904TIP3   OH226906   1.541   1.755  15.687 -0.1561  0.4254  0.5112
  904TIP3    H126907   1.494   1.818  15.632  0.3243 -0.9152 -1.5559
  904TIP3    H226908   1.576   1.808  15.760 -3.4146  1.7413  1.2867
  905TIP3   OH226909   5.155   3.003  15.211  0.4385  0.4129 -0.0798
  905TIP3    H126910   5.235   3.045  15.179  0.6282 -1.3673 -2.1742
  905TIP3    H226911   5.186   2.927  15.261  0.0673  1.7023  2.2446
  906TIP3   OH226912   1.475   2.189  15.917 -0.1023  0.1369  0.1042
  906TIP3    H126913   1.524   2.140  15.851  1.2085  2.9011 -1.1050
  906TIP3    H226914   1.530   2.264  15.938 -1.3259  0.3608  3.0278
  907TIP3   OH226915   2.948   1.209  16.131 -0.4250 -0.4296  0.1763
  907TIP3    H126916   2.994   1.264  16.195  0.4088 -1.0263  0.1185
  907TIP3    H226917   2.882   1.265  16.093  1.4543  1.0518 -1.0759
  908TIP3   OH226918   3.702   4.128  15.532  0.2870 -0.4144 -0.1208
  908TIP3    H126919   3.647   4.063  15.488 -0.8300 -0.8987  1.8691
  908TIP3    H226920   3.642   4.176  15.589  1.5089  0.8108  0.1849
  909TIP3   OH226921   0.750   2.166  15.557  0.6054  0.7745 -0.1061
  909TIP3    H126922   0.828   2.205  15.517  1.8726  0.5191  2.0073
  909TIP3    H226923   0.700   2.241  15.590  0.4234  0.8837 -0.6219
  910TIP3   OH226924   1.968   1.275  14.271 -0.2360 -0.3912  0.3404
  910TIP3    H126925   1.982   1.181  14.283 -2.6609 -0.6883  1.5411
  910TIP3    H226926   2.017   1.316  14.342  0.2829 -0.7827  0.2152
  911TIP3   OH226927   0.176   5.657  17.397  0.5295  0.2708  0.2733
  911TIP3    H126928   0.088   5.622  17.410  0.5867 -0.2244 -0.6689
  911TIP3    H226929   0.191   5.651  17.303  2.1990 -1.1637  0.5979
  912TIP3   OH226930   4.728   2.853  16.299 -0.1594  0.2307  0.7019
  912TIP3    H126931   4.810   2.805  16.292  0.8729  1.9785  0.3144
  912TIP3    H226932   4.713   2.888  16.211  1.3305  4.0209  1.7736
  913TIP3   OH226933   4.003   1.552  16.610  0.2674 -0.1211 -0.6220
  913TIP3    H126934   3.959   1.516  16.533  1.4510 -1.2680 -0.7954
  913TIP3    H226935   3.958   1.512  16.684  0.3219 -0.4629 -0.7714
  914TIP3   OH226936   5.783   0.496  15.046  0.2059 -0.1402  0.2352
  914TIP3    H126937   5.739   0.528  14.967 -0.9968 -0.3012  0.8130
  914TIP3    H226938   5.800   0.404  15.028 -0.6090 -0.3282  0.3761
  915TIP3   OH226939   1.960   5.142  17.681 -0.1716  0.1584  0.1931
  915TIP3    H126940   1.999   5.229  17.685 -0.1259  0.1266  3.2751
  915TIP3    H226941   2.023   5.085  17.726 -1.3013 -0.9583  0.4345
  916TIP3   OH226942   3.995   1.237  16.420 -0.0366 -0.0274  0.3063
  916TIP3    H126943   4.083   1.267  16.442 -0.0053  0.1522 -0.0644
  916TIP3    H226944   3.944   1.317  16.408 -0.8993 -0.0698  2.9743
  917TIP3   OH226945   1.193   3.807  17.368  0.4369  0.4379  0.0966
  917TIP3    H126946   1.241   3.875  17.320 -0.4189  0.0627 -1.3620
  917TIP3    H226947   1.110   3.800  17.322  1.1213 -2.7775 -0.8992
  918TIP3   OH226948   6.267   2.475  17.287 -0.2546  0.2138  0.6217
  918TIP3    H126949   6.332   2.414  17.252 -0.6283  0.2754 -0.1876
  918TIP3    H226950   6.252   2.444  17.376  0.1595 -0.3875  0.4900
  919TIP3   OH226951   2.820   5.869  17.705  0.5114  0.6098  0.2647
  919TIP3    H126952   2.835   5.932  17.635  0.9686 -0.0659 -0.2525
  919TIP3    H226953   2.857   5.912  17.783  1.6647  0.6141 -0.2580
  920TIP3   OH226954   1.088   1.987  16.779 -0.3963 -0.3375 -0.2102
  920TIP3    H126955   1.027   1.913  16.773 -0.7225 -0.2282  1.4597
  920TIP3    H226956   1.174   1.946  16.779 -0.5990 -0.8853  2.1644
  921TIP3   OH226957   3.015   5.327  15.409  0.6829  0.0779  0.2952
  921TIP3    H126958   3.108   5.306  15.405  0.6971 -0.0596  1.1999
  921TIP3    H226959   2.977   5.259  15.463  0.2834  0.8895  1.0601
  922TIP3   OH226960   4.194   5.748  17.451  0.2599  0.0449 -0.0444
  922TIP3    H126961   4.121   5.686  17.457  0.4038 -0.0112  1.5477
  922TIP3    H226962   4.155   5.834  17.467  0.2729  0.2507 -1.0016
  923TIP3   OH226963   1.218   5.928  14.671 -0.5105 -0.0923  0.4323
  923TIP3    H126964   1.246   5.922  14.580  2.2423 -0.1170  1.1964
  923TIP3    H226965   1.177   6.014  14.678 -0.3389  0.0945 -0.7145
  924TIP3   OH226966   2.869   3.860  14.706 -0.1892 -0.1473 -0.0298
  924TIP3    H126967   2.807   3.837  14.776  0.5387  0.0810  0.7043
  924TIP3    H226968   2.917   3.778  14.690  0.9474  0.2685  1.0935
  925TIP3   OH226969   6.102   6.581  15.953 -0.1102 -0.1452  0.2557
  925TIP3    H126970   6.157   6.659  15.953 -0.5058  0.1981 -1.9980
  925TIP3    H226971   6.133   6.530  15.879 -1.8080 -0.6743 -0.1317
  926TIP3   OH226972   1.560   5.821  15.488 -0.1920 -0.4080  0.0708
  926TIP3    H126973   1.500   5.892  15.465 -0.0667 -0.2940  0.0923
  926TIP3    H226974   1.557   5.817  15.584  0.2153 -0.0640  0.1031
  927TIP3   OH226975   5.339   0.223  15.922  0.0044  0.1640 -0.1682
  927TIP3    H126976   5.317   0.312  15.949  0.3349  0.2315 -0.1150
  927TIP3    H226977   5.379   0.184  16.000  1.1306  0.4143 -0.6036
  928TIP3   OH226978   1.773   2.257  17.572 -0.1220 -0.6331  0.1561
  928TIP3    H126979   1.829   2.299  17.637 -1.3557  0.3257  0.6458
  928TIP3    H226980   1.824   2.182  17.541  1.4035  0.1824  0.5920
  929TIP3   OH226981   1.697   0.247  16.787  0.0385 -0.0914 -0.3428
  929TIP3    H126982   1.662   0.172  16.739 -0.7659  0.0388  0.0166
  929TIP3    H226983   1.709   0.214  16.876 -1.4061  0.4935  0.0999
  930TIP3   OH226984   1.221   2.850  15.540 -0.9235  0.0998  0.1873
  930TIP3    H126985   1.278   2.775  15.525 -0.2623  0.6046  0.1486
  930TIP3    H226986   1.259   2.894  15.616 -0.2097  1.4184 -0.8873
  931TIP3   OH226987   4.616   3.410  16.947 -0.3230  0.2483 -0.2704
  931TIP3    H126988   4.613   3.444  17.037 -0.7030 -0.4003 -0.0254
  931TIP3    H226989   4.701   3.436  16.914 -0.0669  0.2579  0.3822
  932TIP3   OH226990   6.236   3.973  17.077 -0.2016  0.6961 -0.1873
  932TIP3    H126991   6.257   3.976  16.984  0.1664 -2.2089 -0.2693
  932TIP3    H226992   6.177   3.899  17.087  1.3228 -0.3410  2.1518
  933TIP3   OH226993   1.671   1.554  15.535 -0.6531 -0.5000  0.2918
  933TIP3    H126994   1.603   1.568  15.470  0.9516  1.6237 -1.0750
  933TIP3    H226995   1.655   1.622  15.601  0.4129  0.4081 -0.3441
  934TIP3   OH226996   2.452   2.450  16.567  0.1579  0.0973 -0.5447
  934TIP3    H126997   2.509   2.435  16.492  0.7613  2.3550 -0.6107
  934TIP3    H226998   2.511   2.475  16.638 -0.5947  0.8471 -0.1555
  935TIP3   OH226999   6.073   2.014  16.154 -0.4030  0.0359  0.1303
  935TIP3    H127000   6.061   1.939  16.212  0.3791  1.3640  2.1434
  935TIP3    H227001   6.167   2.034  16.159 -0.8435  2.1960  1.1341
  936TIP3   OH227002   0.196   3.865  17.627 -0.5865 -0.2941 -0.3142
  936TIP3    H127003   0.180   3.959  17.629  1.4200  0.0820  0.0329
  936TIP3    H227004   0.171   3.838  17.539 -0.9706  0.6002 -0.4852
  937TIP3   OH227005   5.606   4.750  17.521  0.7428  0.1888 -0.1933
  937TIP3    H127006   5.611   4.664  17.479  1.3763  0.1114  0.0257
  937TIP3    H227007   5.589   4.811  17.449 -1.5485 -0.2927 -0.1403
  938TIP3   OH227008   5.447   5.213  16.671  0.2018 -0.0697 -0.0833
  938TIP3    H127009   5.357   5.195  16.698 -0.0463 -2.2142 -2.0630
  938TIP3    H227010   5.439   5.277  16.600  0.4017  0.8395  0.6810
  939TIP3   OH227011   4.695   3.007  17.101  0.1487  0.1412  0.3175
  939TIP3    H127012   4.696   3.048  17.187  0.8931  0.6246  0.0862
  939TIP3    H227013   4.755   2.933  17.109 -0.0332 -0.0097  0.3033
  940TIP3   OH227014   1.630   6.589  14.367 -0.0552  0.1937 -0.6019
  940TIP3    H127015   1.676   6.658  14.415  3.0589 -1.5932 -0.7742
  940TIP3    H227016   1.612   6.629  14.281  1.2751  0.9755 -0.5490
  941TIP3   OH227017   0.167   0.634  15.862  0.0939  0.0936  0.4683
  941TIP3    H127018   0.081   0.608  15.896 -0.6171  0.9974 -0.5664
  941TIP3    H227019   0.207   0.552  15.833 -1.4883 -0.0999 -1.3577
  942TIP3   OH227020   5.504   0.926  17.786 -0.2895  0.0634  0.1343
  942TIP3    H127021   5.436   0.900  17.724 -0.7919  1.4653  0.0748
  942TIP3    H227022   5.557   0.847  17.798 -1.8391 -1.0238  0.0847
  943TIP3   OH227023   0.196   2.297  15.207  0.0353  0.1632  0.0900
  943TIP3    H127024   0.281   2.273  15.245  0.8445 -0.3080 -1.9110
  943TIP3    H227025   0.218   2.343  15.126 -1.6405  0.4957 -0.2154
  944TIP3   OH227026   0.351   0.022  17.405 -0.2204 -0.0188  0.5953
  944TIP3    H127027   0.286  -0.039  17.438  2.8096 -1.8481  3.9903
  944TIP3    H227028   0.342   0.099  17.460 -0.4659  0.3587  0.0364
  945TIP3   OH227029   2.990   5.869  15.387  0.2308  0.5374  0.2806
  945TIP3    H127030   2.963   5.946  15.338 -1.8079 -0.3267 -0.0694
  945TIP3    H227031   3.013   5.902  15.474  2.0366  1.8360 -0.6277
  946TIP3   OH227032   6.282   6.139  15.476 -0.6355 -0.1668  0.0008
  946TIP3    H127033   6.262   6.074  15.542  1.4330 -1.7035 -0.8100
  946TIP3    H227034   6.346   6.197  15.516 -0.3934 -0.2873 -0.2116
  947TIP3   OH227035   2.916   1.402  16.538  0.0375  0.0486 -0.1049
  947TIP3    H127036   2.897   1.487  16.577  0.3845  1.0483 -2.0319
  947TIP3    H227037   2.855   1.395  16.464 -0.0766 -1.4485  0.1017
  948TIP3   OH227038   2.875   2.846  17.733 -0.1748 -0.6395 -0.1338
  948TIP3    H127039   2.847   2.916  17.792  0.9163 -0.5309  0.2756
  948TIP3    H227040   2.841   2.872  17.647  0.4183  0.5251 -0.0338
  949TIP3   OH227041   6.570   4.826  16.871 -0.1471 -0.5760  0.1247
  949TIP3    H127042   6.557   4.822  16.776 -0.9507  0.7465  0.1426
  949TIP3    H227043   6.483   4.813  16.908  0.5002 -3.5043  0.8369
  950TIP3   OH227044   1.605   1.188  15.806  0.7641 -0.3211 -0.0873
  950TIP3    H127045   1.565   1.226  15.884  0.1918  0.2140 -0.6349
  950TIP3    H227046   1.627   1.098  15.831  1.2329  0.0648  0.9092
  951TIP3   OH227047   1.462   1.692  16.196 -0.2431 -0.0710  0.2052
  951TIP3    H127048   1.401   1.752  16.153  1.5694  0.7357 -1.3709
  951TIP3    H227049   1.531   1.677  16.131  2.0802  0.3200  2.4239
  952TIP3   OH227050   2.068   2.813  16.197  0.2461  0.1366  0.5919
  952TIP3    H127051   2.114   2.742  16.152  2.4082  1.3471  0.7987
  952TIP3    H227052   1.975   2.793  16.183  0.8050 -1.6196 -1.0793
  953TIP3   OH227053   6.302   4.842  16.935  0.0648  0.0117 -0.0887
  953TIP3    H127054   6.238   4.894  16.887 -1.8496 -0.4198  1.8242
  953TIP3    H227055   6.249   4.782  16.989  2.1147 -1.8830 -0.0018
  954TIP3   OH227056   3.074   5.486  17.997  0.5127 -0.0284  0.6585
  954TIP3    H127057   3.037   5.546  17.932  1.4132  0.9736  1.0390
  954TIP3    H227058   3.036   5.514  18.080 -0.2357 -0.9761  0.6542
  955TIP3   OH227059   3.394   6.238  17.970  0.4343 -0.1020 -0.2967
  955TIP3    H127060   3.381   6.273  17.881 -0.7054  0.1753 -0.0353
  955TIP3    H227061   3.451   6.302  18.013 -0.2933  0.5840 -0.3398
  956TIP3   OH227062   3.642   4.877  16.095 -0.4564 -0.4705  0.1691
  956TIP3    H127063   3.679   4.949  16.147  1.3598  0.0775 -1.7704
  956TIP3    H227064   3.577   4.919  16.038 -2.0018 -0.9801  1.4676
  957TIP3   OH227065   1.708   6.013  15.276  0.0162  0.1952  0.1341
  957TIP3    H127066   1.682   5.959  15.351  1.5051 -0.4728  0.2182
  957TIP3    H227067   1.738   5.950  15.211  1.1400  0.8747 -0.0308
  958TIP3   OH227068   5.614   3.725  16.586  0.1911  0.6111  0.1122
  958TIP3    H127069   5.627   3.738  16.680  0.9731 -0.7299  0.2132
  958TIP3    H227070   5.553   3.651  16.581 -1.9486  2.3093 -0.4440
  959TIP3   OH227071   3.463   1.432  16.214  0.0640 -0.1670 -0.3412
  959TIP3    H127072   3.405   1.494  16.259  1.3504  0.4158  0.5838
  959TIP3    H227073   3.444   1.444  16.121 -0.7303  0.5812 -0.0980
  960TIP3   OH227074   4.970   1.812  17.837 -0.6706 -0.1000 -0.2086
  960TIP3    H127075   5.028   1.752  17.789 -0.4205  0.3487 -0.4808
  960TIP3    H227076   4.960   1.886  17.778 -0.1723  0.5638  0.5257
  961TIP3   OH227077   5.924   3.692  15.883  0.3377 -0.0150  0.1364
  961TIP3    H127078   5.991   3.646  15.832 -1.3738  0.3464 -2.6659
  961TIP3    H227079   5.867   3.623  15.916  0.3898 -0.1727 -0.1013
  962TIP3   OH227080   2.427   4.778  16.357  0.3104 -0.1667 -0.1774
  962TIP3    H127081   2.444   4.780  16.263  1.1496 -0.6639 -0.0473
  962TIP3    H227082   2.339   4.742  16.364  0.1192  0.1694 -0.7820
  963TIP3   OH227083   4.224   1.306  14.840  0.3023  0.1609 -0.3686
  963TIP3    H127084   4.209   1.239  14.773  0.4373 -2.7067  2.2049
  963TIP3    H227085   4.319   1.312  14.847  0.2953 -0.1068  0.0198
  964TIP3   OH227086   1.609   2.317  16.517 -0.0260 -0.1002 -0.2647
  964TIP3    H127087   1.599   2.360  16.601  0.4570  0.4473 -0.4783
  964TIP3    H227088   1.527   2.333  16.471 -0.3707 -0.5834  0.1837
  965TIP3   OH227089   3.900   1.241  15.229  0.4271  0.6952 -0.0455
  965TIP3    H127090   3.950   1.248  15.148  1.3151  0.3517  0.4536
  965TIP3    H227091   3.879   1.331  15.252 -0.1157  0.7763 -0.8148
  966TIP3   OH227092   4.116   3.165  17.517 -0.3604  0.1080  0.1212
  966TIP3    H127093   4.186   3.118  17.470 -1.4045 -0.6194 -0.7656
  966TIP3    H227094   4.162   3.219  17.581  0.9020 -2.0620  1.1376
  967TIP3   OH227095   5.748   0.166  15.200 -0.0631  0.1632 -0.5777
  967TIP3    H127096   5.721   0.233  15.138 -0.7323 -0.3944 -0.9044
  967TIP3    H227097   5.667   0.121  15.224  0.4997 -1.2581 -1.2271
  968TIP3   OH227098   3.962   2.629  17.969  0.5527 -0.2206 -0.5826
  968TIP3    H127099   3.958   2.578  18.050  0.5279 -1.8689 -1.5669
  968TIP3    H227100   4.031   2.586  17.917  1.6630  1.7556 -0.8288
  969TIP3   OH227101   5.868   5.402  15.256  0.2769 -0.5383  0.4329
  969TIP3    H127102   5.803   5.468  15.231  2.2082  2.1718  1.9838
  969TIP3    H227103   5.914   5.383  15.175  0.6145  1.1999  0.1598
  970TIP3   OH227104   1.429   3.508  16.626 -0.1838  0.2300  0.1973
  970TIP3    H127105   1.370   3.547  16.690 -0.6653  0.6516 -0.4958
  970TIP3    H227106   1.506   3.482  16.677  0.0514  1.8629  0.7282
  971TIP3   OH227107   5.044   4.324  16.132  0.0473 -0.1961 -0.0652
  971TIP3    H127108   5.072   4.374  16.209 -0.2620 -0.9300  0.5487
  971TIP3    H227109   4.973   4.376  16.094  0.6477  0.4995 -0.2483
  972TIP3   OH227110   6.433   1.971  14.578 -0.2011 -0.0540 -0.0476
  972TIP3    H127111   6.472   1.992  14.493 -0.8028 -1.3010 -0.6509
  972TIP3    H227112   6.395   2.053  14.608  1.0083  0.6746 -0.4392
  973TIP3   OH227113   3.196   1.299  17.594  0.1086  0.5173  0.2609
  973TIP3    H127114   3.101   1.289  17.586  0.1063  1.0118 -0.4291
  973TIP3    H227115   3.232   1.227  17.542  0.1401 -0.5987  1.7503
  974TIP3   OH227116   2.051   4.683  16.146 -0.4682  0.2401 -0.6826
  974TIP3    H127117   2.080   4.727  16.066  0.4226  0.5401 -0.2000
  974TIP3    H227118   2.085   4.594  16.138  0.6633  0.6056 -0.0944
  975TIP3   OH227119   6.413   4.215  16.239 -0.0368 -0.3132  0.1542
  975TIP3    H127120   6.386   4.129  16.272 -1.7969 -0.1919 -0.8553
  975TIP3    H227121   6.479   4.195  16.172 -0.8077 -0.9457 -0.4463
  976TIP3   OH227122   1.882   4.278  16.129  0.1179 -0.1240  0.3589
  976TIP3    H127123   1.963   4.256  16.176  0.1998  0.4679  0.4972
  976TIP3    H227124   1.904   4.266  16.037 -0.0660 -1.3688  0.4617
  977TIP3   OH227125   3.678   6.687  14.853 -0.4486  0.2107 -0.2980
  977TIP3    H127126   3.612   6.623  14.881 -2.1542  1.6213 -0.8639
  977TIP3    H227127   3.754   6.669  14.907 -0.8135 -2.3461 -0.5146
  978TIP3   OH227128   2.612   0.505  14.476 -0.4269 -0.1642 -0.2988
  978TIP3    H127129   2.598   0.444  14.403  0.9932 -1.4669  0.4585
  978TIP3    H227130   2.706   0.523  14.474 -0.9247  2.9328 -1.1420
  979TIP3   OH227131   1.466   5.202  16.896  0.8488 -0.5510  0.1917
  979TIP3    H127132   1.474   5.114  16.859  1.7090  0.2105 -1.5393
  979TIP3    H227133   1.517   5.198  16.977  1.9079 -1.3452 -0.4765
  980TIP3   OH227134   0.949   0.565  14.312  0.0045  0.7926 -0.0553
  980TIP3    H127135   0.952   0.556  14.217  0.3309 -1.8359  0.1249
  980TIP3    H227136   0.856   0.571  14.332 -0.0112  4.3797 -0.6506
  981TIP3   OH227137   0.143   1.675  18.108  0.7362  0.1969  0.3151
  981TIP3    H127138   0.063   1.691  18.058  0.9273  1.2171  0.3165
  981TIP3    H227139   0.147   1.748  18.170  0.8895 -0.6489  1.3329
  982TIP3   OH227140   2.673   0.867  15.206  0.2991  0.1815 -0.0442
  982TIP3    H127141   2.700   0.826  15.288  2.3075 -1.6426 -1.4943
  982TIP3    H227142   2.739   0.934  15.189  0.7474 -0.4351 -0.8336
  983TIP3   OH227143   6.733   4.941  17.152 -0.4450  1.3599  0.8250
  983TIP3    H127144   6.824   4.971  17.153 -0.1045  0.3768  0.7358
  983TIP3    H227145   6.682   5.018  17.128  0.5993  1.3303 -1.7559
  984TIP3   OH227146   5.874   4.730  16.917  0.0123  0.4295  0.2682
  984TIP3    H127147   5.850   4.744  17.008  1.5752 -1.0565  0.9715
  984TIP3    H227148   5.847   4.640  16.898 -1.2232  1.0419 -1.0940
  985TIP3   OH227149   2.090   2.969  15.964 -0.6406  0.5500 -0.2055
  985TIP3    H127150   2.185   2.972  15.959 -0.5378  4.3005  0.7051
  985TIP3    H227151   2.071   2.944  16.055 -0.4760  0.8368 -0.0911
  986TIP3   OH227152   0.470   3.861  17.864  0.4698  0.4167  0.2219
  986TIP3    H127153   0.536   3.808  17.909 -1.4592 -0.9770  1.5492
  986TIP3    H227154   0.386   3.827  17.895 -0.9002  3.1908 -0.1332
  987TIP3   OH227155   2.153   4.622  17.864  0.1898 -0.2496  0.1922
  987TIP3    H127156   2.148   4.599  17.956  1.3722 -1.3086  0.0290
  987TIP3    H227157   2.235   4.671  17.856 -0.3733  0.6510 -0.1400
  988TIP3   OH227158   3.815   4.427  17.297  0.1392 -0.4840  0.2656
  988TIP3    H127159   3.725   4.445  17.268  0.3042 -0.0831 -0.0005
  988TIP3    H227160   3.809   4.341  17.339 -0.6362  0.0988  1.4068
  989TIP3   OH227161   6.760   4.698  15.864  0.3987  0.2358  0.2373
  989TIP3    H127162   6.744   4.674  15.955 -0.3381 -0.5811 -0.0865
  989TIP3    H227163   6.756   4.793  15.862 -0.6217  0.2166  0.8888
  990TIP3   OH227164   2.786   0.924  16.201  0.1961  0.0228  1.1457
  990TIP3    H127165   2.777   1.019  16.213 -0.9628  0.2827 -1.2387
  990TIP3    H227166   2.860   0.915  16.141 -0.2455 -0.5200  0.6797
  991TIP3   OH227167   4.560   0.245  15.692  0.1580 -0.1519 -0.4620
  991TIP3    H127168   4.625   0.233  15.762 -0.1119 -0.9763 -0.3448
  991TIP3    H227169   4.478   0.212  15.729  0.2240 -1.5809 -1.5141
  992TIP3   OH227170   5.478   1.598  17.083  0.0468 -0.4669  0.8142
  992TIP3    H127171   5.487   1.693  17.092 -0.0532 -0.3050 -0.6344
  992TIP3    H227172   5.548   1.563  17.139  2.3251  0.5393 -1.2171
  993TIP3   OH227173   0.188   4.770  17.464 -0.0625 -0.1940  0.0683
  993TIP3    H127174   0.092   4.764  17.467  0.0257 -3.3943  0.0603
  993TIP3    H227175   0.215   4.773  17.555 -0.1394 -1.0029  0.1237
  994TIP3   OH227176   4.809   6.701  16.268  0.2076  0.3543  0.4267
  994TIP3    H127177   4.801   6.795  16.286  1.1105  0.1857  1.9855
  994TIP3    H227178   4.810   6.694  16.173 -2.2359  1.6778  0.2392
  995TIP3   OH227179   6.207   4.793  16.580 -0.1633 -0.3252  0.1365
  995TIP3    H127180   6.162   4.793  16.495 -1.0675 -1.0646  0.5984
  995TIP3    H227181   6.149   4.844  16.637  0.4692  0.2160  0.3110
  996TIP3   OH227182   4.837   3.430  16.441 -0.3649 -0.3628  0.2006
  996TIP3    H127183   4.858   3.342  16.473  0.0180 -0.3559 -0.0228
  996TIP3    H227184   4.756   3.419  16.390 -0.6026 -0.4913  0.6008
  997TIP3   OH227185   3.371   5.243  14.515 -0.3766  0.6258 -0.5769
  997TIP3    H127186   3.343   5.155  14.537 -1.9203  1.2775  0.1991
  997TIP3    H227187   3.308   5.301  14.558  1.2031  2.1541 -0.1750
  998TIP3   OH227188   3.460   1.764  17.630 -0.8679 -0.3004 -0.1890
  998TIP3    H127189   3.431   1.674  17.643 -1.4640 -0.0482  0.3204
  998TIP3    H227190   3.384   1.817  17.656 -0.2274  0.3654  0.3642
  999TIP3   OH227191   4.892   3.822  15.693 -0.6489  0.1689 -0.4698
  999TIP3    H127192   4.831   3.896  15.697  0.6815  1.2481  1.3422
  999TIP3    H227193   4.964   3.855  15.639  0.6671  0.8273  1.5984
 1000TIP3   OH227194   6.505   4.911  15.602 -0.4041 -0.4502 -0.4205
 1000TIP3    H127195   6.434   4.846  15.604  1.4239 -2.6778 -2.1557
 1000TIP3    H227196   6.500   4.949  15.515 -0.2845  0.4098 -0.0603
 1001TIP3   OH227197   6.443   0.134  17.852 -0.0997 -0.2409 -0.6363
 1001TIP3    H127198   6.385   0.069  17.813  0.3729  1.1492 -4.0595
 1001TIP3    H227199   6.491   0.087  17.920 -0.7789 -3.0603 -1.9684
 1002TIP3   OH227200   5.462   4.927  14.934 -0.2696 -0.3639  0.0915
 1002TIP3    H127201   5.457   4.832  14.946  1.9786 -0.6348 -0.6719
 1002TIP3    H227202   5.510   4.938  14.852  0.5966  1.4219  0.7936
 1003TIP3   OH227203   2.764   5.557  16.704  0.0345 -0.5690 -0.3809
 1003TIP3    H127204   2.796   5.573  16.793 -1.7830 -1.5624  0.5108
 1003TIP3    H227205   2.739   5.643  16.672 -1.0692 -0.3950  0.8395
 1004TIP3   OH227206   4.352   5.358  17.761 -0.4989 -0.2406 -0.2861
 1004TIP3    H127207   4.345   5.324  17.672  0.2357  1.1089 -0.8950
 1004TIP3    H227208   4.304   5.441  17.758  0.0767  0.1244  0.3906
 1005TIP3   OH227209   2.148   3.542  16.831  0.1552 -0.1742  0.4861
 1005TIP3    H127210   2.226   3.489  16.844  0.3882 -0.2299 -0.9421
 1005TIP3    H227211   2.145   3.601  16.906  1.4914 -0.2714  0.6303
 1006TIP3   OH227212   0.952   5.462  15.559 -0.3718 -0.0920  0.2479
 1006TIP3    H127213   0.900   5.400  15.508 -0.2633 -1.4207  1.6657
 1006TIP3    H227214   0.897   5.482  15.635  0.4339 -0.0576  0.8304
 1007TIP3   OH227215   1.068   3.258  15.247  0.0802  0.1028 -0.2079
 1007TIP3    H127216   1.159   3.273  15.275  0.6530 -0.3012 -1.7734
 1007TIP3    H227217   1.075   3.232  15.156 -1.6039 -0.3135 -0.2455
 1008TIP3   OH227218   3.152   3.002  17.833  0.1386  0.2363  0.0669
 1008TIP3    H127219   3.100   2.923  17.848 -0.2398  0.3586 -0.5414
 1008TIP3    H227220   3.208   2.979  17.759  1.4361 -0.1182  1.1357
 1009TIP3   OH227221   3.794   0.733  15.693 -0.0914  0.3696  0.7180
 1009TIP3    H127222   3.793   0.677  15.616  0.0555 -0.8906  1.6032
 1009TIP3    H227223   3.768   0.819  15.661  0.8593  0.0956 -0.8963
 1010TIP3   OH227224   2.131   6.382  15.407  0.1194  0.1312 -0.5746
 1010TIP3    H127225   2.098   6.294  15.425  1.7320 -0.2311  0.9210
 1010TIP3    H227226   2.221   6.368  15.376 -0.2798  1.1849 -2.3424
 1011TIP3   OH227227   2.643   1.018  14.735  0.3934  0.0734 -0.0205
 1011TIP3    H127228   2.677   1.053  14.653 -0.6680 -1.4168 -1.1429
 1011TIP3    H227229   2.635   1.095  14.792  0.1142  1.3357 -1.6891
 1012TIP3   OH227230   5.655   4.716  15.159  0.2240 -0.7808 -0.0615
 1012TIP3    H127231   5.741   4.676  15.149  0.3142 -0.9217  1.1525
 1012TIP3    H227232   5.672   4.809  15.172  0.2570 -0.9341  1.0528
 1013TIP3   OH227233   5.171   6.390  15.273  0.4076  0.2301 -0.2208
 1013TIP3    H127234   5.116   6.434  15.339  1.3594 -0.3855  1.0298
 1013TIP3    H227235   5.198   6.460  15.214 -0.9612  0.6950 -0.3302
 1014TIP3   OH227236   1.278   2.317  15.313 -0.1445  0.1547  0.0052
 1014TIP3    H127237   1.347   2.348  15.371  1.5787 -0.4839 -1.5995
 1014TIP3    H227238   1.324   2.281  15.237 -2.2109 -1.2197 -0.7065
 1015TIP3   OH227239   1.882   6.037  17.048  0.2211 -0.1969  0.5653
 1015TIP3    H127240   1.965   6.047  17.093  0.8580  2.6173 -1.0327
 1015TIP3    H227241   1.821   6.094  17.095  0.0833  0.3336 -0.2411
 1016TIP3   OH227242   0.703   1.665  17.884  0.2355  0.1942 -0.4537
 1016TIP3    H127243   0.785   1.713  17.883  0.5425 -0.3377 -1.2365
 1016TIP3    H227244   0.676   1.665  17.976  1.9249 -0.9917  0.0757
 1017TIP3   OH227245   4.601   4.684  15.898  0.2966 -0.0525 -0.0998
 1017TIP3    H127246   4.627   4.731  15.818 -0.5008 -0.3605 -0.5502
 1017TIP3    H227247   4.550   4.609  15.866  1.9563 -1.5302  0.5769
 1018TIP3   OH227248   4.086   1.695  14.906  0.0948  0.5154  0.3999
 1018TIP3    H127249   4.014   1.632  14.914 -0.7675  1.5945  1.5358
 1018TIP3    H227250   4.053   1.763  14.848  0.8322  0.1936 -0.4133
 1019TIP3   OH227251   4.396   2.075  15.830 -0.2982  0.3454 -0.1941
 1019TIP3    H127252   4.441   2.155  15.802 -0.8313  0.9229  0.5581
 1019TIP3    H227253   4.463   2.006  15.823  0.0233  0.7552 -1.3254
 1020TIP3   OH227254   5.037   1.079  16.268  0.1622  0.2101 -0.4481
 1020TIP3    H127255   5.129   1.094  16.248  0.2969  0.4191  0.2962
 1020TIP3    H227256   4.991   1.098  16.186  0.6998  0.9380 -0.5864
 1021TIP3   OH227257   2.432   3.465  15.335 -0.2385  0.7895  0.0756
 1021TIP3    H127258   2.426   3.370  15.344 -1.0145  0.9327  1.2451
 1021TIP3    H227259   2.456   3.478  15.243 -1.1508 -0.5089 -0.3917
 1022TIP3   OH227260   5.947   0.281  15.337 -0.2356 -0.1513  0.2234
 1022TIP3    H127261   5.899   0.225  15.275 -0.9653 -0.7771  1.3305
 1022TIP3    H227262   6.029   0.301  15.291 -0.8398 -0.4213 -1.0310
 1023TIP3   OH227263   1.051   5.767  17.001 -0.0674  0.7096  0.2495
 1023TIP3    H127264   1.007   5.817  17.069  0.8811  0.4570  1.0675
 1023TIP3    H227265   1.009   5.682  17.003 -0.7137  1.0138 -0.1668
 1024TIP3   OH227266   0.340   5.994  16.795 -0.6633  0.1136  0.1103
 1024TIP3    H127267   0.422   5.956  16.764 -0.9486 -0.8527  0.4836
 1024TIP3    H227268   0.287   6.003  16.716 -0.8785 -1.0370  0.0974
 1025TIP3   OH227269   0.438   3.891  16.577  0.3752  0.2432  0.1745
 1025TIP3    H127270   0.413   3.953  16.510  1.0403 -0.6804 -0.9665
 1025TIP3    H227271   0.508   3.934  16.626  1.1491  0.2423 -0.8971
 1026TIP3   OH227272   3.324   5.189  15.738 -0.3669  0.3397  0.0575
 1026TIP3    H127273   3.358   5.227  15.657 -0.6328  0.5765  0.0554
 1026TIP3    H227274   3.315   5.096  15.718  0.2093  0.2839  0.0364
 1027TIP3   OH227275   6.330   5.417  15.368  0.6350 -0.8247  0.0144
 1027TIP3    H127276   6.423   5.441  15.366  0.6051 -0.4916  1.5342
 1027TIP3    H227277   6.293   5.455  15.288  1.3654  0.9011  0.4749
 1028TIP3   OH227278   2.183   0.364  17.216  0.8168  0.7615  0.1972
 1028TIP3    H127279   2.119   0.435  17.222 -1.0954 -0.9596  1.5929
 1028TIP3    H227280   2.179   0.336  17.124 -0.1511  0.9637  0.1663
 1029TIP3   OH227281   1.973   0.654  15.356 -0.1270  0.4033 -0.0954
 1029TIP3    H127282   2.060   0.692  15.344  0.0777  0.4566  1.3611
 1029TIP3    H227283   1.983   0.563  15.328  0.4880  0.3284  0.3405
 1030TIP3   OH227284   5.712   0.694  17.880 -0.4426  0.0007  0.2358
 1030TIP3    H127285   5.783   0.677  17.943 -0.3504 -2.2792 -0.3902
 1030TIP3    H227286   5.672   0.608  17.867  0.1527  0.1418 -3.5575
 1031TIP3   OH227287   3.925   3.591  15.691 -0.5575  0.3019 -0.2371
 1031TIP3    H127288   3.951   3.596  15.783 -1.1715  1.8360 -0.1178
 1031TIP3    H227289   3.972   3.516  15.656 -1.1261 -0.9560  1.5888
 1032TIP3   OH227290   4.175   3.769  15.811 -0.1308  0.3533  0.1793
 1032TIP3    H127291   4.258   3.722  15.819 -1.5719 -2.0965  2.0416
 1032TIP3    H227292   4.181   3.840  15.875 -0.6688 -1.9580  3.0163
 1033TIP3   OH227293   1.611   6.431  17.100  0.5423 -0.0915  0.0595
 1033TIP3    H127294   1.594   6.442  17.006 -0.4815 -2.5433 -0.1086
 1033TIP3    H227295   1.646   6.516  17.128  0.0772  0.9733 -2.3456
 1034TIP3   OH227296   1.273   5.104  17.615  0.5226 -0.0507  0.1739
 1034TIP3    H127297   1.275   5.194  17.648  2.2338  1.1876 -2.8569
 1034TIP3    H227298   1.197   5.102  17.557  0.6008 -0.5003  0.0874
 1035TIP3   OH227299   3.724   5.362  16.159  0.0086 -0.4095 -0.0194
 1035TIP3    H127300   3.716   5.282  16.211  1.1947 -1.4322 -1.3077
 1035TIP3    H227301   3.815   5.361  16.129 -0.3553  0.6893 -1.2211
 1036TIP3   OH227302   2.638   5.675  17.829 -0.7341  0.2279  0.2220
 1036TIP3    H127303   2.643   5.748  17.767  0.2759 -0.4924 -0.5680
 1036TIP3    H227304   2.613   5.716  17.912  2.9929  2.0526  0.6667
 1037TIP3   OH227305   5.263   1.189  15.524  0.3312  0.0564 -0.1856
 1037TIP3    H127306   5.173   1.158  15.513  0.3803 -0.0446 -0.3024
 1037TIP3    H227307   5.255   1.265  15.583  0.3430 -0.9520  1.1620
 1038TIP3   OH227308   0.379   3.082  18.123  0.4271 -0.1219 -0.5436
 1038TIP3    H127309   0.461   3.122  18.095  1.2627 -0.1027  1.7899
 1038TIP3    H227310   0.401   2.991  18.140  0.5499  0.3558  2.2065
 1039TIP3   OH227311   4.958   5.903  16.237  0.4272 -0.2222 -0.2702
 1039TIP3    H127312   4.931   5.818  16.202 -1.2946  0.0686  0.2534
 1039TIP3    H227313   5.035   5.927  16.186  0.2662 -1.5727 -1.1959
 1040TIP3   OH227314   0.301   3.669  16.709  0.0970 -0.6020  0.7294
 1040TIP3    H127315   0.344   3.731  16.649  1.8203 -2.8605 -0.5396
 1040TIP3    H227316   0.243   3.618  16.653 -2.3962  0.6575  2.0001
 1041TIP3   OH227317   1.104   2.939  15.290  0.2246  0.2517  0.3652
 1041TIP3    H127318   1.139   2.889  15.363  0.3530  0.3359  0.3630
 1041TIP3    H227319   1.038   2.996  15.328  1.3632  1.4088  0.6823
 1042TIP3   OH227320   2.153   5.735  14.872  0.2848 -0.0916  0.1723
 1042TIP3    H127321   2.123   5.824  14.854  1.7342  0.8023  1.8825
 1042TIP3    H227322   2.196   5.708  14.791  0.6209  1.1269 -0.0851
 1043TIP3   OH227323   3.992   1.080  15.622 -0.5560  0.4830  0.4547
 1043TIP3    H127324   3.982   1.039  15.708  0.3739  1.4990  1.0661
 1043TIP3    H227325   4.070   1.134  15.630  0.1606 -0.2200 -1.3718
 1044TIP3   OH227326   4.946   6.622  17.133  0.6883  0.1883 -0.1834
 1044TIP3    H127327   5.027   6.592  17.174 -0.0612 -1.3976  0.2001
 1044TIP3    H227328   4.934   6.711  17.166  1.2071 -0.2925  1.4145
 1045TIP3   OH227329   1.066   4.620  15.890 -0.1829  0.1512 -0.3763
 1045TIP3    H127330   1.031   4.549  15.943  1.6475  0.1122  0.8597
 1045TIP3    H227331   1.056   4.589  15.800  0.1225 -1.4824  0.1156
 1046TIP3   OH227332   4.985   0.246  14.619  0.5246 -0.2770 -0.3922
 1046TIP3    H127333   5.080   0.246  14.628  0.6320  0.0756 -1.3466
 1046TIP3    H227334   4.970   0.263  14.526 -0.4989  1.6703  0.0692
 1047TIP3   OH227335   3.293   6.653  17.319  0.3675  0.4639 -0.4383
 1047TIP3    H127336   3.250   6.671  17.236  0.7932  1.0031 -0.5400
 1047TIP3    H227337   3.223   6.616  17.374  0.4952 -1.7256 -1.6246
 1048TIP3   OH227338   4.442   4.563  17.255 -0.2570 -0.7724  0.6178
 1048TIP3    H127339   4.430   4.635  17.317 -0.5345  0.0479 -0.3565
 1048TIP3    H227340   4.478   4.492  17.307 -1.9864 -0.6688  2.0697
 1049TIP3   OH227341   5.890   2.329  17.226 -0.0406 -0.2386  0.0456
 1049TIP3    H127342   5.908   2.247  17.273 -3.5288 -1.1118  0.1406
 1049TIP3    H227343   5.870   2.392  17.295  0.2748  0.0615 -0.1293
 1050TIP3   OH227344   5.180   0.124  15.554  0.3594  0.2277  0.6299
 1050TIP3    H127345   5.098   0.143  15.600 -1.8477 -2.2360 -1.9323
 1050TIP3    H227346   5.222   0.057  15.607 -0.9904 -0.8935  0.3365
 1051TIP3   OH227347   5.600   6.479  15.274  0.0888  0.4408 -0.4007
 1051TIP3    H127348   5.584   6.419  15.201 -0.1220 -0.4971  0.3938
 1051TIP3    H227349   5.622   6.562  15.232 -2.7604  0.7329 -1.5952
 1052TIP3   OH227350   0.568   2.003  16.559  0.0945 -0.2949 -0.2101
 1052TIP3    H127351   0.583   2.002  16.653  2.8571 -0.0423 -0.5447
 1052TIP3    H227352   0.646   2.047  16.524 -0.8534 -0.4044 -2.6084
 1053TIP3   OH227353   2.108   5.087  16.058 -0.1044  0.2943 -0.2223
 1053TIP3    H127354   2.145   5.113  15.974 -0.0599  1.2592  0.0903
 1053TIP3    H227355   2.026   5.044  16.036  0.5916 -0.7715 -0.8413
 1054TIP3   OH227356   3.480   6.697  16.721 -0.2367  0.3665  0.6087
 1054TIP3    H127357   3.391   6.683  16.689 -0.1870 -0.0064  0.6247
 1054TIP3    H227358   3.478   6.661  16.810 -0.2091  0.8309  0.7986
 1055TIP3   OH227359   0.989   1.628  17.072 -0.1370 -0.8864 -0.1379
 1055TIP3    H127360   1.083   1.611  17.067 -0.3113 -1.6445 -1.5882
 1055TIP3    H227361   0.950   1.541  17.078 -0.7871 -0.6927 -1.1946
 1056TIP3   OH227362   3.929   1.765  15.781 -0.0035  0.1981  0.1343
 1056TIP3    H127363   3.891   1.834  15.727 -0.0296 -0.6827 -1.0042
 1056TIP3    H227364   4.023   1.776  15.772 -0.0067  0.1832  0.0824
 1057TIP3   OH227365   3.395   1.429  16.543  0.2559 -0.2642  0.0409
 1057TIP3    H127366   3.455   1.502  16.530 -1.2742  1.3101  1.3484
 1057TIP3    H227367   3.443   1.353  16.510  2.6231  1.0212  0.2531
 1058TIP3   OH227368   2.563   0.548  14.734  0.0881  0.1841 -0.4014
 1058TIP3    H127369   2.590   0.521  14.646 -0.9048  0.3206 -0.7584
 1058TIP3    H227370   2.468   0.538  14.734 -0.1542  2.0987 -0.0054
 1059TIP3   OH227371   3.845   1.338  17.858  0.1192  0.0294  0.0932
 1059TIP3    H127372   3.811   1.382  17.936  1.6732  0.9532  0.2891
 1059TIP3    H227373   3.819   1.395  17.786  1.8074  1.1639  0.3136
 1060TIP3   OH227374   2.579   4.689  17.259  0.2493 -0.0109  0.0608
 1060TIP3    H127375   2.497   4.640  17.249 -0.2329  0.6411  0.7777
 1060TIP3    H227376   2.647   4.622  17.249 -0.3827 -0.7282  0.3877
 1061TIP3   OH227377   0.553   0.650  17.528  0.1360  0.2614 -0.6260
 1061TIP3    H127378   0.459   0.650  17.547 -0.1211 -0.1157 -1.8092
 1061TIP3    H227379   0.567   0.570  17.477  1.3727 -0.4499  0.7230
 1062TIP3   OH227380   4.407   2.720  17.889  0.3326 -0.1847  0.7584
 1062TIP3    H127381   4.366   2.801  17.919 -0.8363 -0.9980  1.4293
 1062TIP3    H227382   4.449   2.684  17.968  2.4132  0.6118  0.1023
 1063TIP3   OH227383   2.870   1.588  15.449  0.3056 -0.4226  0.6359
 1063TIP3    H127384   2.892   1.643  15.525  0.7112 -0.1110  0.2910
 1063TIP3    H227385   2.944   1.597  15.390  0.5039 -1.5665  0.6937
 1064TIP3   OH227386   5.144   5.325  17.000 -0.2809  0.0608 -0.5470
 1064TIP3    H127387   5.088   5.403  17.007 -0.9189 -0.3137 -1.2479
 1064TIP3    H227388   5.127   5.276  17.080  0.0294  0.5837 -0.1601
 1065TIP3   OH227389   0.373   5.460  15.177  0.3798 -0.0827  0.0113
 1065TIP3    H127390   0.446   5.468  15.237  0.5109 -0.6220 -0.0752
 1065TIP3    H227391   0.321   5.539  15.192  0.4681 -0.1584  0.7486
 1066TIP3   OH227392   3.115   2.960  16.053 -0.1683  0.2628 -0.7339
 1066TIP3    H127393   3.067   2.896  16.001 -0.0119  0.8279 -1.5960
 1066TIP3    H227394   3.186   2.989  15.996  0.4693  0.3500  0.0722
 1067TIP3   OH227395   0.483   2.066  15.711  0.4009 -0.3834 -0.3554
 1067TIP3    H127396   0.577   2.045  15.703  1.0512  0.7478  2.8189
 1067TIP3    H227397   0.480   2.133  15.779 -2.5959  1.1956 -1.8604
 1068TIP3   OH227398   5.266   3.685  17.154  0.4389 -0.2901 -0.2039
 1068TIP3    H127399   5.356   3.669  17.182  0.3106 -0.0935  0.3115
 1068TIP3    H227400   5.211   3.655  17.227  0.1612  1.8555  0.5141
 1069TIP3   OH227401   4.314   6.641  15.914 -0.2037  0.5378 -0.4010
 1069TIP3    H127402   4.324   6.565  15.856  0.5828  0.6528 -0.4314
 1069TIP3    H227403   4.223   6.637  15.944  0.3794 -1.7541  1.3969
 1070TIP3   OH227404   5.825   3.305  15.667  0.2985  0.3682  0.1263
 1070TIP3    H127405   5.755   3.356  15.708  0.2176  1.5862 -1.4127
 1070TIP3    H227406   5.906   3.346  15.696  0.3881 -0.7061  1.4778
 1071TIP3   OH227407   5.178   2.975  17.408 -0.1756  0.1084 -0.0525
 1071TIP3    H127408   5.238   2.943  17.475 -0.8942 -0.8268  0.1741
 1071TIP3    H227409   5.130   2.897  17.380 -0.1156  0.5405 -1.4326
 1072TIP3   OH227410   3.036   2.898  15.586 -0.3141 -0.3845 -0.0287
 1072TIP3    H127411   3.012   2.829  15.524 -0.7723  0.0676 -0.3587
 1072TIP3    H227412   3.116   2.936  15.549  1.2872 -2.2278  1.3345
 1073TIP3   OH227413   5.494   5.169  16.954  0.5707 -0.1299 -0.1284
 1073TIP3    H127414   5.538   5.253  16.969 -2.3667  1.2361  2.0549
 1073TIP3    H227415   5.468   5.172  16.862  0.5217  1.4136 -0.0947
 1074TIP3   OH227416   1.592   0.072  17.866 -0.3512 -0.2332  0.5238
 1074TIP3    H127417   1.507   0.112  17.883  0.2447  1.3900 -0.1525
 1074TIP3    H227418   1.588  -0.012  17.912 -2.2267 -0.1029  0.6760
 1075TIP3   OH227419   4.073   4.923  14.616  0.1571  0.6378 -0.3436
 1075TIP3    H127420   4.119   4.971  14.548  0.5211  1.0925  0.2120
 1075TIP3    H227421   4.007   4.984  14.648  0.3929  0.6507  0.1277
 1076TIP3   OH227422   4.981   6.689  15.017  0.3327 -0.5862 -0.0097
 1076TIP3    H127423   5.043   6.753  14.982 -1.4117  0.0573 -2.1033
 1076TIP3    H227424   5.026   6.605  15.009  1.0499 -0.1064 -1.2586
 1077TIP3   OH227425   0.263   5.488  16.107  0.4285 -0.3597 -0.6888
 1077TIP3    H127426   0.182   5.438  16.109  0.4541 -0.4363 -1.3546
 1077TIP3    H227427   0.327   5.428  16.070  0.2805  0.4009 -2.2783
 1078TIP3   OH227428   1.256   1.731  17.491 -0.3042  0.1195  0.2881
 1078TIP3    H127429   1.253   1.749  17.585 -0.4657 -0.3466  0.3763
 1078TIP3    H227430   1.194   1.793  17.453 -0.3062  0.2485  0.4992
 1079TIP3   OH227431   1.325   3.871  15.829  0.1706 -0.1636  0.2698
 1079TIP3    H127432   1.255   3.926  15.794 -0.4730 -1.6836 -0.9615
 1079TIP3    H227433   1.393   3.872  15.762 -0.4692 -1.9778 -0.4712
 1080TIP3   OH227434   0.112   5.624  15.895 -0.1017 -0.4222 -0.0657
 1080TIP3    H127435   0.075   5.558  15.836 -0.0822  1.0678 -1.8322
 1080TIP3    H227436   0.182   5.578  15.941  0.3826 -1.4601 -1.7520
 1081TIP3   OH227437   3.486   6.111  16.333 -0.0224 -0.2515 -0.3491
 1081TIP3    H127438   3.522   6.171  16.398  0.4522 -0.3689 -0.4950
 1081TIP3    H227439   3.482   6.027  16.377 -0.4105 -0.1768 -0.2354
 1082TIP3   OH227440   0.795   2.053  17.594  0.4442 -0.2908 -0.3955
 1082TIP3    H127441   0.789   2.083  17.503  1.1938  0.0983 -0.3288
 1082TIP3    H227442   0.889   2.047  17.610  0.5320  3.6890  1.6358
 1083TIP3   OH227443   3.609   5.915  15.111 -0.3461  0.3186 -0.1970
 1083TIP3    H127444   3.658   5.911  15.029  0.4204 -2.5138  0.2997
 1083TIP3    H227445   3.677   5.928  15.178 -0.9506  2.4468  0.0744
 1084TIP3   OH227446   3.888   0.763  16.628  0.5296 -0.6894 -0.6071
 1084TIP3    H127447   3.846   0.696  16.574 -0.7659 -0.0876 -0.3825
 1084TIP3    H227448   3.903   0.836  16.567 -0.3538 -0.2528 -0.3242
 1085TIP3   OH227449   4.424   3.632  15.812  0.1851  0.0954  0.1891
 1085TIP3    H127450   4.471   3.625  15.729 -0.6324 -0.0067 -0.2782
 1085TIP3    H227451   4.450   3.555  15.861  0.3328 -0.0737 -0.1517
 1086TIP3   OH227452   2.714   6.257  17.082  0.3373  0.1089  0.1792
 1086TIP3    H127453   2.722   6.332  17.023 -0.4705  0.3569  0.3769
 1086TIP3    H227454   2.777   6.274  17.151 -1.9853  2.2344  1.9412
 1087TIP3   OH227455   3.176   6.177  16.058  0.3772 -0.0124 -0.6959
 1087TIP3    H127456   3.208   6.089  16.080 -0.2815  0.0435  0.6101
 1087TIP3    H227457   3.164   6.175  15.963 -1.0655 -1.8561 -0.5448
 1088TIP3   OH227458   1.147   2.698  16.037 -0.1054 -0.0400 -0.1477
 1088TIP3    H127459   1.228   2.750  16.040 -0.9120  1.2472  0.3520
 1088TIP3    H227460   1.093   2.735  16.107 -1.4024 -0.4101 -0.9294
 1089TIP3   OH227461   6.554   3.943  15.022 -0.4713 -0.3251  0.1268
 1089TIP3    H127462   6.479   3.927  14.964  0.1807 -0.9784 -0.5647
 1089TIP3    H227463   6.571   3.858  15.064 -1.0830  0.2005  1.4784
 1090TIP3   OH227464   2.871   0.091  15.100 -0.3861 -0.2144 -0.1868
 1090TIP3    H127465   2.873   0.185  15.081 -1.3937 -0.2580 -0.5416
 1090TIP3    H227466   2.837   0.051  15.020  1.9508 -1.1129 -0.8282
 1091TIP3   OH227467   2.613   6.515  17.550  0.2101  0.5905  0.1047
 1091TIP3    H127468   2.604   6.506  17.455 -0.8174  0.7352  0.1729
 1091TIP3    H227469   2.670   6.443  17.576 -3.3908 -2.6621 -0.0399
 1092TIP3   OH227470   3.023   2.663  14.814  0.2255  0.0047  0.5322
 1092TIP3    H127471   2.938   2.701  14.834  0.3627  0.6463 -0.0315
 1092TIP3    H227472   3.004   2.586  14.761 -0.0403 -0.4693  1.3033
 1093TIP3   OH227473   2.044   2.443  15.363 -0.3138 -1.1038  0.3120
 1093TIP3    H127474   2.007   2.439  15.275  0.1780  0.5753 -0.0029
 1093TIP3    H227475   2.116   2.380  15.362  0.3913 -0.3249 -0.8691
 1094TIP3   OH227476   4.661   6.602  14.231 -0.1853  0.2722  0.4529
 1094TIP3    H127477   4.755   6.620  14.233  0.2481 -1.8604  1.2110
 1094TIP3    H227478   4.638   6.602  14.138  0.9158 -0.7832  0.1579
 1095TIP3   OH227479   2.234   5.158  17.128 -0.5884  0.5492  0.2145
 1095TIP3    H127480   2.225   5.249  17.098 -1.9672  0.6155  0.7686
 1095TIP3    H227481   2.183   5.154  17.209 -1.1776 -0.8963 -0.1885
 1096TIP3   OH227482   2.991   4.402  16.299  0.2353  0.4043  0.2279
 1096TIP3    H127483   3.025   4.360  16.378  0.7958 -0.6886 -0.5626
 1096TIP3    H227484   2.980   4.494  16.323 -1.3620 -0.2115  2.1247
 1097TIP3   OH227485   3.767   0.625  16.153 -0.6926 -0.7959 -0.2087
 1097TIP3    H127486   3.790   0.533  16.155 -0.5253 -0.8101 -1.6111
 1097TIP3    H227487   3.748   0.643  16.061 -1.6068  0.3551  0.1747
 1098TIP3   OH227488   1.631   1.117  15.168 -0.1384  0.2869 -0.1521
 1098TIP3    H127489   1.703   1.110  15.105 -0.3652  2.1559 -0.6924
 1098TIP3    H227490   1.557   1.076  15.124  0.3636 -0.8787  0.0530
 1099TIP3   OH227491   5.120   5.560  15.874  0.5857  0.4221  0.0614
 1099TIP3    H127492   5.118   5.651  15.902  1.0787  0.8721 -1.2693
 1099TIP3    H227493   5.055   5.555  15.804 -1.8293 -1.0527  2.2123
 1100TIP3   OH227494   0.925   1.424  15.256 -0.1424  0.7346  0.5393
 1100TIP3    H127495   0.893   1.431  15.166 -0.0240  1.1402  0.5294
 1100TIP3    H227496   1.020   1.414  15.248 -0.3405 -1.8038  0.5014
 1101TIP3   OH227497   6.459   4.214  16.798 -0.2841  0.1958 -0.0832
 1101TIP3    H127498   6.506   4.211  16.715  0.8018 -0.0646  0.5233
 1101TIP3    H227499   6.389   4.150  16.789  0.0377 -0.0713 -0.6713
 1102TIP3   OH227500   4.664   3.134  16.579  0.7102  0.0366 -0.5281
 1102TIP3    H127501   4.578   3.139  16.538 -0.1152  2.3291  1.3209
 1102TIP3    H227502   4.697   3.047  16.555 -1.0364  0.0302 -3.2873
 1103TIP3   OH227503   4.886   4.367  16.675  0.2196 -0.8766  0.2611
 1103TIP3    H127504   4.872   4.439  16.737 -0.3273 -0.6956 -0.0683
 1103TIP3    H227505   4.977   4.340  16.690  0.1659 -0.6711  0.9669
 1104TIP3   OH227506   2.851   6.377  15.010 -0.0231 -0.1653 -0.1212
 1104TIP3    H127507   2.894   6.301  14.970 -0.2362 -0.0165 -0.6357
 1104TIP3    H227508   2.918   6.414  15.068  0.4760 -0.0857 -0.7273
 1105TIP3   OH227509   3.774   4.140  16.308 -0.0848 -0.0158 -0.9645
 1105TIP3    H127510   3.698   4.193  16.329 -0.0442  0.2658 -1.5126
 1105TIP3    H227511   3.819   4.188  16.239  1.2130  0.3954  0.1161
 1106TIP3   OH227512   1.404   3.230  15.749 -1.3806  0.2935  0.3876
 1106TIP3    H127513   1.335   3.296  15.740 -0.2711  1.6445  1.3229
 1106TIP3    H227514   1.482   3.280  15.776 -0.5702 -1.4296  1.4374
 1107TIP3   OH227515   0.326   0.989  15.540 -0.1132 -0.0311 -0.0533
 1107TIP3    H127516   0.283   1.038  15.470 -0.8475 -0.6097 -0.0215
 1107TIP3    H227517   0.344   1.054  15.607 -0.2613  0.3570 -0.3828
 1108TIP3   OH227518   6.724   5.700  17.081  0.6377 -0.0704 -0.1273
 1108TIP3    H127519   6.819   5.691  17.093  0.4514 -1.6096  0.4387
 1108TIP3    H227520   6.710   5.795  17.074  2.1894  0.1998 -0.0174
 1109TIP3   OH227521   6.216   2.780  15.092  0.4527 -0.4132  0.2000
 1109TIP3    H127522   6.253   2.778  15.003 -0.7412  1.6209 -0.4004
 1109TIP3    H227523   6.140   2.837  15.085 -0.0198 -0.6865  2.4368
 1110TIP3   OH227524   0.615   2.785  15.138  0.1386 -0.6811 -0.0785
 1110TIP3    H127525   0.611   2.844  15.214 -0.8740 -2.0808  1.0270
 1110TIP3    H227526   0.531   2.798  15.094  1.4357  1.4980 -2.1414
 1111TIP3   OH227527   2.407   3.051  17.517  0.2624  0.1589  0.1572
 1111TIP3    H127528   2.330   3.105  17.500 -0.4566 -0.9019 -0.0525
 1111TIP3    H227529   2.479   3.098  17.475 -0.3255  0.9854  0.0477
 1112TIP3   OH227530   6.383   6.090  16.091 -0.3426 -0.2422 -0.2646
 1112TIP3    H127531   6.380   6.019  16.026 -0.1482 -0.4512 -0.0467
 1112TIP3    H227532   6.476   6.113  16.097 -0.5907  1.4946 -1.9050
 1113TIP3   OH227533   4.098   3.819  16.516  0.2998  0.0270  0.2366
 1113TIP3    H127534   4.147   3.839  16.596  0.9970  0.5947 -0.3226
 1113TIP3    H227535   4.099   3.901  16.466  0.6475 -0.5701 -0.7549
 1114TIP3   OH227536   0.772   0.723  17.293  0.1886 -0.6729  0.2524
 1114TIP3    H127537   0.832   0.786  17.335 -0.7353  0.4174 -0.0168
 1114TIP3    H227538   0.691   0.772  17.281 -0.2805 -1.6655 -0.7727
 1115TIP3   OH227539   6.673   2.951  18.032 -0.5436  0.1494 -0.7021
 1115TIP3    H127540   6.695   2.917  17.945 -1.2219  1.3017 -1.3447
 1115TIP3    H227541   6.754   2.946  18.082 -0.0034  0.0209 -1.5851
 1116TIP3   OH227542   1.611   1.068  16.130  0.0265 -0.1376 -0.8048
 1116TIP3    H127543   1.558   1.055  16.209 -0.1064 -1.5242 -1.1074
 1116TIP3    H227544   1.547   1.069  16.058  0.3219 -0.9294 -1.0844
 1117TIP3   OH227545   5.828   2.657  16.557 -0.4172  0.0672 -0.1483
 1117TIP3    H127546   5.830   2.742  16.602 -0.1165 -0.1681  0.2962
 1117TIP3    H227547   5.918   2.645  16.526 -0.9073  0.8278 -1.9866
 1118TIP3   OH227548   1.017   4.591  16.847  0.0580 -0.3092  0.1299
 1118TIP3    H127549   0.943   4.618  16.902  0.5052 -0.1003  0.6250
 1118TIP3    H227550   1.011   4.495  16.845 -0.2559 -0.2919  0.1254
 1119TIP3   OH227551   1.538   2.959  14.611  0.1272  0.4657  0.1418
 1119TIP3    H127552   1.490   2.971  14.530 -2.3830 -1.8525  1.1223
 1119TIP3    H227553   1.578   2.872  14.602  0.8107  0.6899  0.9206
 1120TIP3   OH227554   4.322   2.594  16.486  0.1553  0.1763 -0.1877
 1120TIP3    H127555   4.362   2.579  16.572 -0.0601 -0.6935 -0.2220
 1120TIP3    H227556   4.301   2.687  16.485  0.6688  0.3097  0.4831
 1121TIP3   OH227557   3.210   4.844  16.048  0.1488  0.7283  0.1206
 1121TIP3    H127558   3.258   4.915  16.091 -3.1584  3.5808 -0.4591
 1121TIP3    H227559   3.221   4.860  15.955  0.7457 -0.5995 -0.0571
 1122TIP3   OH227560   1.695   3.327  14.976  0.1067  0.4548  0.4307
 1122TIP3    H127561   1.634   3.313  15.048 -1.2362  1.3283 -0.4941
 1122TIP3    H227562   1.688   3.420  14.955 -0.5858 -0.0143 -1.7042
 1123TIP3   OH227563   1.816   3.051  17.892 -0.7391  0.6111  0.3377
 1123TIP3    H127564   1.838   2.958  17.881  0.4534  0.9424 -0.2804
 1123TIP3    H227565   1.901   3.094  17.901 -1.2931  1.6192  0.8185
 1124TIP3   OH227566   3.959   2.015  16.005 -0.0343 -0.1104 -0.3567
 1124TIP3    H127567   3.988   1.997  16.095  2.1895 -0.8728 -1.1520
 1124TIP3    H227568   3.998   1.944  15.953 -1.8938 -0.1251 -1.8514
 1125TIP3   OH227569   2.640   0.067  16.788  0.7215  0.5314  0.2278
 1125TIP3    H127570   2.592   0.033  16.713 -0.3168 -0.6832  1.3976
 1125TIP3    H227571   2.588   0.141  16.818  0.5347  0.3195  0.4258
 1126TIP3   OH227572   2.553   0.901  15.927  0.9369  0.3010  0.0278
 1126TIP3    H127573   2.500   0.979  15.942 -0.4285 -0.3527 -1.1812
 1126TIP3    H227574   2.639   0.935  15.901  0.3229  1.4049 -0.6021
 1127TIP3   OH227575   2.100   1.645  16.395 -0.0651 -0.2331  0.8252
 1127TIP3    H127576   2.162   1.634  16.467 -1.8789 -1.4997  2.3029
 1127TIP3    H227577   2.014   1.630  16.435 -1.1792 -0.7533 -1.5699
 1128TIP3   OH227578   1.989   5.266  14.860  0.4330 -0.6801  0.3463
 1128TIP3    H127579   1.985   5.361  14.849  0.3283 -0.8192 -1.0125
 1128TIP3    H227580   1.931   5.232  14.792  1.3026 -1.7505  0.1081
 1129TIP3   OH227581   6.691   1.969  16.362  0.3834 -0.3302 -0.5541
 1129TIP3    H127582   6.606   1.928  16.377 -0.5648  0.4575 -3.1778
 1129TIP3    H227583   6.755   1.904  16.389 -1.0720 -1.7794 -0.4766
 1130TIP3   OH227584   5.154   1.844  15.397  0.2275  0.4412  0.4113
 1130TIP3    H127585   5.237   1.868  15.438 -0.5973  1.6125  1.4629
 1130TIP3    H227586   5.140   1.912  15.331 -0.4223  0.8784  0.9923
 1131TIP3   OH227587   0.137   4.717  16.898  0.1394  0.1164  0.2713
 1131TIP3    H127588   0.193   4.701  16.974  0.3886  1.4957  0.4026
 1131TIP3    H227589   0.048   4.701  16.929  0.2847  0.1723  0.7213
 1132TIP3   OH227590   1.107   1.122  17.548 -0.8098  0.1803 -0.5331
 1132TIP3    H127591   1.091   1.144  17.456 -0.5227 -0.1421 -0.6628
 1132TIP3    H227592   1.166   1.047  17.544 -0.8698  0.1098 -0.0840
 1133TIP3   OH227593   4.075   0.561  16.492  0.0432 -0.6206  0.1630
 1133TIP3    H127594   4.086   0.540  16.399  0.3627  0.4481 -0.0619
 1133TIP3    H227595   3.985   0.595  16.498  0.3285  0.1837  0.0512
 1134TIP3   OH227596   2.827   3.902  16.577  0.2419 -0.6497  0.4556
 1134TIP3    H127597   2.869   3.890  16.492  0.9024 -0.4766  0.7495
 1134TIP3    H227598   2.824   3.997  16.589  0.0591 -0.6706  0.5798
 1135TIP3   OH227599   2.742   0.532  17.444 -0.7920 -0.2252 -0.3854
 1135TIP3    H127600   2.809   0.496  17.386 -0.7597 -2.3375  0.8563
 1135TIP3    H227601   2.782   0.527  17.531 -3.1948 -3.5584  0.7268
 1136TIP3   OH227602   3.650   3.412  16.124  0.5225  0.2882 -0.4065
 1136TIP3    H127603   3.676   3.324  16.100  0.9693  0.3573 -0.1819
 1136TIP3    H227604   3.618   3.404  16.214  2.0504  0.6183  0.2024
 1137TIP3   OH227605   0.869   1.244  15.487  0.5837  0.1930 -0.5481
 1137TIP3    H127606   0.875   1.280  15.399  0.4243 -2.1783 -1.5879
 1137TIP3    H227607   0.944   1.185  15.494 -0.5926 -1.2799  0.0885
 1138TIP3   OH227608   5.582   6.447  15.582 -0.9906  0.1009  0.0419
 1138TIP3    H127609   5.559   6.451  15.489 -1.3924  1.1001  0.1732
 1138TIP3    H227610   5.625   6.530  15.600  0.0202 -0.5112  0.5258
 1139TIP3   OH227611   0.563   4.520  16.076  0.3120  0.2119  0.1667
 1139TIP3    H127612   0.507   4.594  16.099  0.2265 -0.1626  1.2018
 1139TIP3    H227613   0.624   4.512  16.149  0.6466 -0.4290 -0.1691
 1140TIP3   OH227614   4.338   3.477  15.279  0.4845 -0.5517 -0.3104
 1140TIP3    H127615   4.297   3.396  15.311  0.7283  0.2890  2.3465
 1140TIP3    H227616   4.265   3.529  15.246 -0.0961 -0.6633  0.7482
 1141TIP3   OH227617   3.682   1.528  16.682  0.2285 -0.2307 -0.0440
 1141TIP3    H127618   3.625   1.574  16.745  0.2410  0.3891 -0.4784
 1141TIP3    H227619   3.644   1.440  16.676  0.4757 -0.4429  1.1515
 1142TIP3   OH227620   0.506   4.508  15.555 -0.0790 -0.1584 -0.5527
 1142TIP3    H127621   0.526   4.565  15.630 -0.9255  0.8532 -1.0695
 1142TIP3    H227622   0.427   4.461  15.582 -0.1376 -0.1086 -0.6382
 1143TIP3   OH227623   1.984   0.389  15.254 -0.1191 -0.5301  0.5823
 1143TIP3    H127624   2.033   0.319  15.297  1.4123 -0.0710 -0.3336
 1143TIP3    H227625   2.022   0.395  15.166 -0.5523  1.1194  0.4706
 1144TIP3   OH227626   0.675   5.631  14.755  0.4759 -0.2613 -1.1015
 1144TIP3    H127627   0.668   5.712  14.704 -2.9097  0.2463 -0.1028
 1144TIP3    H227628   0.748   5.583  14.716  1.3514  2.4005 -2.9626
 1145TIP3   OH227629   1.881   1.007  16.150  0.3587  0.3845 -0.1810
 1145TIP3    H127630   1.893   1.024  16.244 -0.6059 -1.4591  0.3213
 1145TIP3    H227631   1.787   1.018  16.136  0.6830  2.0300 -1.2666
 1146TIP3   OH227632   0.434   2.295  16.587 -0.1740  0.5763  0.2518
 1146TIP3    H127633   0.434   2.202  16.565 -0.6022  0.3957  0.9856
 1146TIP3    H227634   0.498   2.333  16.527  1.0245 -0.4196  0.8443
 1147TIP3   OH227635   0.842   3.353  16.287  0.6699  0.2130  0.4761
 1147TIP3    H127636   0.898   3.358  16.364  0.5158 -1.5509  0.7444
 1147TIP3    H227637   0.892   3.396  16.218  2.3116 -1.1763  0.7428
 1148TIP3   OH227638   5.649   4.112  17.756  0.0533  0.6028 -0.0146
 1148TIP3    H127639   5.640   4.078  17.667 -0.3322 -0.7599  0.5208
 1148TIP3    H227640   5.711   4.184  17.747  0.0582  0.4688 -1.3807
 1149TIP3   OH227641   1.134   5.933  16.491 -0.0758 -0.5678 -0.1618
 1149TIP3    H127642   1.123   5.866  16.557  0.7605  0.9608  1.6166
 1149TIP3    H227643   1.048   5.976  16.486  0.7548  1.7844  2.8653
 1150TIP3   OH227644   3.637   5.967  17.450  0.0633  0.1087  0.1788
 1150TIP3    H127645   3.605   5.995  17.536  0.5728  0.2956  0.3107
 1150TIP3    H227646   3.589   5.886  17.432  0.7221 -0.5304  1.1400
 1151TIP3   OH227647   4.396   6.746  15.447  0.0255 -0.1396 -0.2077
 1151TIP3    H127648   4.465   6.742  15.514  0.7674 -0.3651 -0.9727
 1151TIP3    H227649   4.429   6.693  15.375  0.1794  1.7619 -1.6207
 1152TIP3   OH227650   2.214   3.213  17.359  0.0115 -0.5348 -0.2575
 1152TIP3    H127651   2.245   3.158  17.288 -1.9391 -1.3084 -0.5460
 1152TIP3    H227652   2.189   3.295  17.317 -0.1127 -0.5930 -0.2964
 1153TIP3   OH227653   1.917   0.521  15.821 -0.1020 -0.0730  0.0132
 1153TIP3    H127654   1.869   0.513  15.739 -1.2376  0.0504  0.6355
 1153TIP3    H227655   1.961   0.606  15.815 -0.9526  0.3784 -0.0949
 1154TIP3   OH227656   2.344   6.284  16.663  0.2111  0.1212  0.0176
 1154TIP3    H127657   2.439   6.269  16.664  0.1846 -0.0467  0.5727
 1154TIP3    H227658   2.306   6.197  16.679 -0.0410  0.1607 -0.3640
 1155TIP3   OH227659   4.012   3.946  17.476 -0.7932  0.6578  0.2392
 1155TIP3    H127660   4.100   3.966  17.444 -0.3289 -0.7879  0.5375
 1155TIP3    H227661   4.023   3.932  17.570 -1.4329  0.9184  0.3606
 1156TIP3   OH227662   0.249   1.687  16.966 -0.4912  0.0083 -0.1634
 1156TIP3    H127663   0.249   1.592  16.961 -0.2801  0.0249 -0.5059
 1156TIP3    H227664   0.159   1.713  16.944 -0.4855 -0.0997 -0.3125
 1157TIP3   OH227665   0.456   2.904  17.209  0.7387 -0.7896 -0.1489
 1157TIP3    H127666   0.500   2.988  17.198  0.3224 -0.1100  2.5726
 1157TIP3    H227667   0.524   2.839  17.196  1.3392  0.0117 -1.1205
 1158TIP3   OH227668   0.393   1.668  15.768  0.7392 -0.5207 -0.3428
 1158TIP3    H127669   0.432   1.619  15.696  1.0522  3.1337 -2.9258
 1158TIP3    H227670   0.466   1.718  15.806 -0.2699  1.4972 -0.9632
 1159TIP3   OH227671   5.325   4.643  17.598 -0.1593 -0.7858  0.4358
 1159TIP3    H127672   5.419   4.654  17.584 -0.3217 -0.3347 -0.4010
 1159TIP3    H227673   5.306   4.695  17.676  0.2440 -0.6767  0.4642
 1160TIP3   OH227674   0.982   6.300  17.529  0.0300  0.0437  0.0917
 1160TIP3    H127675   0.911   6.239  17.510  1.2821 -1.5047  0.1225
 1160TIP3    H227676   0.972   6.369  17.464 -0.8454 -0.7207 -0.6223
 1161TIP3   OH227677   6.254   2.290  15.305  0.1843 -0.0079 -0.5832
 1161TIP3    H127678   6.297   2.241  15.235  1.5439  1.9915 -1.2306
 1161TIP3    H227679   6.224   2.370  15.264 -0.6839  0.3840  0.7482
 1162TIP3   OH227680   1.468   1.641  15.368 -0.1059 -0.0028  0.5682
 1162TIP3    H127681   1.489   1.661  15.277 -0.8920  0.4770  0.4789
 1162TIP3    H227682   1.381   1.679  15.382 -0.3110 -0.6875  1.3120
 1163TIP3   OH227683   3.433   4.067  15.956 -0.0182  0.0296  0.0486
 1163TIP3    H127684   3.451   4.160  15.964  0.7572 -0.1071 -0.0719
 1163TIP3    H227685   3.517   4.024  15.971 -0.2558 -0.6275 -0.4275
 1164TIP3   OH227686   4.351   1.767  15.170 -0.3428 -0.0392 -0.6387
 1164TIP3    H127687   4.333   1.682  15.131  3.2901 -0.3490 -1.9716
 1164TIP3    H227688   4.413   1.809  15.110  0.0488  2.4358  1.3219
 1165TIP3   OH227689   1.433   1.112  16.835 -0.0147  0.9377  0.0489
 1165TIP3    H127690   1.490   1.103  16.912  0.2256  1.3820 -0.0762
 1165TIP3    H227691   1.369   1.179  16.861  0.8669  2.0617 -0.6047
 1166TIP3   OH227692   1.752   4.402  17.707 -0.3344 -0.1292 -0.4697
 1166TIP3    H127693   1.785   4.489  17.684  0.3987 -0.4559 -0.6550
 1166TIP3    H227694   1.828   4.345  17.700 -0.9833 -0.9308 -1.1463
 1167TIP3   OH227695   4.565   3.766  17.771 -0.1055 -0.0001 -0.2181
 1167TIP3    H127696   4.615   3.774  17.689 -0.3391  0.0403 -0.3570
 1167TIP3    H227697   4.616   3.815  17.835 -0.2416  0.4904 -0.4841
 1168TIP3   OH227698   1.266   1.355  16.829 -0.3904  0.7216 -0.4752
 1168TIP3    H127699   1.190   1.308  16.863  0.3620  0.2762  0.6348
 1168TIP3    H227700   1.257   1.443  16.864  0.8720  0.0254  1.7656
 1169TIP3   OH227701   1.575   1.934  15.125  0.2347 -0.1601  0.0186
 1169TIP3    H127702   1.490   1.958  15.161  0.5316 -0.8201  1.2066
 1169TIP3    H227703   1.638   1.982  15.178  0.5894  1.9053 -2.1077
 1170TIP3   OH227704   4.388   2.136  17.592  0.6429  0.1472 -0.2244
 1170TIP3    H127705   4.333   2.107  17.664  1.0689  3.8045  1.8332
 1170TIP3    H227706   4.334   2.125  17.514 -1.8529  0.6822  1.3329
 1171TIP3   OH227707   3.582   4.586  16.033 -0.5514  0.9587 -0.0260
 1171TIP3    H127708   3.587   4.680  16.021 -1.0214  0.8303 -1.3799
 1171TIP3    H227709   3.668   4.553  16.005 -0.0503  1.0542  1.3470
 1172TIP3   OH227710   5.247   0.959  17.935 -0.2075  0.6735 -0.1435
 1172TIP3    H127711   5.340   0.935  17.930 -0.7026 -2.0283  1.7222
 1172TIP3    H227712   5.247   1.050  17.964  1.8579  0.4586  0.6934
 1173TIP3   OH227713   2.159   1.481  15.948  0.4352 -0.1021 -0.0800
 1173TIP3    H127714   2.122   1.526  15.872 -0.1777  0.4110  0.5025
 1173TIP3    H227715   2.096   1.498  16.019 -2.0867 -5.0838 -0.6223
 1174TIP3   OH227716   2.206   2.645  16.010 -0.0448  0.0426 -0.1986
 1174TIP3    H127717   2.159   2.569  16.044  0.6008 -0.0444  0.5168
 1174TIP3    H227718   2.194   2.641  15.916 -2.1457  0.4577  0.0056
 1175TIP3   OH227719   0.109   0.352  15.592  0.0786 -0.5913  0.2084
 1175TIP3    H127720   0.069   0.439  15.598  1.4271  0.2287 -1.8120
 1175TIP3    H227721   0.053   0.305  15.531  0.3125 -0.5651 -0.0265
 1176TIP3   OH227722   3.990   3.456  17.322 -1.0065 -0.0425  0.5120
 1176TIP3    H127723   4.026   3.542  17.300  0.6670 -0.6157  0.8686
 1176TIP3    H227724   4.030   3.396  17.259 -1.3497 -0.7139  0.9162
 1177TIP3   OH227725   0.208   5.663  17.132 -0.4103 -0.0745 -0.4597
 1177TIP3    H127726   0.204   5.753  17.100 -0.9009  0.2892  0.5885
 1177TIP3    H227727   0.250   5.614  17.061 -1.2047  0.7524 -1.5173
 1178TIP3   OH227728   6.097   1.097  14.964 -0.0070  0.2948  0.7377
 1178TIP3    H127729   6.173   1.052  14.927  0.3121  1.1138  0.3573
 1178TIP3    H227730   6.102   1.185  14.926 -1.7126  0.0682 -0.1122
 1179TIP3   OH227731   6.036   3.514  15.077 -0.0703 -0.1408 -0.3660
 1179TIP3    H127732   6.079   3.583  15.026  2.1570 -1.5726 -0.5565
 1179TIP3    H227733   6.080   3.516  15.162 -0.3837 -0.9430 -0.1774
 1180TIP3   OH227734   2.986   0.255  16.563 -0.4062 -0.2049  0.3598
 1180TIP3    H127735   2.914   0.192  16.566  0.7265 -1.5712 -0.0355
 1180TIP3    H227736   2.945   0.340  16.579 -2.1472 -0.9043 -0.2362
 1181TIP3   OH227737   5.920   1.799  15.846 -0.1654 -0.4838  0.2553
 1181TIP3    H127738   5.983   1.846  15.790  0.4565  0.6027  1.7960
 1181TIP3    H227739   5.972   1.731  15.888 -0.1965 -0.1115  0.9051
 1182TIP3   OH227740   0.417   4.112  15.362 -0.9952 -0.2138  0.0632
 1182TIP3    H127741   0.448   4.199  15.338 -1.1944 -0.2496 -0.3158
 1182TIP3    H227742   0.371   4.125  15.445  2.1424 -0.5240  2.0556
 1183TIP3   OH227743   0.470   4.666  15.845  0.1843  0.6722 -1.2065
 1183TIP3    H127744   0.374   4.669  15.850  0.0984 -1.2688 -0.9931
 1183TIP3    H227745   0.496   4.613  15.920  1.4978  1.7103 -0.8880
 1184TIP3   OH227746   6.023   6.758  17.135  0.3939  0.3555  0.0385
 1184TIP3    H127747   6.042   6.846  17.169 -0.0344  1.1110 -1.5658
 1184TIP3    H227748   6.076   6.752  17.055 -0.5659 -0.3372 -0.5663
 1185TIP3   OH227749   1.323   6.312  16.132 -0.0403 -0.3238 -0.0103
 1185TIP3    H127750   1.408   6.313  16.177 -0.0689  0.0074  0.0342
 1185TIP3    H227751   1.310   6.401  16.102 -0.6720 -0.2185  0.5480
 1186TIP3   OH227752   3.413   2.320  16.235  0.1277  0.9321 -0.5865
 1186TIP3    H127753   3.328   2.362  16.250 -1.2679 -1.5685 -0.9415
 1186TIP3    H227754   3.462   2.334  16.316 -1.5134  0.4753  0.5363
 1187TIP3   OH227755   0.650   6.196  15.958 -0.2024 -0.2262 -0.8327
 1187TIP3    H127756   0.625   6.165  15.870 -2.3925 -0.6034 -0.1491
 1187TIP3    H227757   0.606   6.281  15.966 -0.7769 -0.6116  0.2214
 1188TIP3   OH227758   1.043   1.193  16.898  0.9181 -0.8602 -0.5753
 1188TIP3    H127759   1.023   1.115  16.950 -1.6392 -0.5001 -0.8714
 1188TIP3    H227760   1.029   1.165  16.807 -0.1380 -0.0783 -0.6761
 1189TIP3   OH227761   2.138   5.515  17.352  0.3802  0.3148 -0.0934
 1189TIP3    H127762   2.190   5.580  17.400 -0.0069  1.1474 -0.7844
 1189TIP3    H227763   2.052   5.518  17.392 -0.4371  2.1849 -1.8009
 1190TIP3   OH227764   1.513   3.903  15.654  0.2307  0.2696  0.5135
 1190TIP3    H127765   1.540   3.962  15.585  0.4015 -0.1115  0.2484
 1190TIP3    H227766   1.580   3.913  15.722  0.4921  0.0662  0.2865
 1191TIP3   OH227767   1.349   4.626  16.968  0.1446 -0.3625 -0.0935
 1191TIP3    H127768   1.383   4.578  17.044  0.0719 -1.0445 -0.4767
 1191TIP3    H227769   1.416   4.690  16.947  1.7957 -2.3873 -1.5030
 1192TIP3   OH227770   0.983   4.752  16.251  0.1931  0.4953  0.2809
 1192TIP3    H127771   0.920   4.736  16.180 -0.3325  0.5483  0.7266
 1192TIP3    H227772   1.069   4.746  16.209 -0.0778 -0.6328 -0.1342
 1193TIP3   OH227773   4.377   3.561  16.726  0.5216  0.3627  0.4193
 1193TIP3    H127774   4.347   3.544  16.637  0.3276  0.5091  0.4563
 1193TIP3    H227775   4.332   3.497  16.780 -0.0013  0.8071  0.5207
 1194TIP3   OH227776   5.866   3.134  15.987 -0.0332  0.4790 -0.3617
 1194TIP3    H127777   5.915   3.089  16.056 -0.7769  1.8796  1.1363
 1194TIP3    H227778   5.895   3.225  15.992 -1.7376  1.0519 -0.3770
 1195TIP3   OH227779   0.630   4.307  16.610  0.0333  0.1041 -0.3738
 1195TIP3    H127780   0.656   4.225  16.652  0.0625 -1.0201 -2.4464
 1195TIP3    H227781   0.646   4.374  16.676 -0.9668 -1.6443  1.7625
 1196TIP3   OH227782   6.215   1.545  14.754 -0.1426 -0.2652 -0.7843
 1196TIP3    H127783   6.250   1.631  14.729  0.2959 -0.4207 -0.7136
 1196TIP3    H227784   6.131   1.565  14.795  0.1455  0.1678 -0.3888
 1197TIP3   OH227785   3.562   2.502  14.907  0.5523  0.3138  0.1312
 1197TIP3    H127786   3.609   2.434  14.858 -1.7239 -1.1607 -0.1695
 1197TIP3    H227787   3.510   2.547  14.841  0.1337  0.6613  0.6906
 1198TIP3   OH227788   1.684   2.292  16.212 -0.2130  0.0506  0.1961
 1198TIP3    H127789   1.734   2.321  16.288 -2.6568  0.5784  1.7004
 1198TIP3    H227790   1.666   2.199  16.229 -0.5662  0.1098  0.1508
 1199TIP3   OH227791   1.099   0.405  15.673 -0.2241  0.0138  0.5363
 1199TIP3    H127792   1.059   0.325  15.640 -1.3729 -0.0459  1.9316
 1199TIP3    H227793   1.077   0.472  15.608  1.6148 -0.9395 -1.1587
 1200TIP3   OH227794   2.618   1.216  14.508  0.2810  0.2866 -0.3575
 1200TIP3    H127795   2.651   1.285  14.565 -0.7498 -0.3882  1.1234
 1200TIP3    H227796   2.688   1.201  14.445  1.5715  0.9070  0.8707
 1201TIP3   OH227797   4.232   5.355  16.262  0.3683  0.0986 -0.6858
 1201TIP3    H127798   4.302   5.291  16.277  0.9917  1.2298  1.6488
 1201TIP3    H227799   4.176   5.349  16.339 -0.3319  1.3971 -1.0555
 1202TIP3   OH227800   1.864   6.412  16.135 -0.2700 -0.2595  0.0946
 1202TIP3    H127801   1.848   6.348  16.065 -2.8167 -0.9692  1.2235
 1202TIP3    H227802   1.809   6.486  16.113  0.3639  0.3171  0.4013
 1203TIP3   OH227803   5.876   2.774  17.414  0.0582 -0.8377 -0.2988
 1203TIP3    H127804   5.804   2.711  17.417  1.0198 -1.9590  1.7336
 1203TIP3    H227805   5.907   2.778  17.505  0.7682  1.7504 -0.5797
 1204TIP3   OH227806   0.381   3.113  15.081 -0.0829 -0.4141  0.4874
 1204TIP3    H127807   0.349   3.167  15.009  1.9186  0.3052  0.0699
 1204TIP3    H227808   0.318   3.041  15.087 -2.1523  1.2581  0.2388
 1205TIP3   OH227809   1.632   1.683  17.897 -0.1401  0.5798  0.0208
 1205TIP3    H127810   1.707   1.686  17.838 -1.3167  0.3975 -1.5581
 1205TIP3    H227811   1.663   1.631  17.972  2.0154  2.4898  0.5713
 1206TIP3   OH227812   5.932   3.733  17.695 -0.5811  0.1018 -0.1161
 1206TIP3    H127813   5.921   3.642  17.667 -0.7886  0.6468 -1.8979
 1206TIP3    H227814   5.961   3.726  17.786 -1.3020 -1.7219  0.0227
 1207TIP3   OH227815   5.914   5.192  15.814 -0.3148 -0.1729 -0.5543
 1207TIP3    H127816   5.997   5.228  15.845 -1.2335 -0.0875  2.0335
 1207TIP3    H227817   5.848   5.256  15.841 -1.5350 -1.7589  0.3730
 1208TIP3   OH227818   4.202   3.276  17.178  0.3580 -0.2854 -0.4019
 1208TIP3    H127819   4.214   3.224  17.257  1.1854 -0.1851 -0.4539
 1208TIP3    H227820   4.279   3.255  17.124  0.4115  0.5639 -0.6614
 1209TIP3   OH227821   4.208   3.221  15.379  0.5087 -0.1300  0.4510
 1209TIP3    H127822   4.226   3.179  15.463 -0.4339  0.8750  1.1775
 1209TIP3    H227823   4.155   3.158  15.332  0.6234 -0.4955  0.8013
 1210TIP3   OH227824   3.218   1.917  17.609  0.1297 -0.2026 -0.1117
 1210TIP3    H127825   3.173   1.843  17.568 -0.0639  0.2077 -0.6407
 1210TIP3    H227826   3.150   1.961  17.660  0.0549  0.1049 -0.4783
 1211TIP3   OH227827   2.951   4.952  15.364 -0.1460 -0.3143  0.1567
 1211TIP3    H127828   3.018   4.951  15.432  0.9243  1.6348 -0.8126
 1211TIP3    H227829   2.982   5.015  15.299 -3.7013  2.1043  0.4989
 1212TIP3   OH227830   3.180   5.836  18.091 -0.0831 -0.4610  0.5441
 1212TIP3    H127831   3.235   5.843  18.013  1.4382  1.4788  1.7008
 1212TIP3    H227832   3.091   5.853  18.060  0.7612  2.6357 -0.4933
 1213TIP3   OH227833   3.542   5.510  15.997 -0.0669  0.0629 -0.3889
 1213TIP3    H127834   3.467   5.451  16.006 -0.6671  0.8028 -0.4855
 1213TIP3    H227835   3.613   5.464  16.042 -0.8727 -0.1218  0.7477
 1214TIP3   OH227836   0.671   2.994  18.061  0.3375  0.5844  0.0269
 1214TIP3    H127837   0.759   2.977  18.026  0.2293 -2.0505  0.8266
 1214TIP3    H227838   0.618   2.922  18.027 -1.4528  1.9066 -0.1072
 1215TIP3   OH227839   3.631   1.805  16.068 -0.4474 -0.9467 -0.0865
 1215TIP3    H127840   3.605   1.793  15.977 -0.9841 -2.7023  0.2541
 1215TIP3    H227841   3.584   1.883  16.097  1.6204  1.1351 -1.9478
 1216TIP3   OH227842   6.561   2.218  18.095  0.3319  0.5654 -0.2831
 1216TIP3    H127843   6.540   2.235  18.003 -1.1609 -3.2625 -0.8246
 1216TIP3    H227844   6.476   2.203  18.137  1.1476 -1.2600  0.8519
 1217TIP3   OH227845   2.074   6.107  15.464  0.1985 -0.4808 -0.0336
 1217TIP3    H127846   2.152   6.080  15.513  0.9496 -0.4508 -1.1779
 1217TIP3    H227847   2.014   6.034  15.473  0.9742 -1.1855 -0.4375
 1218TIP3   OH227848   2.023   2.586  17.564  0.3581 -0.1684  0.2886
 1218TIP3    H127849   2.036   2.675  17.532  0.5820 -0.4553 -0.4562
 1218TIP3    H227850   1.983   2.540  17.489  1.9481 -1.1615 -0.0063
 1219TIP3   OH227851   4.432   4.071  16.345  0.0924 -0.1930 -0.1656
 1219TIP3    H127852   4.514   4.026  16.367  1.2377  2.4934  1.5175
 1219TIP3    H227853   4.430   4.146  16.403 -3.1595  0.3622 -0.8341
 1220TIP3   OH227854   4.146   2.390  17.896 -0.1257 -0.0816  0.7520
 1220TIP3    H127855   4.069   2.371  17.950 -0.8006 -2.4402 -0.9075
 1220TIP3    H227856   4.206   2.318  17.913 -0.2265 -0.7205 -1.3580
 1221TIP3   OH227857   6.119   0.250  14.740 -0.4399 -0.2168 -0.2026
 1221TIP3    H127858   6.108   0.155  14.749 -0.3656 -0.2414 -0.3771
 1221TIP3    H227859   6.115   0.266  14.646  0.5543 -0.1712 -0.2479
 1222TIP3   OH227860   2.551   5.880  16.864 -0.3009  0.3517 -0.1545
 1222TIP3    H127861   2.508   5.872  16.950 -0.5000 -1.1607 -0.3819
 1222TIP3    H227862   2.639   5.911  16.885 -0.0942 -0.7346  0.6740
 1223TIP3   OH227863   4.527   4.118  17.631 -0.6425  0.1432 -0.2096
 1223TIP3    H127864   4.603   4.164  17.668 -0.2543 -0.2775 -0.4796
 1223TIP3    H227865   4.518   4.153  17.543  0.5861 -1.3641 -0.9688
 1224TIP3   OH227866   4.002   2.968  17.163 -0.0757 -0.0410  0.3078
 1224TIP3    H127867   4.097   2.967  17.164  0.1445  4.0765 -0.0684
 1224TIP3    H227868   3.976   2.975  17.255  0.0472 -0.0780  0.3444
 1225TIP3   OH227869   4.854   1.531  16.301  0.2502  0.1011  0.2829
 1225TIP3    H127870   4.928   1.506  16.356  0.2899 -0.8891 -0.1940
 1225TIP3    H227871   4.791   1.571  16.362  1.8291  2.5689  0.4345
 1226TIP3   OH227872   2.789   1.921  14.897 -0.1176  0.0541 -0.0882
 1226TIP3    H127873   2.747   1.849  14.852 -1.6865  1.0732 -0.3373
 1226TIP3    H227874   2.873   1.931  14.853  0.2338 -1.7276  0.1037
 1227TIP3   OH227875   6.264   3.840  17.831 -0.5187 -0.0539 -0.4276
 1227TIP3    H127876   6.248   3.886  17.749  0.7296  0.3612 -0.4586
 1227TIP3    H227877   6.245   3.748  17.811 -1.8674  0.2557 -0.6929
 1228TIP3   OH227878   4.766   1.494  17.804  0.3275  0.2082  0.4123
 1228TIP3    H127879   4.714   1.569  17.778 -0.3282 -0.7020 -1.0225
 1228TIP3    H227880   4.845   1.498  17.749  0.6792  0.2995  0.9169
 1229TIP3   OH227881   0.340   4.345  16.334 -0.2297  0.4273  0.0267
 1229TIP3    H127882   0.256   4.384  16.359 -0.0861  2.0203 -1.7101
 1229TIP3    H227883   0.320   4.253  16.316 -1.1844  0.3231  1.5221
 1230TIP3   OH227884   1.664   6.752  16.988  0.2913  0.1061 -0.1010
 1230TIP3    H127885   1.737   6.739  16.927  0.9413  2.0324  0.1703
 1230TIP3    H227886   1.705   6.753  17.074 -0.3587 -0.7980  0.2248
 1231TIP3   OH227887   3.136   1.787  16.670 -0.9379  0.3601 -0.2150
 1231TIP3    H127888   3.059   1.844  16.674 -0.6130  0.9448 -1.7270
 1231TIP3    H227889   3.112   1.710  16.722 -3.0084 -0.0109 -1.6214
 1232TIP3   OH227890   4.237   6.400  15.627 -0.0053  0.2418  0.5175
 1232TIP3    H127891   4.246   6.366  15.716  1.7957  1.3748  0.8103
 1232TIP3    H227892   4.272   6.331  15.571  0.7704  0.3543  0.8578
 1233TIP3   OH227893   0.076   3.478  17.047  0.1044 -0.4992  0.7175
 1233TIP3    H127894   0.032   3.428  16.979  0.7131  0.0876 -0.1282
 1233TIP3    H227895   0.111   3.413  17.107 -0.8672 -1.0080  0.7501
 1234TIP3   OH227896   2.912   6.223  16.083  0.0757  0.1597  0.3561
 1234TIP3    H127897   3.007   6.215  16.089  0.0520 -1.1136 -0.4382
 1234TIP3    H227898   2.884   6.140  16.044 -1.3596  0.5283  0.5436
 1235TIP3   OH227899   3.855   0.003  15.919 -0.0255  0.2372  0.0102
 1235TIP3    H127900   3.768  -0.026  15.949 -0.4551  1.5759  0.1115
 1235TIP3    H227901   3.869  -0.044  15.837  0.1300 -1.6790  1.0658
 1236TIP3   OH227902   0.879   3.181  15.411 -0.5848 -0.2372 -0.7389
 1236TIP3    H127903   0.864   3.261  15.461  1.3950 -0.3940  0.1787
 1236TIP3    H227904   0.937   3.208  15.339  1.7200 -1.1097  0.6748
 1237TIP3   OH227905   5.631   1.748  17.551 -0.5174 -0.4299 -0.0834
 1237TIP3    H127906   5.596   1.719  17.634  0.4209 -0.3032  0.3745
 1237TIP3    H227907   5.693   1.818  17.574 -0.6746  0.0088 -0.9292
 1238TIP3   OH227908   1.785   3.947  17.210 -0.0326  0.1048  0.0255
 1238TIP3    H127909   1.800   3.996  17.291 -0.9928 -0.9003  0.8418
 1238TIP3    H227910   1.778   3.856  17.238 -0.0166 -0.3080 -1.2411
 1239TIP3   OH227911   2.834   5.186  15.600  0.3418  0.0765 -0.2510
 1239TIP3    H127912   2.751   5.200  15.553  0.7307  1.1577 -0.6554
 1239TIP3    H227913   2.838   5.091  15.614 -1.8997  0.1553  1.5464
 1240TIP3   OH227914   0.152   5.309  15.126  0.2055 -0.3690 -0.3002
 1240TIP3    H127915   0.130   5.303  15.219  0.5240  0.2300 -0.1766
 1240TIP3    H227916   0.239   5.348  15.125 -0.2228  0.6160 -0.8728
 1241TIP3   OH227917   4.854   1.554  16.953 -0.1197  0.4132  0.3223
 1241TIP3    H127918   4.789   1.501  16.907  1.4485 -0.6076 -0.8358
 1241TIP3    H227919   4.907   1.490  17.001  2.1617  0.7549 -1.5368
 1242TIP3   OH227920   0.349   0.108  17.133 -0.1678  0.6228 -0.1097
 1242TIP3    H127921   0.337   0.065  17.218 -0.3195 -2.7967 -1.6871
 1242TIP3    H227922   0.429   0.069  17.098 -0.9463  0.7471 -2.1505
 1243TIP3   OH227923   6.583   3.320  17.066  0.1326  0.3587 -0.1460
 1243TIP3    H127924   6.628   3.279  16.992  0.9129  1.3665 -0.2558
 1243TIP3    H227925   6.585   3.254  17.135 -1.2986 -0.9114 -1.2316
 1244TIP3   OH227926   5.752   2.391  16.440 -0.7447  0.2921  0.6548
 1244TIP3    H127927   5.770   2.472  16.489 -0.1423 -0.0096  0.9506
 1244TIP3    H227928   5.773   2.413  16.350  0.6938  0.1049  0.9195
 1245TIP3   OH227929   4.207   3.676  17.540  0.2607  0.0041  0.5474
 1245TIP3    H127930   4.181   3.639  17.456  0.7403 -1.0030  0.8298
 1245TIP3    H227931   4.212   3.770  17.523  3.1499 -0.3619 -1.3681
 1246TIP3   OH227932   0.746   1.702  17.185  0.4763  0.2276 -0.1046
 1246TIP3    H127933   0.830   1.682  17.143  1.5661  2.7392  0.7000
 1246TIP3    H227934   0.749   1.654  17.268  0.8533 -0.1586 -0.3329
 1247TIP3   OH227935   1.462   2.842  17.856  0.2982 -0.3230  0.5475
 1247TIP3    H127936   1.547   2.855  17.815  0.1071 -0.9133 -0.0417
 1247TIP3    H227937   1.473   2.764  17.911  0.6642  0.6786  1.9484
 1248TIP3   OH227938   3.785   1.272  18.198  0.0159 -0.0031  0.2412
 1248TIP3    H127939   3.866   1.302  18.156  1.6763 -0.3548  2.9711
 1248TIP3    H227940   3.814   1.205  18.261 -2.4018 -0.1036  1.3624
 1249TIP3   OH227941   2.579   2.439  16.310 -0.1781 -0.0271 -0.1881
 1249TIP3    H127942   2.506   2.430  16.248  0.5455  0.5097 -1.1447
 1249TIP3    H227943   2.636   2.505  16.270  1.2181 -0.9970  0.1519
 1250TIP3   OH227944   2.680   5.005  15.389 -0.3705 -0.1024  0.3305
 1250TIP3    H127945   2.616   4.936  15.376 -0.9259  0.3021  0.8340
 1250TIP3    H227946   2.764   4.964  15.372 -0.6880 -0.9105  0.6802
 1251TIP3   OH227947   1.975   4.808  16.812 -0.3609  0.5335  0.0949
 1251TIP3    H127948   1.933   4.869  16.751 -0.7023  0.3062  0.1031
 1251TIP3    H227949   2.057   4.851  16.835  0.0014  0.3979 -0.9017
 1252TIP3   OH227950   0.644   4.140  15.109  0.3348  0.2316 -0.0187
 1252TIP3    H127951   0.582   4.067  15.101 -0.8193  1.3105 -1.6121
 1252TIP3    H227952   0.651   4.175  15.020  1.5919  1.4902  0.5352
 1253TIP3   OH227953   1.113   0.009  16.144 -0.2145  0.6462 -0.4553
 1253TIP3    H127954   1.191   0.015  16.198 -0.8547  1.3399  0.4404
 1253TIP3    H227955   1.145  -0.008  16.056  0.9754  1.4200 -0.1940
 1254TIP3   OH227956   1.761   0.247  15.230 -0.0840 -0.6134 -0.3588
 1254TIP3    H127957   1.725   0.259  15.142 -0.2150  1.8590 -0.0567
 1254TIP3    H227958   1.827   0.316  15.238 -0.4120 -0.4561  1.6216
 1255TIP3   OH227959   1.853   5.188  14.485 -0.0029  0.2323  0.4344
 1255TIP3    H127960   1.770   5.233  14.473 -0.3700 -0.2603  1.0858
 1255TIP3    H227961   1.845   5.144  14.569  1.4032  1.2451  1.1437
 1256TIP3   OH227962   2.724   4.566  14.639  0.1801  0.1183  0.0158
 1256TIP3    H127963   2.742   4.569  14.545  0.1546  0.0435  0.0091
 1256TIP3    H227964   2.629   4.570  14.645 -0.0038 -2.6020 -0.0680
 1257TIP3   OH227965   4.448   5.018  15.231 -0.3270  0.0471 -0.1461
 1257TIP3    H127966   4.528   5.069  15.219 -0.5035  0.3735  0.0406
 1257TIP3    H227967   4.432   4.977  15.146  0.5997 -0.8467  0.0952
 1258TIP3   OH227968   2.341   5.164  16.207 -0.1618 -0.2422  0.8649
 1258TIP3    H127969   2.347   5.260  16.205  0.5886 -0.2895  0.4256
 1258TIP3    H227970   2.265   5.144  16.153 -0.7596  0.1340  1.5534
 1259TIP3   OH227971   4.531   1.029  15.766  0.0210 -0.3523 -0.3764
 1259TIP3    H127972   4.517   1.042  15.860  0.0029  2.3269 -0.6728
 1259TIP3    H227973   4.444   1.011  15.730 -0.5849  2.0892 -0.2903
 1260TIP3   OH227974   3.611   6.180  17.704  0.5687  0.2184  0.4394
 1260TIP3    H127975   3.647   6.242  17.640  0.5492  0.5447  0.7345
 1260TIP3    H227976   3.535   6.226  17.741 -0.1012 -0.4248 -0.1066
 1261TIP3   OH227977   0.774   0.165  16.758 -0.0549 -0.3923  0.2397
 1261TIP3    H127978   0.850   0.125  16.801  0.4351  0.8154  0.5346
 1261TIP3    H227979   0.699   0.117  16.792  0.5568 -1.4845  0.0873
 1262TIP3   OH227980   5.067   1.991  14.594  0.2860  0.5969 -0.4211
 1262TIP3    H127981   5.062   1.940  14.513 -0.8278 -1.2244  0.7151
 1262TIP3    H227982   4.981   2.031  14.603 -0.4635 -1.1597  0.9851
 1263TIP3   OH227983   6.266   4.169  15.295 -0.4405  0.3108 -0.5281
 1263TIP3    H127984   6.314   4.150  15.214 -0.7196 -2.4557 -0.1442
 1263TIP3    H227985   6.310   4.246  15.332  0.3657  0.9824 -2.7371
 1264TIP3   OH227986   3.695   3.387  16.384 -0.0868 -0.3660 -0.0091
 1264TIP3    H127987   3.740   3.463  16.421 -1.2175 -0.0843  0.8628
 1264TIP3    H227988   3.686   3.326  16.458  1.5995 -1.7882 -0.8891
 1265TIP3   OH227989   0.928   3.533  17.101  0.3544 -0.0849  0.1750
 1265TIP3    H127990   0.857   3.497  17.047  1.1006  0.5674 -1.2745
 1265TIP3    H227991   0.894   3.618  17.130  0.9342  0.7216 -1.4246
 1266TIP3   OH227992   4.256   0.455  15.760 -0.0506  0.3638 -0.3224
 1266TIP3    H127993   4.237   0.387  15.825 -0.2423  0.2733 -0.4737
 1266TIP3    H227994   4.179   0.511  15.760  0.7457  1.5204  0.9666
 1267TIP3   OH227995   1.287   2.260  17.201  0.7967 -0.3995  0.0537
 1267TIP3    H127996   1.222   2.308  17.252 -0.7554 -3.1770  0.8936
 1267TIP3    H227997   1.325   2.199  17.264  1.0773 -1.8044 -1.4268
 1268TIP3   OH227998   3.653   6.041  15.712  0.0672  0.1373  0.1006
 1268TIP3    H127999   3.559   6.057  15.698 -0.3216 -1.6927  0.3490
 1268TIP3    H228000   3.689   6.031  15.624 -0.2059 -0.3256  0.0403
 1269TIP3   OH228001   6.701   0.838  17.044 -0.1570 -0.2539  0.1741
 1269TIP3    H128002   6.637   0.832  17.115  0.0939 -1.8667  0.2814
 1269TIP3    H228003   6.767   0.772  17.064 -0.7912 -1.7574 -2.2306
 1270TIP3   OH228004   4.190   2.025  14.994  0.2402  0.0477  0.6548
 1270TIP3    H128005   4.269   2.079  14.992  0.4552 -0.2893 -0.5256
 1270TIP3    H228006   4.223   1.935  15.002 -0.0603 -0.0348  1.0105
 1271TIP3   OH228007   1.131   5.519  17.266 -0.6158  0.1067 -0.6872
 1271TIP3    H128008   1.215   5.507  17.222  0.9307  1.6274  1.6205
 1271TIP3    H228009   1.152   5.564  17.347 -3.5240 -0.6896  0.6769
 1272TIP3   OH228010   5.714   3.684  14.889 -0.1905 -0.5902 -0.3169
 1272TIP3    H128011   5.695   3.600  14.847  0.5035 -0.5849 -0.6503
 1272TIP3    H228012   5.719   3.664  14.982  0.7076 -1.0621 -0.4581
 1273TIP3   OH228013   0.925   5.674  16.417 -0.0527 -0.4293 -0.5514
 1273TIP3    H128014   0.854   5.643  16.360  0.3916 -0.5267 -1.0526
 1273TIP3    H228015   0.880   5.717  16.489 -0.5998  0.9060 -1.6552
 1274TIP3   OH228016   3.306   6.621  17.834  0.0176 -0.0208 -0.5763
 1274TIP3    H128017   3.278   6.686  17.769  0.7186  0.4856 -0.3842
 1274TIP3    H228018   3.394   6.595  17.805 -0.0187 -0.4465 -0.3165
 1275TIP3   OH228019   2.608   5.594  15.501 -0.6674 -0.5506  0.2494
 1275TIP3    H128020   2.683   5.626  15.451  1.0513 -1.9287  1.8041
 1275TIP3    H228021   2.610   5.499  15.489 -0.3020 -0.9118  2.7230
 1276TIP3   OH228022   5.858   0.379  14.423 -0.0286  0.1867 -0.0574
 1276TIP3    H128023   5.770   0.342  14.431 -0.0310 -0.2931 -1.7839
 1276TIP3    H228024   5.849   0.468  14.456 -0.4437 -0.7253  2.5286
 1277TIP3   OH228025   4.662   2.655  17.776  0.6541  0.1730 -0.1387
 1277TIP3    H128026   4.572   2.686  17.778  1.0151  1.2608 -0.4363
 1277TIP3    H228027   4.659   2.571  17.822 -0.4526  0.3344  0.1082
 1278TIP3   OH228028   6.220   3.760  15.875  0.6216 -0.1667  0.0130
 1278TIP3    H128029   6.253   3.822  15.811 -1.9569  0.2604 -1.0135
 1278TIP3    H228030   6.243   3.674  15.840  2.4039  0.1169  0.4083
 1279TIP3   OH228031   1.206   6.756  15.875 -0.3306  0.2226 -0.1424
 1279TIP3    H128032   1.291   6.715  15.883 -0.0526  1.0548  1.7881
 1279TIP3    H228033   1.206   6.795  15.787  0.1970 -1.9967 -1.1874
 1280TIP3   OH228034   0.225   2.098  16.235 -0.4842  0.2680 -0.1282
 1280TIP3    H128035   0.245   2.139  16.151 -1.8690  0.5082 -0.3572
 1280TIP3    H228036   0.209   2.171  16.295  1.8660  0.1406  0.7439
 1281TIP3   OH228037   6.652   3.621  15.311  0.1441  0.0026 -0.0527
 1281TIP3    H128038   6.733   3.583  15.343 -1.0333 -1.5127  1.3090
 1281TIP3    H228039   6.652   3.603  15.217  1.0028 -0.7025  0.0777
 1282TIP3   OH228040   3.617   0.972  15.979 -0.3683 -0.1734  0.4238
 1282TIP3    H128041   3.657   1.055  15.954  0.9531 -0.7528  0.5448
 1282TIP3    H228042   3.662   0.906  15.926 -2.1888 -0.7340 -0.5299
 1283TIP3   OH228043   6.323   4.237  17.144 -0.3048  0.0774 -0.3975
 1283TIP3    H128044   6.286   4.151  17.128 -2.7272  1.0532 -0.4647
 1283TIP3    H228045   6.301   4.288  17.066  0.2238  1.0441  0.0620
 1284TIP3   OH228046   3.336   4.943  17.112  0.3115 -0.3719 -0.2398
 1284TIP3    H128047   3.262   4.971  17.166  0.0188  2.1640 -1.8409
 1284TIP3    H228048   3.412   4.954  17.169 -0.2332 -0.2692  0.4905
 1285TIP3   OH228049   4.807   4.583  15.070 -0.0571 -0.3161  0.1940
 1285TIP3    H128050   4.891   4.550  15.103  0.7294  1.1598 -0.2587
 1285TIP3    H228051   4.825   4.674  15.046 -0.8526 -0.9713 -3.3254
 1286TIP3   OH228052   2.876   5.893  16.683 -0.3858  0.4521 -0.1984
 1286TIP3    H128053   2.907   5.983  16.695 -1.9922  1.0223 -0.0455
 1286TIP3    H228054   2.949   5.839  16.711 -0.1965  1.7258  2.0098
 1287TIP3   OH228055   3.596   1.711  15.360  0.5440  0.6808 -0.1919
 1287TIP3    H128056   3.560   1.669  15.282 -0.0319  2.4240 -0.8958
 1287TIP3    H228057   3.525   1.708  15.424  0.6429  0.2578 -0.0945
 1288TIP3   OH228058   5.933   6.023  16.169  0.3757  0.3623 -0.0220
 1288TIP3    H128059   5.865   6.083  16.139  1.0626  0.3616 -1.7198
 1288TIP3    H228060   5.983   6.074  16.233 -1.1672  0.3550  1.2694
 1289TIP3   OH228061   6.260   1.311  14.885 -1.0565  0.3421 -0.1523
 1289TIP3    H128062   6.241   1.393  14.839  0.0102  0.5849 -0.1960
 1289TIP3    H228063   6.332   1.272  14.835  0.8346  1.1030  1.7965
 1290TIP3   OH228064   0.118   1.799  15.347 -0.1166 -0.0316  0.2098
 1290TIP3    H128065   0.120   1.772  15.439 -2.1796  1.6461  0.8084
 1290TIP3    H228066   0.101   1.893  15.350 -0.4625  0.0121 -1.9186
 1291TIP3   OH228067   5.052   3.805  16.585  0.4205  0.0219  0.1459
 1291TIP3    H128068   5.036   3.899  16.579 -1.1516 -0.2117  0.2291
 1291TIP3    H228069   5.141   3.794  16.552  0.4659  1.4783 -0.3064
 1292TIP3   OH228070   1.135   4.302  15.738 -0.5560 -0.6617  0.0746
 1292TIP3    H128071   1.123   4.377  15.679  0.0252 -1.8141 -1.5785
 1292TIP3    H228072   1.188   4.337  15.810 -1.4757  0.8451  0.0703
 1293TIP3   OH228073   6.212   2.698  17.099 -0.4033 -0.0412 -0.0931
 1293TIP3    H128074   6.233   2.620  17.151 -0.2603  0.8079  1.1634
 1293TIP3    H228075   6.260   2.769  17.143 -1.2277  0.9041 -0.6965
 1294TIP3   OH228076   0.631   0.333  15.948  0.2735 -0.5716  0.7847
 1294TIP3    H128077   0.681   0.285  16.014 -0.3405 -0.5207  1.2981
 1294TIP3    H228078   0.637   0.278  15.869  0.5913 -0.8878  1.0248
 1295TIP3   OH228079   3.137   1.013  15.284  0.2485  0.5650  0.2846
 1295TIP3    H128080   3.137   1.080  15.215 -0.0951 -0.3042 -0.5834
 1295TIP3    H228081   3.148   0.930  15.237 -0.2745 -0.0765  1.2620
 1296TIP3   OH228082   0.512   2.779  18.008 -0.1405  0.3552 -0.5329
 1296TIP3    H128083   0.541   2.689  17.995 -0.4301 -0.2079  2.1960
 1296TIP3    H228084   0.432   2.785  17.957  0.1922 -0.7288 -1.2353
 1297TIP3   OH228085   2.637   1.309  16.530  0.3484 -0.3998  0.1830
 1297TIP3    H128086   2.652   1.279  16.620 -0.7608  0.3907  0.6570
 1297TIP3    H228087   2.647   1.404  16.535 -0.2472 -0.3028 -0.4102
 1298TIP3   OH228088   1.809   2.265  17.126  0.4329 -0.2970  0.7113
 1298TIP3    H128089   1.839   2.188  17.176  1.1649  0.1640  0.9959
 1298TIP3    H228090   1.733   2.233  17.077  1.9254 -1.7873 -0.7880
 1299TIP3   OH228091   0.048   0.291  16.361  0.1760 -0.3029 -0.1773
 1299TIP3    H128092  -0.004   0.371  16.370  1.7328  0.7099  0.2243
 1299TIP3    H228093  -0.001   0.225  16.410 -0.3688  0.7788  0.7985
 1300TIP3   OH228094   4.835   5.058  16.768 -0.6524 -0.6787 -0.0263
 1300TIP3    H128095   4.864   5.106  16.846  0.8785 -0.0032 -0.9701
 1300TIP3    H228096   4.871   5.108  16.695 -0.2498 -2.4829 -1.1049
 1301TIP3   OH228097   1.494   0.935  15.381 -0.1191 -0.4372  0.0650
 1301TIP3    H128098   1.564   0.869  15.380 -0.3073 -0.6333 -0.1065
 1301TIP3    H228099   1.531   1.010  15.334  0.2227 -0.2880  0.5569
 1302TIP3   OH228100   0.426   4.173  17.244  0.5012  0.1605 -0.3191
 1302TIP3    H128101   0.449   4.086  17.277 -0.4908  0.2154  0.5842
 1302TIP3    H228102   0.446   4.233  17.316  0.5151  0.5933 -0.6779
 1303TIP3   OH228103   1.406   0.720  15.632  0.2319  0.1391  0.3090
 1303TIP3    H128104   1.349   0.670  15.690  1.5595 -1.6041  0.2037
 1303TIP3    H228105   1.347   0.761  15.570 -0.9549 -1.2320  0.4716
 1304TIP3   OH228106   5.546   5.403  17.632 -0.1627  0.0787  0.0258
 1304TIP3    H128107   5.517   5.374  17.546  1.1513 -0.4682 -0.2466
 1304TIP3    H228108   5.608   5.336  17.660  0.0495  0.6856  1.0426
 1305TIP3   OH228109   2.835   2.814  16.700  0.3957 -0.0667  0.0404
 1305TIP3    H128110   2.744   2.821  16.672  0.5303  0.0563 -0.3734
 1305TIP3    H228111   2.864   2.904  16.710  0.2213 -0.1131  1.0058
 1306TIP3   OH228112   0.318   4.478  16.896 -0.0255 -0.1844 -0.1252
 1306TIP3    H128113   0.296   4.452  16.806 -0.1852  0.4837 -0.2816
 1306TIP3    H228114   0.305   4.398  16.947 -2.2490 -0.0093 -0.3027
 1307TIP3   OH228115   3.460   5.473  16.432 -0.4095 -0.0032 -0.0940
 1307TIP3    H128116   3.520   5.514  16.369  0.2043 -1.9097 -0.8066
 1307TIP3    H228117   3.373   5.505  16.407 -0.0186  0.3918 -0.9901
 1308TIP3   OH228118   4.485   5.031  17.402  0.0774  0.1789 -0.1959
 1308TIP3    H128119   4.487   5.114  17.355  2.6912 -0.4940 -1.4680
 1308TIP3    H228120   4.510   4.965  17.337  1.7961 -1.0800  1.5980
 1309TIP3   OH228121   1.067   4.273  15.340  0.2607 -0.4599 -0.4279
 1309TIP3    H128122   1.044   4.230  15.258 -0.8224  1.0755 -0.9750
 1309TIP3    H228123   1.106   4.356  15.314  0.3325 -0.1591  0.5933
 1310TIP3   OH228124   4.571   0.483  16.556 -0.4415  0.0022  0.0831
 1310TIP3    H128125   4.485   0.516  16.531 -0.1304  1.3077  0.6800
 1310TIP3    H228126   4.613   0.556  16.602  1.0617 -0.5343 -0.3694
 1311TIP3   OH228127   6.615   6.510  16.037  0.4564  0.1707  0.1792
 1311TIP3    H128128   6.588   6.478  15.952  1.0610  0.6215 -0.1953
 1311TIP3    H228129   6.583   6.444  16.099  1.0492 -0.7926 -0.5018
 1312TIP3   OH228130   3.263   1.035  17.125 -0.8943  0.0285 -0.4563
 1312TIP3    H128131   3.262   1.000  17.036  0.0124 -1.2359  0.0029
 1312TIP3    H228132   3.352   1.022  17.155 -1.5563 -0.9784  1.1692
 1313TIP3   OH228133   0.325   1.252  16.099 -0.3723 -0.7638  0.6333
 1313TIP3    H128134   0.269   1.267  16.023  0.9287 -1.9648 -0.6081
 1313TIP3    H228135   0.319   1.333  16.149  1.1353  1.3285 -2.3065
 1314TIP3   OH228136   4.282   4.274  14.702  0.6154 -0.4068  0.7572
 1314TIP3    H128137   4.225   4.257  14.627  0.7300 -0.7744  0.7493
 1314TIP3    H228138   4.310   4.365  14.691  0.2499 -0.3089  0.6127
 1315TIP3   OH228139   5.749   4.193  15.720 -0.5512  0.7173  0.6363
 1315TIP3    H128140   5.790   4.119  15.763 -1.3243 -1.1957 -1.6778
 1315TIP3    H228141   5.664   4.201  15.762 -1.4434 -1.3527 -0.5903
 1316TIP3   OH228142   5.720   2.414  16.785 -0.1791  0.2806 -0.3676
 1316TIP3    H128143   5.793   2.353  16.780  1.7962  2.5301 -1.0885
 1316TIP3    H228144   5.663   2.390  16.711  0.3183 -0.9303 -0.3669
 1317TIP3   OH228145   1.330   2.589  15.596  0.5788  0.9498 -0.0979
 1317TIP3    H128146   1.357   2.517  15.538  1.4526  1.2602 -0.0848
 1317TIP3    H228147   1.259   2.551  15.649 -1.8211  1.2847 -2.8232
 1318TIP3   OH228148   1.781   5.594  15.819 -0.0117 -0.0227  0.7427
 1318TIP3    H128149   1.853   5.532  15.829  0.7269  0.7869  0.5724
 1318TIP3    H228150   1.810   5.672  15.866  0.1830  1.0882 -1.1001
 1319TIP3   OH228151   3.680   0.978  15.661  0.3407  0.0129 -0.0773
 1319TIP3    H128152   3.718   1.063  15.640  0.8959 -0.3000 -0.3496
 1319TIP3    H228153   3.589   0.998  15.683  0.3122  0.6130 -0.6917
 1320TIP3   OH228154   2.754   4.431  17.267 -0.6490 -0.0236  0.1024
 1320TIP3    H128155   2.819   4.362  17.280 -2.2170 -1.6134 -0.1616
 1320TIP3    H228156   2.789   4.483  17.194  1.7229  0.9904  1.8399
 1321TIP3   OH228157   1.838   1.937  16.345 -0.5196  0.1181 -0.1067
 1321TIP3    H128158   1.826   1.907  16.435  2.3271 -3.4432 -0.6521
 1321TIP3    H228159   1.895   2.013  16.353 -2.2500  1.3460  1.1385
 1322TIP3   OH228160   6.552   1.288  15.694 -0.0857 -0.1730 -0.4209
 1322TIP3    H128161   6.479   1.252  15.644 -0.2700 -0.7909  0.2715
 1322TIP3    H228162   6.525   1.281  15.785 -0.6159  2.8364 -0.2521
 1323TIP3   OH228163   0.463   6.136  16.331  0.6047  0.2684  0.3621
 1323TIP3    H128164   0.554   6.162  16.313  0.2856  0.7609 -0.5772
 1323TIP3    H228165   0.410   6.209  16.298 -0.1171  0.2446  1.4232
 1324TIP3   OH228166   2.244   3.616  15.760 -0.3229  0.2839  0.4435
 1324TIP3    H128167   2.279   3.629  15.848 -0.2786 -1.6645  0.7759
 1324TIP3    H228168   2.320   3.592  15.707 -0.5257  0.2312  0.1722
 1325TIP3   OH228169   2.692   1.240  16.788  0.0144 -0.0766 -0.2410
 1325TIP3    H128170   2.628   1.290  16.839  0.8658  1.6710 -0.8009
 1325TIP3    H228171   2.771   1.240  16.842  0.5585  0.7551 -1.0089
 1326TIP3   OH228172   5.303   6.600  15.096 -0.1773  0.3631  0.4050
 1326TIP3    H128173   5.282   6.682  15.141  2.6864  0.6840  1.3558
 1326TIP3    H228174   5.385   6.619  15.050 -1.7112 -0.7106 -3.0299
 1327TIP3   OH228175   4.032   0.974  15.884  0.4064  0.2047 -0.4159
 1327TIP3    H128176   4.040   1.049  15.942  3.5226  0.4804 -1.0276
 1327TIP3    H228177   4.035   0.898  15.943  2.0009  0.5158 -0.0415
 1328TIP3   OH228178   6.438   5.545  16.238 -0.1009 -0.3693  0.2463
 1328TIP3    H128179   6.481   5.580  16.160 -1.1129 -2.2182 -1.2390
 1328TIP3    H228180   6.510   5.528  16.300  0.4768  3.6544  0.9170
 1329TIP3   OH228181   1.612   2.774  16.814  0.2802  0.2209  0.0085
 1329TIP3    H128182   1.583   2.791  16.725  0.7778 -0.0349 -0.2041
 1329TIP3    H228183   1.553   2.826  16.869 -1.4296 -1.2881 -0.3235
 1330TIP3   OH228184   4.397   2.674  16.755 -0.6201 -0.0343 -0.4260
 1330TIP3    H128185   4.478   2.635  16.786  0.0692  0.8683 -1.0470
 1330TIP3    H228186   4.420   2.764  16.731 -1.6097  0.0026 -1.3645
 1331TIP3   OH228187   0.949   2.986  14.913  0.1095 -0.1326 -0.1939
 1331TIP3    H128188   0.952   2.945  14.999  1.6623  0.6401  0.1576
 1331TIP3    H228189   0.907   3.071  14.929 -1.4410 -0.8032 -0.5863
 1332TIP3   OH228190   0.307   2.299  16.835  0.2389 -0.0618  0.0754
 1332TIP3    H128191   0.236   2.352  16.800  0.5314  0.9067  0.8871
 1332TIP3    H228192   0.367   2.286  16.762 -1.1231 -1.5512 -0.8327
 1333TIP3   OH228193   3.900   6.618  15.703  0.3468  0.0481  0.1538
 1333TIP3    H128194   3.965   6.617  15.633 -0.7354 -2.8234 -0.9870
 1333TIP3    H228195   3.914   6.536  15.750 -1.5828 -0.0597  0.6476
 1334TIP3   OH228196   0.953   1.960  17.113 -0.0441  0.5849  0.3614
 1334TIP3    H128197   0.943   1.934  17.021  0.4874  0.6926  0.2681
 1334TIP3    H228198   0.949   2.056  17.111  3.1270  0.8369 -0.0131
 1335TIP3   OH228199   4.329   5.197  15.652 -0.8180  0.3131  0.0184
 1335TIP3    H128200   4.300   5.220  15.564 -1.8689  2.8485  0.9384
 1335TIP3    H228201   4.367   5.278  15.686  0.7504 -0.9624  1.4768
 1336TIP3   OH228202   3.658   6.517  15.928 -0.0537 -0.0566 -0.2082
 1336TIP3    H128203   3.599   6.486  15.997  0.0549 -1.1641 -0.6010
 1336TIP3    H228204   3.705   6.439  15.900  1.5163  0.7952 -0.0077
 1337TIP3   OH228205   5.434   2.429  15.201 -0.5381 -0.4255  0.0112
 1337TIP3    H128206   5.440   2.433  15.106 -2.8948 -0.6604 -0.2009
 1337TIP3    H228207   5.504   2.368  15.227 -0.5074 -1.1446 -1.6548
 1338TIP3   OH228208   2.949   6.583  17.894 -0.0448 -0.2364  0.2906
 1338TIP3    H128209   2.882   6.650  17.904  1.0550  0.6121  2.9712
 1338TIP3    H228210   3.024   6.629  17.855  0.0319 -0.4129  0.2240
 1339TIP3   OH228211   0.314   3.075  16.460 -0.2495 -0.6829  0.0095
 1339TIP3    H128212   0.409   3.069  16.465 -0.2017  0.4140  0.6338
 1339TIP3    H228213   0.287   3.108  16.546 -1.3081 -2.1748  0.2984
 1340TIP3   OH228214   0.707   0.962  17.089  0.1544  0.2947 -0.1652
 1340TIP3    H128215   0.652   0.886  17.105  0.1551  0.6244  1.6643
 1340TIP3    H228216   0.663   1.010  17.018 -1.4580  0.1034  0.6757
 1341TIP3   OH228217   1.291   2.438  14.877  0.2122 -0.5105 -0.3011
 1341TIP3    H128218   1.325   2.348  14.883 -0.2791 -0.6350  0.8172
 1341TIP3    H228219   1.248   2.441  14.791 -0.2780 -1.5395 -0.1150
 1342TIP3   OH228220   3.053   3.179  17.481  0.1220 -0.3448  0.1192
 1342TIP3    H128221   3.140   3.207  17.451  0.0030  0.0112  0.1020
 1342TIP3    H228222   2.999   3.182  17.403 -0.3015  1.0260  0.4299
 1343TIP3   OH228223   2.931   1.454  16.946  0.0975 -0.7510  0.0785
 1343TIP3    H128224   3.017   1.476  16.982  0.6487 -0.8022 -1.1536
 1343TIP3    H228225   2.924   1.359  16.956  0.0088 -0.6910  0.5673
 1344TIP3   OH228226   3.723   1.997  16.651  0.4452  0.2136  0.3748
 1344TIP3    H128227   3.712   1.902  16.645 -0.6997  0.3585 -0.0993
 1344TIP3    H228228   3.671   2.031  16.578  1.4382  1.1673  0.1067
 1345TIP3   OH228229   1.365   5.998  15.398  0.5807  0.3106  0.0411
 1345TIP3    H128230   1.341   6.051  15.474 -0.7141 -0.9746  0.5948
 1345TIP3    H228231   1.384   6.061  15.329 -1.8031  1.5222  0.3886
 1346TIP3   OH228232   1.954   0.942  18.013 -0.0748 -0.4589 -0.1451
 1346TIP3    H128233   1.985   0.951  18.103  0.3737 -1.2820 -0.2064
 1346TIP3    H228234   1.886   1.009  18.004 -0.7981 -0.9976  1.1003
 1347TIP3   OH228235   1.783   4.979  17.507 -0.0333 -0.5289  0.4147
 1347TIP3    H128236   1.722   4.943  17.571  0.9446 -1.8707  0.6441
 1347TIP3    H228237   1.833   5.044  17.556  0.0826 -0.8887  0.7855
 1348TIP3   OH228238   4.728   6.268  16.058 -0.4131  0.1786 -0.1241
 1348TIP3    H128239   4.649   6.279  16.005  0.0978  0.5189 -0.8336
 1348TIP3    H228240   4.706   6.198  16.119 -0.9798 -0.3157 -0.8752
 1349TIP3   OH228241   3.501   3.908  16.797 -0.2327  0.0851 -0.2910
 1349TIP3    H128242   3.571   3.843  16.803  0.6402  1.0071 -0.2025
 1349TIP3    H228243   3.501   3.952  16.882 -0.0181  0.9804 -0.7380
 1350TIP3   OH228244   1.646   3.163  16.829  0.0832  0.2933 -0.2486
 1350TIP3    H128245   1.689   3.111  16.761 -0.1638  0.7351 -0.7521
 1350TIP3    H228246   1.553   3.142  16.821  0.1603 -0.4604  0.6664
 1351TIP3   OH228247   4.622   2.461  16.063 -0.3168  0.9993 -0.4041
 1351TIP3    H128248   4.603   2.554  16.078 -0.0882  0.9107  0.4920
 1351TIP3    H228249   4.608   2.419  16.148 -0.5511  0.1864 -0.8357
 1352TIP3   OH228250   4.723   0.469  15.370 -0.1783  0.6955  0.0718
 1352TIP3    H128251   4.730   0.521  15.449 -0.3275  0.9528 -0.0823
 1352TIP3    H228252   4.732   0.378  15.399 -0.1284  0.7965  0.3670
 1353TIP3   OH228253   3.112   2.377  17.995 -0.1280 -0.6987  0.3146
 1353TIP3    H128254   3.042   2.425  18.040 -1.5996 -1.0672 -1.4707
 1353TIP3    H228255   3.193   2.407  18.037 -1.3152  0.0156  2.2008
 1354TIP3   OH228256   2.500   3.930  17.762  0.2585  0.2371 -0.1597
 1354TIP3    H128257   2.460   3.996  17.818 -1.3521  0.6793 -1.7361
 1354TIP3    H228258   2.569   3.977  17.715  0.3558  0.3377  0.0841
 1355TIP3   OH228259   0.328   4.192  15.615 -0.4747  0.2198  0.0932
 1355TIP3    H128260   0.332   4.269  15.672  1.8707  1.1295 -1.1842
 1355TIP3    H228261   0.370   4.123  15.667 -2.4920 -0.2684  1.2004
 1356TIP3   OH228262   3.827   1.860  14.857 -0.4984  0.2171  0.3863
 1356TIP3    H128263   3.887   1.929  14.827  0.4533 -0.9644 -0.4917
 1356TIP3    H228264   3.771   1.842  14.781 -1.5954  0.8564  1.0019
 1357TIP3   OH228265   3.531   0.375  16.715  0.1355  0.3697 -0.4249
 1357TIP3    H128266   3.540   0.461  16.674  0.4820 -0.1313 -1.4607
 1357TIP3    H228267   3.539   0.313  16.642 -0.4008 -0.5327  0.2506
 1358TIP3   OH228268   0.845   5.674  17.607  0.0504 -0.5780 -0.0171
 1358TIP3    H128269   0.888   5.589  17.590 -0.2020 -0.6667 -0.2244
 1358TIP3    H228270   0.876   5.730  17.536 -0.0980 -0.6130 -0.1093
 1359TIP3   OH228271   4.726   3.737  15.408  0.0701  0.4351 -0.0659
 1359TIP3    H128272   4.741   3.697  15.494  2.6807  1.1408 -0.1060
 1359TIP3    H228273   4.793   3.805  15.401 -0.5973  0.9456 -2.3301
 1360TIP3   OH228274   3.321   0.487  16.044 -0.2252 -0.4332 -0.8774
 1360TIP3    H128275   3.242   0.446  16.079 -0.4415  1.6251  1.3015
 1360TIP3    H228276   3.319   0.467  15.950 -3.0583 -0.9045 -0.8000
 1361TIP3   OH228277   1.385   2.094  17.384  0.1168 -0.1628 -0.1544
 1361TIP3    H128278   1.404   2.001  17.372  0.4101  0.0507 -1.5108
 1361TIP3    H228279   1.436   2.120  17.461  0.7157 -0.9142 -0.2975
 1362TIP3   OH228280   2.413   0.210  18.085 -0.3325  0.4163 -0.1534
 1362TIP3    H128281   2.374   0.155  18.018 -0.1554  0.4053 -0.2467
 1362TIP3    H228282   2.504   0.180  18.092 -0.6712 -0.4230  0.9594
 1363TIP3   OH228283   4.565   0.999  15.119  0.8048 -0.5435  0.0134
 1363TIP3    H128284   4.654   0.971  15.142  0.7338  0.5374  1.8911
 1363TIP3    H228285   4.508   0.940  15.168  0.4674 -1.1447 -1.0785
 1364TIP3   OH228286   6.121   5.960  17.593  0.3241 -0.0037 -0.2998
 1364TIP3    H128287   6.075   6.018  17.653  2.1453  1.2165 -0.0183
 1364TIP3    H228288   6.166   6.018  17.531  1.0272 -1.1416 -0.9102
 1365TIP3   OH228289   1.281   0.433  16.648  0.4906 -0.0414 -0.1087
 1365TIP3    H128290   1.330   0.373  16.593  0.7077 -0.2067  0.2634
 1365TIP3    H228291   1.189   0.414  16.628  0.5115 -1.4525  0.9876
 1366TIP3   OH228292   3.573   1.821  15.782 -0.6187 -0.3379 -0.5678
 1366TIP3    H128293   3.639   1.891  15.783 -0.9107  0.0227 -2.6948
 1366TIP3    H228294   3.490   1.867  15.798 -0.8491 -0.1058 -2.2785
 1367TIP3   OH228295   0.001   1.592  16.625 -0.0712  0.3311 -0.2068
 1367TIP3    H128296  -0.017   1.510  16.579 -0.9801  0.4577 -0.1049
 1367TIP3    H228297  -0.083   1.616  16.664 -0.3390  2.2617 -1.7998
 1368TIP3   OH228298   0.844   5.041  17.255 -0.1964  0.0016  0.4659
 1368TIP3    H128299   0.836   5.135  17.268  1.1796  0.0828  0.8345
 1368TIP3    H228300   0.870   5.032  17.163  3.0051  0.2514  1.2110
 1369TIP3   OH228301   1.536   1.215  17.887 -0.0651  0.0881  0.5840
 1369TIP3    H128302   1.520   1.309  17.883  1.1032  0.2778 -0.2738
 1369TIP3    H228303   1.464   1.175  17.838 -0.0006  0.6108  0.0633
 1370TIP3   OH228304   1.497   3.893  16.138  0.4778 -0.7498 -0.5173
 1370TIP3    H128305   1.477   3.896  16.045  0.8577  1.7806 -0.6076
 1370TIP3    H228306   1.592   3.897  16.142  0.4449 -0.2201 -0.0492
 1371TIP3   OH228307   3.736   0.616  17.721  0.2957  0.4828  0.0269
 1371TIP3    H128308   3.733   0.697  17.772  1.6962 -0.0525  1.0171
 1371TIP3    H228309   3.673   0.559  17.764 -1.4312  1.3361 -1.2703
 1372TIP3   OH228310   6.504   0.295  17.323  0.7011 -0.1034  0.7831
 1372TIP3    H128311   6.493   0.202  17.302  1.5297 -0.4456  1.7764
 1372TIP3    H228312   6.593   0.302  17.357  0.6393  1.0571  0.7442
 1373TIP3   OH228313   0.987   5.442  17.532 -0.3806  0.3676  0.2859
 1373TIP3    H128314   0.994   5.387  17.610 -1.1581 -2.6412 -1.6234
 1373TIP3    H228315   1.077   5.467  17.512  0.3145 -2.0609  0.0425
 1374TIP3   OH228316   2.765   1.231  18.094 -0.4996 -0.3979  0.7820
 1374TIP3    H128317   2.774   1.140  18.067 -0.3180 -0.1773  0.0453
 1374TIP3    H228318   2.748   1.278  18.012 -0.5272  0.2359  1.1412
 1375TIP3   OH228319   6.312   6.461  16.787  0.0374  0.7407 -0.3949
 1375TIP3    H128320   6.244   6.490  16.726 -2.0437 -0.4398  1.2373
 1375TIP3    H228321   6.297   6.367  16.797  2.3667  0.2888 -0.4513
 1376TIP3   OH228322   3.727   6.230  15.909  0.4222 -0.2305  0.2148
 1376TIP3    H128323   3.639   6.217  15.945  0.3698  0.2276  0.2579
 1376TIP3    H228324   3.734   6.165  15.839  1.1089 -2.2589  2.0331
 1377TIP3   OH228325   1.938   6.612  15.712  0.2798  0.2149 -0.2518
 1377TIP3    H128326   1.853   6.608  15.669  0.2265  1.8219 -0.3662
 1377TIP3    H228327   1.952   6.705  15.728  1.9314 -0.0386 -0.0473
 1378TIP3   OH228328   2.853   5.604  16.270  0.1153  0.2962 -0.4959
 1378TIP3    H128329   2.808   5.662  16.330  0.1388  0.4101 -0.5882
 1378TIP3    H228330   2.800   5.606  16.190  0.7740  1.1438 -0.9210
 1379TIP3   OH228331   4.605   2.175  16.065 -0.8669  0.2860  0.4577
 1379TIP3    H128332   4.623   2.266  16.041 -0.1722  0.2055  0.6455
 1379TIP3    H228333   4.510   2.167  16.061 -0.9033  0.9000  0.0015
 1380TIP3   OH228334   0.094   0.337  14.275  0.1144 -0.1866  0.0229
 1380TIP3    H128335   0.077   0.420  14.319  0.3427  0.1054 -0.4246
 1380TIP3    H228336   0.022   0.328  14.213  0.0182 -0.3869  0.1657
 1381TIP3   OH228337   3.391   3.898  15.730 -0.7430  0.6133 -0.3680
 1381TIP3    H128338   3.373   3.945  15.812  0.7247 -0.3682  0.5614
 1381TIP3    H228339   3.477   3.929  15.702 -0.8606  0.3108 -1.0977
 1382TIP3   OH228340   1.116   6.702  17.218 -0.0836 -0.1261 -0.2705
 1382TIP3    H128341   1.185   6.671  17.160  0.1968  0.8016 -0.4537
 1382TIP3    H228342   1.138   6.665  17.304  0.9588  0.5836 -0.2085
 1383TIP3   OH228343   5.183   0.933  16.489 -0.2123 -0.2268  0.0432
 1383TIP3    H128344   5.201   0.840  16.473 -0.2471 -0.0878 -0.8355
 1383TIP3    H228345   5.120   0.957  16.422  1.1040  0.8713 -0.8493
 1384TIP3   OH228346   5.440   0.117  16.188  0.5054  0.2118 -0.1254
 1384TIP3    H128347   5.429   0.131  16.283  1.5480 -0.0799  0.0544
 1384TIP3    H228348   5.438   0.022  16.178  0.2424  0.2493 -0.4246
 1385TIP3   OH228349   4.733   6.441  16.897  1.1341  0.4029 -0.2543
 1385TIP3    H128350   4.674   6.516  16.905  0.8820  0.0962  0.8659
 1385TIP3    H228351   4.772   6.451  16.810  1.7238  2.2941  0.1747
 1386TIP3   OH228352   3.702   0.695  14.707 -0.1647 -0.3799  0.3564
 1386TIP3    H128353   3.775   0.638  14.682 -0.8529 -0.2977 -2.0176
 1386TIP3    H228354   3.741   0.757  14.769  1.4468 -1.2153  0.2352
 1387TIP3   OH228355   0.016   0.758  14.860  0.2564 -0.6911 -0.1552
 1387TIP3    H128356   0.024   0.698  14.786 -2.4747  0.6523 -1.6876
 1387TIP3    H228357  -0.051   0.821  14.833  0.8193  1.2560  2.5714
 1388TIP3   OH228358   4.592   5.130  14.995 -0.3164 -0.8157 -0.6632
 1388TIP3    H128359   4.624   5.124  14.905 -1.0359 -1.9046 -0.8686
 1388TIP3    H228360   4.517   5.070  14.997 -1.0484  0.1128  0.3389
 1389TIP3   OH228361   5.550   4.146  15.349 -0.3395 -0.1839  0.1897
 1389TIP3    H128362   5.623   4.205  15.368 -0.5580  0.2061 -0.1560
 1389TIP3    H228363   5.583   4.088  15.280 -0.2107 -0.2895  0.3415
 1390TIP3   OH228364   2.693   4.111  14.803  0.4249  0.1445  0.0363
 1390TIP3    H128365   2.600   4.093  14.790  0.7948 -1.4786 -0.5935
 1390TIP3    H228366   2.696   4.200  14.837 -1.4904 -0.3563  1.7167
 1391TIP3   OH228367   4.551   3.507  17.873  0.1979  0.5492  0.1349
 1391TIP3    H128368   4.548   3.592  17.829 -0.7187  0.3403 -0.2255
 1391TIP3    H228369   4.618   3.517  17.940 -0.0241  1.6118  0.2094
 1392TIP3   OH228370   4.776   0.341  17.303 -0.2278 -0.9629  0.7882
 1392TIP3    H128371   4.804   0.428  17.275  0.0364 -0.7312  1.7598
 1392TIP3    H228372   4.685   0.335  17.272  0.0036 -0.6646  0.0168
 1393TIP3   OH228373   3.726   5.738  16.500  0.3925  0.0192  0.3461
 1393TIP3    H128374   3.727   5.736  16.404 -0.4937 -2.1637  0.3413
 1393TIP3    H228375   3.758   5.653  16.527 -0.9957 -0.0600  1.9542
 1394TIP3   OH228376   4.247   6.458  17.519  0.2882 -0.4940  0.5032
 1394TIP3    H128377   4.268   6.368  17.495  0.6714 -0.4470  0.6456
 1394TIP3    H228378   4.332   6.498  17.539  0.1392 -0.0461  0.2539
 1395TIP3   OH228379   1.183   2.820  17.827 -0.2114 -0.2018 -0.3568
 1395TIP3    H128380   1.278   2.835  17.827 -0.1086 -0.7989 -1.0186
 1395TIP3    H228381   1.174   2.726  17.842 -0.7201 -0.0986  0.0342
 1396TIP3   OH228382   0.830   4.904  15.573  0.2222  0.2197  0.1411
 1396TIP3    H128383   0.781   4.831  15.611  0.5177 -0.7585 -1.2797
 1396TIP3    H228384   0.891   4.930  15.642 -0.8625  0.0828  1.1825
 1397TIP3   OH228385   1.379   5.064  15.820  0.1114  0.6177 -0.0379
 1397TIP3    H128386   1.459   5.113  15.804 -0.0268  0.9133  0.1697
 1397TIP3    H228387   1.340   5.051  15.734  0.2151  0.7607 -0.1054
 1398TIP3   OH228388   4.466   0.836  17.135  0.3294 -0.7083 -0.0216
 1398TIP3    H128389   4.453   0.928  17.159 -0.1801 -0.8116  0.1054
 1398TIP3    H228390   4.404   0.822  17.063 -1.6581 -1.7086  1.7890
 1399TIP3   OH228391   5.957   1.224  14.590  0.4220 -0.2810  0.0993
 1399TIP3    H128392   5.982   1.307  14.549  2.5180  0.3153  2.3722
 1399TIP3    H228393   5.945   1.246  14.682 -0.5626 -2.2418  0.4842
 1400TIP3   OH228394   1.755   5.458  15.599  0.0466 -0.1913 -0.0497
 1400TIP3    H128395   1.734   5.534  15.652 -0.2364  0.8258 -1.5685
 1400TIP3    H228396   1.792   5.494  15.518 -0.3119 -1.6526 -0.9016
 1401TIP3   OH228397   6.254   1.753  15.362  0.1210 -0.1676 -0.5355
 1401TIP3    H128398   6.273   1.798  15.444 -1.2679  0.5225 -0.5638
 1401TIP3    H228399   6.182   1.693  15.383  1.0935 -1.4756 -0.8033
 1402TIP3   OH228400   6.216   0.339  15.288 -0.2219 -0.3049 -0.2806
 1402TIP3    H128401   6.235   0.251  15.318  0.3547  0.2437  1.0548
 1402TIP3    H228402   6.300   0.373  15.257 -0.2004  0.1237  0.2142
 1403TIP3   OH228403   5.753   0.744  17.476 -0.1185  0.7144  0.5600
 1403TIP3    H128404   5.758   0.835  17.446  1.2260  0.2020 -0.8440
 1403TIP3    H228405   5.768   0.750  17.571 -2.1506  2.1275  0.8665
 1404TIP3   OH228406   2.073   5.861  16.129 -0.0972 -0.0641 -0.4967
 1404TIP3    H128407   2.168   5.858  16.140  0.0361 -0.6284 -1.6473
 1404TIP3    H228408   2.042   5.913  16.203  1.2817  1.8401 -1.2038
 1405TIP3   OH228409   5.122   4.359  15.465 -0.6569  0.6660 -0.0825
 1405TIP3    H128410   5.051   4.374  15.527 -2.3275 -0.4866 -1.6190
 1405TIP3    H228411   5.199   4.348  15.519 -2.2729 -1.7371  1.9427
 1406TIP3   OH228412   6.300   2.959  17.658  0.3451  0.2119  0.4194
 1406TIP3    H128413   6.342   2.881  17.697 -0.2643 -0.7996 -0.8641
 1406TIP3    H228414   6.371   3.001  17.609  0.6016  0.2694  0.8357
 1407TIP3   OH228415   0.287   1.307  16.558 -0.0962 -0.0111 -0.0393
 1407TIP3    H128416   0.353   1.257  16.606  0.0985  0.5123  0.2497
 1407TIP3    H228417   0.254   1.371  16.622 -0.5284  0.0568 -0.3223
 1408TIP3   OH228418   6.406   4.518  17.762 -0.2455  0.3009  0.3860
 1408TIP3    H128419   6.468   4.496  17.831  0.4058 -1.7463 -0.7739
 1408TIP3    H228420   6.369   4.434  17.735 -1.5300  1.1966 -0.7992
 1409TIP3   OH228421   6.607   2.022  16.109  0.0697 -0.4433  0.1315
 1409TIP3    H128422   6.637   1.994  16.196  1.8272  2.5210  0.6127
 1409TIP3    H228423   6.671   1.986  16.049  1.3224  0.9519  0.5650
 1410TIP3   OH228424   0.447   4.833  15.474  0.0462 -0.0645  0.1115
 1410TIP3    H128425   0.533   4.791  15.484 -0.8232 -2.1651 -0.6619
 1410TIP3    H228426   0.460   4.899  15.407  1.0790 -0.3418  0.0236
 1411TIP3   OH228427   4.696   0.782  18.163 -0.2197 -0.6546  0.1358
 1411TIP3    H128428   4.787   0.811  18.170 -0.2630 -0.7104  1.1046
 1411TIP3    H228429   4.646   0.847  18.211 -0.7659 -0.3690 -0.7887
 1412TIP3   OH228430   3.348   5.530  17.916  0.4331  0.0550  0.9226
 1412TIP3    H128431   3.280   5.526  17.983  0.7190  0.5354  1.2504
 1412TIP3    H228432   3.342   5.618  17.881  0.2196 -0.2266  0.2385
 1413TIP3   OH228433   0.792   1.549  15.862 -0.3251  0.1275  0.3788
 1413TIP3    H128434   0.778   1.574  15.953  0.6360  1.0097  0.3068
 1413TIP3    H228435   0.833   1.626  15.822 -0.6244 -0.2860 -0.7698
 1414TIP3   OH228436   2.390   3.654  16.038  0.1213  0.0914 -0.5832
 1414TIP3    H128437   2.332   3.671  16.113  1.3236  2.5429 -0.1013
 1414TIP3    H228438   2.450   3.587  16.069 -0.2299  0.1176  0.1858
 1415TIP3   OH228439   3.095   1.603  15.286 -0.0770  0.0267 -0.6586
 1415TIP3    H128440   3.148   1.524  15.296 -0.1377  0.1397  0.9446
 1415TIP3    H228441   3.103   1.627  15.194  0.4741 -1.4701 -1.0208
 1416TIP3   OH228442   5.911   0.933  15.038 -0.4901  0.2670  0.1213
 1416TIP3    H128443   5.993   0.983  15.037 -0.3682  0.0904  0.9297
 1416TIP3    H228444   5.844   0.997  15.015 -0.0320  0.2025 -1.5544
 1417TIP3   OH228445   5.510   2.558  16.221 -0.2113  0.8820 -0.3849
 1417TIP3    H128446   5.419   2.531  16.238 -0.2423  0.1427 -1.6255
 1417TIP3    H228447   5.508   2.654  16.225 -0.6289  0.8339  1.5385
 1418TIP3   OH228448   0.420   2.601  17.480 -0.4366 -0.5065 -0.5687
 1418TIP3    H128449   0.456   2.689  17.496 -0.7683 -0.3872 -0.4589
 1418TIP3    H228450   0.379   2.608  17.394  0.6826 -0.9318 -1.1586
 1419TIP3   OH228451   3.979   3.219  17.021  0.1678 -0.3049 -0.1202
 1419TIP3    H128452   3.976   3.130  17.056  1.9522 -0.1526  0.4973
 1419TIP3    H228453   4.055   3.260  17.063 -0.2977  1.3483 -0.7872
 1420TIP3   OH228454   6.035   3.048  15.532  0.4422 -0.2369  0.3561
 1420TIP3    H128455   6.115   3.072  15.579 -0.3609 -0.5624  1.9599
 1420TIP3    H228456   5.971   3.031  15.601 -0.8612 -0.5367 -0.8797
 1421TIP3   OH228457   1.198   5.004  15.615  0.3294  0.0345  0.0418
 1421TIP3    H128458   1.124   4.963  15.659 -1.1705  0.6563 -1.7533
 1421TIP3    H228459   1.177   5.097  15.614  0.0660  0.0259 -2.2205
 1422TIP3   OH228460   5.737   2.242  15.599  0.2569 -0.0819 -0.0056
 1422TIP3    H128461   5.816   2.267  15.648  0.5849 -1.6203  0.2807
 1422TIP3    H228462   5.688   2.324  15.591 -0.0985  0.2077  3.3920
 1423TIP3   OH228463   0.040   0.453  15.277 -0.0921  0.2676 -0.4910
 1423TIP3    H128464   0.016   0.489  15.362 -2.2831  1.4076 -1.4803
 1423TIP3    H228465   0.018   0.523  15.215 -0.5243 -1.2571 -2.1547
 1424TIP3   OH228466   1.879   1.565  16.536  0.1918 -0.1133  0.0338
 1424TIP3    H128467   1.856   1.480  16.501  1.0163  0.0517 -0.9410
 1424TIP3    H228468   1.796   1.613  16.539  0.2650  0.4538 -3.3410
 1425TIP3   OH228469   2.014   3.227  15.313  0.0818  0.6127 -0.4487
 1425TIP3    H128470   1.937   3.172  15.329  0.6478 -0.3356 -0.8622
 1425TIP3    H228471   1.994   3.274  15.232  0.3263 -0.3984 -1.1163
 1426TIP3   OH228472   1.667   4.424  16.331  0.8008  0.4858  0.1593
 1426TIP3    H128473   1.729   4.351  16.322  0.9339  0.7073 -0.8662
 1426TIP3    H228474   1.583   4.382  16.346  1.0902  0.1583  0.8992
 1427TIP3   OH228475   4.021   4.798  17.770  0.6932  0.0709 -0.0431
 1427TIP3    H128476   3.985   4.808  17.859  1.2463  0.1509  0.1739
 1427TIP3    H228477   4.059   4.711  17.768 -2.9551 -1.7023 -1.5235
 1428TIP3   OH228478   1.082   4.030  15.798 -0.0161 -0.0925  0.0006
 1428TIP3    H128479   1.084   4.116  15.756 -0.0699  0.3081  0.8016
 1428TIP3    H228480   1.095   4.048  15.891 -0.1798 -0.9416  0.1999
 1429TIP3   OH228481   1.325   2.077  16.360  0.2708  0.4299  0.1979
 1429TIP3    H128482   1.410   2.044  16.333  0.3896  1.2869 -0.4897
 1429TIP3    H228483   1.286   2.115  16.281 -0.6955  0.1684  0.5278
 1430TIP3   OH228484   2.643   2.118  14.746 -0.2242  0.3832  0.3837
 1430TIP3    H128485   2.699   2.043  14.726  1.5977  2.3693 -2.8721
 1430TIP3    H228486   2.698   2.174  14.801 -0.0767  1.0545 -0.4379
 1431TIP3   OH228487   2.622   2.434  15.190 -0.7141  0.5707  0.0155
 1431TIP3    H128488   2.681   2.476  15.127 -0.3921  0.2692  0.1127
 1431TIP3    H228489   2.603   2.349  15.152  0.8247 -0.3025  1.0990
 1432TIP3   OH228490   3.196   4.583  17.752 -0.1067 -0.2101 -0.3068
 1432TIP3    H128491   3.249   4.588  17.672 -0.5209 -1.1932 -0.6455
 1432TIP3    H228492   3.229   4.506  17.798  0.7828  0.8875  0.9664
 1433TIP3   OH228493   0.499   4.824  16.750 -0.0689  0.0378  0.1494
 1433TIP3    H128494   0.477   4.907  16.792 -0.0688 -0.1624  0.5486
 1433TIP3    H228495   0.508   4.762  16.822 -0.3902 -0.3822 -0.1622
 1434TIP3   OH228496   3.997   0.591  15.823 -0.0651  0.1423 -0.1558
 1434TIP3    H128497   3.975   0.502  15.796  0.8120 -0.3209  0.5831
 1434TIP3    H228498   3.962   0.647  15.754 -0.4495 -0.7907 -0.7320
 1435TIP3   OH228499   3.688   5.237  15.621  0.3454  0.0782 -0.1089
 1435TIP3    H128500   3.739   5.171  15.667 -0.5110 -0.5219 -0.0028
 1435TIP3    H228501   3.656   5.192  15.542 -0.2547  0.3492 -0.0289
 1436TIP3   OH228502   2.627   5.603  17.174 -0.6587  0.5524  0.8280
 1436TIP3    H128503   2.605   5.589  17.266  0.8816  2.6137  1.5778
 1436TIP3    H228504   2.649   5.516  17.141  0.0922 -0.0519  2.7781
 1437TIP3   OH228505   2.788   5.498  16.029  0.1596  0.2269  0.5344
 1437TIP3    H128506   2.725   5.429  16.050  0.0391  0.7697  2.0965
 1437TIP3    H228507   2.873   5.462  16.057  0.2669  0.2744  0.2758
 1438TIP3   OH228508   0.946   0.952  16.239 -0.0443  0.4120  0.1340
 1438TIP3    H128509   0.875   0.952  16.304 -0.5586  0.6554 -0.4111
 1438TIP3    H228510   1.024   0.927  16.288 -0.1445  1.9603  1.1481
 1439TIP3   OH228511   3.028   6.464  15.212  0.0422 -0.0128  0.0492
 1439TIP3    H128512   3.089   6.474  15.139 -0.6108 -0.7303 -0.6182
 1439TIP3    H228513   3.083   6.444  15.287  0.5474 -3.1008 -1.0138
 1440TIP3   OH228514   5.422   1.651  15.458  0.3083 -0.2795 -0.1201
 1440TIP3    H128515   5.413   1.595  15.535 -3.1313  0.4783  0.1962
 1440TIP3    H228516   5.466   1.730  15.490 -0.7479 -0.1267  0.9983
 1441TIP3   OH228517   2.899   0.540  16.813  0.0364  0.2430 -0.2256
 1441TIP3    H128518   2.976   0.578  16.771  1.1512 -0.7195  0.8813
 1441TIP3    H228519   2.860   0.484  16.745  0.3547  0.6577 -0.7588
 1442TIP3   OH228520   0.141   3.949  15.414 -0.3246  0.1245 -0.3978
 1442TIP3    H128521   0.205   3.913  15.352 -0.3941  0.9567 -0.9693
 1442TIP3    H228522   0.150   3.894  15.492  0.8443  0.0012 -0.5907
 1443TIP3   OH228523   5.240   3.445  16.621  0.4100  0.8995 -0.4971
 1443TIP3    H128524   5.283   3.471  16.703  1.3839  0.7300 -0.9386
 1443TIP3    H228525   5.160   3.401  16.650  1.4619 -0.4990  0.4488
 1444TIP3   OH228526   1.398   5.865  17.762 -0.5701  0.3648 -0.2700
 1444TIP3    H128527   1.363   5.821  17.685 -0.3251 -1.1371  0.4540
 1444TIP3    H228528   1.456   5.801  17.803 -0.4696  1.2297  1.0110
 1445TIP3   OH228529   5.869   5.335  17.028  0.2721  0.1672 -0.5289
 1445TIP3    H128530   5.965   5.339  17.023  0.3164 -0.1515 -0.0087
 1445TIP3    H228531   5.845   5.267  16.964  0.3239  0.8557 -1.2936
 1446TIP3   OH228532   4.769   5.143  15.645  0.9430 -0.9216 -0.0027
 1446TIP3    H128533   4.793   5.078  15.712  1.0503 -0.5186  0.3587
 1446TIP3    H228534   4.774   5.096  15.562 -0.2845 -1.7390  0.3599
 1447TIP3   OH228535   2.655   1.580  16.630  0.2513 -0.4468 -0.1895
 1447TIP3    H128536   2.694   1.663  16.601 -0.1841  0.6470  2.1049
 1447TIP3    H228537   2.561   1.598  16.634  0.3213 -0.3304  2.2681
 1448TIP3   OH228538   0.984   2.648  18.001  0.1971  0.5063  0.0766
 1448TIP3    H128539   1.056   2.599  17.962  1.1799  1.0288  1.1615
 1448TIP3    H228540   0.962   2.599  18.080 -0.9781  0.0907 -0.4869
 1449TIP3   OH228541   3.078   4.310  16.869  0.0076 -0.6480  0.4065
 1449TIP3    H128542   3.146   4.267  16.818  0.6653  0.8669 -0.0641
 1449TIP3    H228543   3.116   4.319  16.957  0.6867  0.7068 -0.0007
 1450TIP3   OH228544   5.981   5.690  15.199 -0.2808  0.1084 -0.0866
 1450TIP3    H128545   6.056   5.746  15.218 -0.2042 -0.1014  0.2344
 1450TIP3    H228546   5.917   5.711  15.267 -0.3629  0.0039 -0.1307
 1451TIP3   OH228547   1.623   2.958  15.361  0.2428  0.0918  0.1242
 1451TIP3    H128548   1.559   2.905  15.409 -0.1377 -0.3868 -0.8714
 1451TIP3    H228549   1.582   3.044  15.353 -1.1038 -0.6572 -1.9755
 1452TIP3   OH228550   1.003   0.928  14.373  0.4665  0.4238 -0.0653
 1452TIP3    H128551   0.928   0.972  14.413  0.1362  0.4684 -0.7172
 1452TIP3    H228552   1.073   0.938  14.437 -0.4640 -0.9018  1.2311
 1453TIP3   OH228553   3.744   0.720  18.126 -0.3644 -0.3650  0.6265
 1453TIP3    H128554   3.752   0.628  18.102 -0.0510 -0.0463 -0.5893
 1453TIP3    H228555   3.653   0.742  18.108 -0.0701 -0.0624 -0.5978
 1454TIP3   OH228556   2.317   0.526  16.472  0.6477  0.4807  0.3741
 1454TIP3    H128557   2.287   0.611  16.439 -2.4288 -0.2099  1.0581
 1454TIP3    H228558   2.357   0.483  16.397 -2.1137  0.7062 -1.3657
 1455TIP3   OH228559   0.547   1.367  15.184  0.0703  0.0594  0.3438
 1455TIP3    H128560   0.456   1.379  15.210  0.2575  0.9941  0.5997
 1455TIP3    H228561   0.588   1.326  15.260  0.3556  1.7237  1.1264
 1456TIP3   OH228562   5.652   6.213  15.359  0.0672 -0.4015 -0.0955
 1456TIP3    H128563   5.659   6.166  15.276  2.3813 -0.8757  0.2972
 1456TIP3    H228564   5.579   6.273  15.347 -2.1053 -3.0526 -1.1372
 1457TIP3   OH228565   0.657   4.790  16.544  0.0291  0.0172 -0.5931
 1457TIP3    H128566   0.606   4.815  16.622 -1.7328 -0.3610 -1.5569
 1457TIP3    H228567   0.694   4.872  16.512  0.0816  0.3030  0.1812
 1458TIP3   OH228568   6.041   2.915  16.255 -0.5143  0.2303  0.3461
 1458TIP3    H128569   6.049   2.999  16.210 -1.8173  0.4697  0.5356
 1458TIP3    H228570   6.125   2.904  16.301 -0.1871  1.2285 -0.0004
 1459TIP3   OH228571   0.241   3.251  17.247  0.0778  0.1258  0.2094
 1459TIP3    H128572   0.307   3.252  17.177 -0.5060  1.2501 -0.3520
 1459TIP3    H228573   0.197   3.167  17.238  0.0519  0.2352 -0.7310
 1460TIP3   OH228574   6.771   1.374  17.510  0.1549 -0.2274  0.3666
 1460TIP3    H128575   6.696   1.407  17.560  0.1324  1.4331 -0.6892
 1460TIP3    H228576   6.733   1.343  17.428  0.6427  0.9977 -0.3387
 1461TIP3   OH228577   6.774   5.941  14.541  0.0635 -0.1621 -0.1972
 1461TIP3    H128578   6.766   5.969  14.633  0.1788  0.2615 -0.3136
 1461TIP3    H228579   6.838   6.001  14.503  0.2137 -0.5030 -0.4912
 1462TIP3   OH228580   3.247   3.913  17.385 -0.0191  0.9170  0.3753
 1462TIP3    H128581   3.303   3.902  17.462 -0.9933 -2.0813  0.7629
 1462TIP3    H228582   3.303   3.889  17.312 -0.2350 -0.2830  0.5869
 1463TIP3   OH228583   2.496   5.913  16.583  0.3948 -0.1664 -0.1773
 1463TIP3    H128584   2.401   5.901  16.587  0.4862 -1.0857 -0.5444
 1463TIP3    H228585   2.524   5.913  16.675  0.2205 -1.5378 -0.1110
 1464TIP3   OH228586   3.990   0.850  16.282  0.4088  0.2319 -0.2487
 1464TIP3    H128587   4.044   0.772  16.278  1.5791  1.0303 -0.4608
 1464TIP3    H228588   3.937   0.848  16.203  0.7274 -0.1305 -0.4500
 1465TIP3   OH228589   3.455   4.397  16.920 -0.0395 -0.4193 -0.2921
 1465TIP3    H128590   3.459   4.484  16.959  2.3540 -0.9500  0.8353
 1465TIP3    H228591   3.541   4.384  16.882 -0.5843 -2.0375 -1.0564
 1466TIP3   OH228592   0.758   0.330  18.132  0.7274  0.3469  0.0269
 1466TIP3    H128593   0.806   0.284  18.201 -2.2029 -0.6469  1.5349
 1466TIP3    H228594   0.792   0.291  18.051 -0.5401 -3.6557  1.1657
 1467TIP3   OH228595   0.460   3.362  17.109 -0.1314  0.0805  0.1591
 1467TIP3    H128596   0.410   3.392  17.033  0.4354 -1.0786 -0.7157
 1467TIP3    H228597   0.446   3.429  17.176 -0.8265  1.0185 -0.8970
 1468TIP3   OH228598   3.689   1.237  15.945 -0.2730 -0.5466 -0.1378
 1468TIP3    H128599   3.774   1.277  15.928 -0.4204 -0.2649 -0.2061
 1468TIP3    H228600   3.635   1.261  15.869 -0.1168 -1.5653 -0.5966
 1469TIP3   OH228601   4.052   5.599  17.968 -0.9832  0.2357 -0.1897
 1469TIP3    H128602   4.070   5.548  18.047  0.1202 -0.1640 -0.6781
 1469TIP3    H228603   3.996   5.671  17.997  0.6569  0.9890  1.2759
 1470TIP3   OH228604   4.586   6.470  17.795  0.1694 -0.1509  0.5327
 1470TIP3    H128605   4.523   6.515  17.738  3.0278 -0.7877 -3.5495
 1470TIP3    H228606   4.567   6.377  17.783  0.7179 -0.2875  0.6922
 1471TIP3   OH228607   5.699   3.848  16.075 -0.1771 -0.1418 -0.3482
 1471TIP3    H128608   5.753   3.865  15.997 -0.2842 -0.3265 -0.4630
 1471TIP3    H228609   5.618   3.810  16.040 -0.4466  0.2770 -0.1891
 1472TIP3   OH228610   5.039   1.669  14.148 -0.2362 -0.4917 -0.1358
 1472TIP3    H128611   5.070   1.583  14.121  0.2246  0.1102 -1.6188
 1472TIP3    H228612   4.949   1.674  14.116 -0.4926 -0.6703  0.5440
 1473TIP3   OH228613   3.021   3.675  15.099  0.1835  0.1640  0.7792
 1473TIP3    H128614   3.110   3.690  15.131  0.4605 -2.3058  1.3196
 1473TIP3    H228615   3.019   3.583  15.074 -2.0742  0.2890  0.2700
 1474TIP3   OH228616   4.608   0.271  17.771 -0.6160  0.2932 -0.5772
 1474TIP3    H128617   4.577   0.348  17.725  1.6177  0.6157 -1.6960
 1474TIP3    H228618   4.671   0.231  17.711 -0.0977 -1.1759  0.8679
 1475TIP3   OH228619   1.414   4.984  17.834 -0.0256 -0.3086  0.5454
 1475TIP3    H128620   1.359   4.921  17.881 -0.8151  1.3249  1.8910
 1475TIP3    H228621   1.354   5.026  17.772  0.3964 -0.5196 -0.0174
 1476TIP3   OH228622   6.622   1.616  18.164  0.3154  0.0808 -0.1720
 1476TIP3    H128623   6.681   1.543  18.185  0.3867  0.1347 -0.1828
 1476TIP3    H228624   6.579   1.637  18.247  0.2773  0.0109 -0.1743
 1477TIP3   OH228625   3.773   4.695  17.242  0.1298 -0.2799  0.5125
 1477TIP3    H128626   3.813   4.755  17.306 -0.5061 -0.3649  0.9954
 1477TIP3    H228627   3.825   4.615  17.249  0.5805 -0.0054  0.3274
 1478TIP3   OH228628   3.652   0.029  17.393  0.6809 -0.0816 -0.1337
 1478TIP3    H128629   3.737   0.020  17.436  0.1261  1.4112  1.3875
 1478TIP3    H228630   3.669   0.005  17.302  2.6562 -0.0961  0.1895
 1479TIP3   OH228631   5.629   5.167  15.522  0.3156 -0.0227 -0.6762
 1479TIP3    H128632   5.722   5.178  15.543  0.0617  0.8120  0.0548
 1479TIP3    H228633   5.620   5.202  15.434  0.3440  1.7568 -0.0002
 1480TIP3   OH228634   3.829   5.050  15.795 -0.0890 -0.5050  0.2541
 1480TIP3    H128635   3.873   4.988  15.852 -0.9636 -1.4070 -0.0312
 1480TIP3    H228636   3.887   5.127  15.794  1.9983 -2.0001 -0.9366
 1481TIP3   OH228637   5.172   4.594  17.362  0.5435 -0.3589 -0.0744
 1481TIP3    H128638   5.080   4.621  17.365  0.6695  0.1516 -0.5387
 1481TIP3    H228639   5.211   4.631  17.441  0.6658  0.6894 -0.5967
 1482TIP3   OH228640   0.477   6.647  15.738  0.0712 -0.1494  0.1228
 1482TIP3    H128641   0.561   6.604  15.728  0.1612 -0.1485  0.8178
 1482TIP3    H228642   0.499   6.737  15.762 -0.0986  0.5248 -2.0179
 1483TIP3   OH228643   1.697   4.342  14.960 -0.5489 -0.1153  0.1575
 1483TIP3    H128644   1.720   4.267  14.905 -1.5977 -0.2935 -0.0773
 1483TIP3    H228645   1.617   4.376  14.920  0.0518  1.2918  0.1214
 1484TIP3   OH228646   2.940   2.475  15.353  0.5117  0.2014 -0.1528
 1484TIP3    H128647   2.915   2.385  15.334 -0.8595  0.4540  0.3854
 1484TIP3    H228648   2.882   2.502  15.424  0.4621  1.7220 -0.7467
 1485TIP3   OH228649   6.442   0.029  15.287  0.1489  0.1632  0.9738
 1485TIP3    H128650   6.470   0.110  15.244 -1.8569  0.5988  0.3909
 1485TIP3    H228651   6.347   0.036  15.293 -0.0707 -2.0833  1.0592
 1486TIP3   OH228652   6.091   2.640  16.498 -0.2670  0.0763  0.4959
 1486TIP3    H128653   6.117   2.664  16.587 -1.6916  0.1501  0.9130
 1486TIP3    H228654   6.108   2.546  16.493  2.5554  0.5307 -0.1658
 1487TIP3   OH228655   5.844   0.841  16.214 -0.2340 -0.0759  0.2595
 1487TIP3    H128656   5.831   0.857  16.120  2.3048 -0.8033 -0.3186
 1487TIP3    H228657   5.878   0.751  16.218  3.0322  1.0342  1.3979
 1488TIP3   OH228658   4.824   3.631  16.634 -0.2796  0.1018  0.0511
 1488TIP3    H128659   4.893   3.681  16.591 -0.3005 -0.2708 -0.4227
 1488TIP3    H228660   4.805   3.558  16.574 -1.9090  0.8465 -0.4060
 1489TIP3   OH228661   4.555   1.060  17.473  0.2880  1.1999  0.4470
 1489TIP3    H128662   4.647   1.066  17.448  0.1257 -0.6880 -0.8520
 1489TIP3    H228663   4.543   0.968  17.498 -1.1685  1.4974  0.9672
 1490TIP3   OH228664   3.469   1.600  17.281  0.2845 -0.0914  0.0982
 1490TIP3    H128665   3.523   1.565  17.210  0.4601  0.2542  0.0612
 1490TIP3    H228666   3.467   1.694  17.265 -0.0745 -0.0667  0.2777
 1491TIP3   OH228667   3.058   3.494  15.816 -0.2316  0.1709  0.0685
 1491TIP3    H128668   3.026   3.503  15.906  2.2563  0.1505  1.0423
 1491TIP3    H228669   3.123   3.563  15.806 -0.7029  0.3961 -1.8761
 1492TIP3   OH228670   4.872   6.308  17.313 -0.0477  0.2531 -0.0592
 1492TIP3    H128671   4.947   6.286  17.368 -0.4149  0.6390  0.5996
 1492TIP3    H228672   4.892   6.394  17.277 -0.0915  0.2751 -0.0316
 1493TIP3   OH228673   1.746   4.669  17.608  0.0038  0.5869 -0.0200
 1493TIP3    H128674   1.710   4.756  17.626  0.2981  0.5248  0.9147
 1493TIP3    H228675   1.693   4.636  17.535 -1.6752  0.5851  1.1607
 1494TIP3   OH228676   5.617   2.991  16.664  0.0321  0.0681  0.2722
 1494TIP3    H128677   5.698   2.986  16.613  1.0805  0.1156  1.8366
 1494TIP3    H228678   5.575   2.905  16.651 -0.1103  0.3367 -1.1999
 1495TIP3   OH228679   0.251   5.303  17.938 -0.2547  0.3725 -0.7406
 1495TIP3    H128680   0.167   5.301  17.985 -0.7875  0.5672 -1.6715
 1495TIP3    H228681   0.228   5.329  17.849  0.9459  1.7994 -0.6775
 1496TIP3   OH228682   5.572   1.578  15.893 -0.1574 -0.2766  0.7131
 1496TIP3    H128683   5.551   1.672  15.885 -1.2493 -0.6100 -0.7186
 1496TIP3    H228684   5.657   1.577  15.938  0.6562  1.4674 -0.6282
 1497TIP3   OH228685   5.602   0.507  17.108  0.0213  0.0904  0.2671
 1497TIP3    H128686   5.649   0.555  17.041  1.0207 -0.5047  0.5272
 1497TIP3    H228687   5.563   0.433  17.062  1.6440 -0.9581  0.4924
 1498TIP3   OH228688   1.678   5.527  14.957  0.1787 -0.0108  0.4185
 1498TIP3    H128689   1.701   5.579  14.880 -1.1910  1.7359  1.1355
 1498TIP3    H228690   1.646   5.444  14.922  0.9581  0.1949 -0.8199
 1499TIP3   OH228691   0.109   1.329  14.822  0.4850 -0.1076  0.0995
 1499TIP3    H128692   0.084   1.243  14.854  1.5725 -0.8022 -0.8421
 1499TIP3    H228693   0.045   1.350  14.754 -0.0244  0.0128  0.6153
 1500TIP3   OH228694   5.712   3.316  17.318  0.3475  0.2026 -0.4019
 1500TIP3    H128695   5.806   3.302  17.309  0.7474  1.1742  1.5312
 1500TIP3    H228696   5.673   3.233  17.293  1.8016 -0.5763 -0.2173
 1501TIP3   OH228697   6.118   0.206  16.849  0.3224  0.1455 -0.0897
 1501TIP3    H128698   6.173   0.265  16.900  1.4289 -1.2716  0.4378
 1501TIP3    H228699   6.036   0.201  16.898  0.4459  0.7743  0.1856
 1502TIP3   OH228700   1.318   3.294  16.466 -0.3411 -0.0208 -0.0700
 1502TIP3    H128701   1.359   3.363  16.519  1.7457 -0.9759 -0.3894
 1502TIP3    H228702   1.355   3.305  16.379 -0.6023 -1.0486 -0.3178
 1503TIP3   OH228703   0.104   2.755  17.076 -0.0765 -0.1917  0.0023
 1503TIP3    H128704   0.148   2.695  17.016  0.3901  1.3068 -1.2140
 1503TIP3    H228705   0.010   2.741  17.060 -0.0225 -1.4910  0.6849
 1504TIP3   OH228706   1.065   0.418  16.918 -0.2103 -0.4123  0.0169
 1504TIP3    H128707   1.034   0.415  17.008 -0.2381 -0.6026  0.0022
 1504TIP3    H228708   0.991   0.454  16.868 -0.2078 -0.3415  0.0652
 1505TIP3   OH228709   0.590   1.264  15.463  0.2130  0.0835  0.2906
 1505TIP3    H128710   0.652   1.326  15.499  0.6993 -0.9309  1.2654
 1505TIP3    H228711   0.505   1.307  15.472  0.7566  1.6021 -1.3214
 1506TIP3   OH228712   1.128   0.130  16.875 -0.4323 -0.6390  0.4668
 1506TIP3    H128713   1.101   0.222  16.886 -1.7146 -1.0707  1.1071
 1506TIP3    H228714   1.198   0.118  16.939  0.0181 -0.0236  0.1127
 1507TIP3   OH228715   5.571   2.427  15.963 -0.3702 -0.0418  1.0927
 1507TIP3    H128716   5.554   2.483  16.039  2.1079  1.0814  0.9077
 1507TIP3    H228717   5.611   2.486  15.899  2.1786 -1.9444  0.8064
 1508TIP3   OH228718   3.680   5.873  14.504 -0.2224  0.0212  0.5089
 1508TIP3    H128719   3.737   5.922  14.563  0.8680 -0.4360 -0.1485
 1508TIP3    H228720   3.729   5.794  14.482 -0.7994 -0.0474 -0.6405
 1509TIP3   OH228721   5.454   4.549  14.889 -0.7236  0.2999 -0.0459
 1509TIP3    H128722   5.460   4.594  14.805  0.5662 -2.3092 -1.4731
 1509TIP3    H228723   5.466   4.457  14.868  1.7957 -0.3078  3.2021
 1510TIP3   OH228724   3.862   1.544  15.346  0.5032  0.4188  0.6540
 1510TIP3    H128725   3.934   1.506  15.397  1.4456  1.2794  0.0149
 1510TIP3    H228726   3.783   1.510  15.388  1.2325 -2.9262 -0.3581
 1511TIP3   OH228727   1.899   5.846  15.929  0.0539  0.9956  0.1018
 1511TIP3    H128728   1.926   5.908  15.862  1.6946 -0.8227 -1.0282
 1511TIP3    H228729   1.960   5.862  16.002  0.6065  0.6098 -0.2661
 1512TIP3   OH228730   1.574   0.121  17.560 -0.6512 -0.5917  0.3391
 1512TIP3    H128731   1.651   0.171  17.586 -1.4813  0.7447  0.3110
 1512TIP3    H228732   1.589   0.034  17.597  1.3025 -0.6540 -0.4746
 1513TIP3   OH228733   2.672   0.192  17.653  0.0426  0.0543  0.8105
 1513TIP3    H128734   2.600   0.226  17.706 -0.5388  0.5997 -0.2967
 1513TIP3    H228735   2.630   0.130  17.593  0.2194  1.5298 -0.8910
 1514TIP3   OH228736   2.530   4.981  15.726 -0.5119 -0.2781 -0.4901
 1514TIP3    H128737   2.515   5.074  15.711 -1.2877 -0.2111  0.6307
 1514TIP3    H228738   2.624   4.970  15.717 -0.4912  0.4819 -1.3188
 1515TIP3   OH228739   1.407   2.948  15.720 -0.0140 -0.1602 -0.1572
 1515TIP3    H128740   1.494   2.917  15.695 -1.0295 -3.1628 -0.2502
 1515TIP3    H228741   1.410   3.042  15.701  3.1832 -0.1471 -0.1502
 1516TIP3   OH228742   1.111   4.079  16.065  0.1752 -0.2811  0.7019
 1516TIP3    H128743   1.057   4.156  16.046  2.0508  0.6038 -1.3924
 1516TIP3    H228744   1.158   4.102  16.145 -1.7285 -0.6995  2.0258
 1517TIP3   OH228745   1.662   4.269  17.195  0.2167 -0.3561 -0.0206
 1517TIP3    H128746   1.730   4.201  17.197  0.4855 -0.1077  2.2416
 1517TIP3    H228747   1.627   4.270  17.284 -1.3096  0.9854 -0.5837
 1518TIP3   OH228748   6.218   3.151  16.905 -0.2791 -0.6446 -0.0792
 1518TIP3    H128749   6.302   3.120  16.871 -0.0021  0.6119 -0.5743
 1518TIP3    H228750   6.153   3.116  16.844  0.0123 -0.3959 -0.5342
 1519TIP3   OH228751   6.468   4.180  15.110 -0.1848  0.7432 -0.1206
 1519TIP3    H128752   6.501   4.092  15.093 -0.6528  0.4758  0.3500
 1519TIP3    H228753   6.541   4.225  15.152 -0.3376  0.2180  0.7220
 1520TIP3   OH228754   0.486   4.693  17.007 -0.8440 -0.1487  0.5003
 1520TIP3    H128755   0.400   4.653  17.020 -0.2366 -2.6452 -2.1576
 1520TIP3    H228756   0.544   4.645  17.065 -1.2221  2.2310  3.1017
 1521TIP3   OH228757   3.733   4.634  17.860  0.2761 -0.3507  0.8991
 1521TIP3    H128758   3.779   4.637  17.944  0.5210 -1.0803  0.8035
 1521TIP3    H228759   3.644   4.661  17.881 -0.3682 -2.8869  1.9223
 1522TIP3   OH228760   6.267   3.565  15.294  0.6560 -0.1621 -0.0882
 1522TIP3    H128761   6.317   3.486  15.273  0.1970  0.0414 -2.1408
 1522TIP3    H228762   6.328   3.620  15.342  0.9155 -1.8228  1.6031
 1523TIP3   OH228763   0.324   6.562  16.959  0.0233  0.7734 -0.1957
 1523TIP3    H128764   0.232   6.537  16.946  1.0249 -3.0578 -1.2316
 1523TIP3    H228765   0.353   6.509  17.032  2.0185 -0.1023 -1.5439
 1524TIP3   OH228766   3.904   4.851  16.023  0.2200  0.5735  0.0263
 1524TIP3    H128767   3.817   4.884  16.045 -0.8595 -0.3906 -2.3933
 1524TIP3    H228768   3.892   4.756  16.014  1.2107  0.5528 -1.4687
 1525TIP3   OH228769   4.067   6.012  15.804  0.0197  0.8334  0.2345
 1525TIP3    H128770   4.103   5.923  15.810 -2.9266 -0.4462  0.7904
 1525TIP3    H228771   4.049   6.024  15.710 -1.0772  0.1368  0.3382
 1526TIP3   OH228772   6.657   0.852  14.250  0.3253 -0.7698  0.2135
 1526TIP3    H128773   6.606   0.929  14.225  1.2296  0.2182  1.2680
 1526TIP3    H228774   6.596   0.799  14.301  0.3051  0.4398  1.5365
 1527TIP3   OH228775   5.073   3.232  17.007  0.7613  0.7322 -0.6902
 1527TIP3    H128776   5.131   3.170  17.051  0.7591 -0.2613 -2.0312
 1527TIP3    H228777   5.050   3.189  16.924 -1.9599  1.0199 -0.1919
 1528TIP3   OH228778   3.074   5.582  15.531 -0.2996 -0.6170  0.3842
 1528TIP3    H128779   3.030   5.516  15.478  1.2801 -0.6159 -1.0372
 1528TIP3    H228780   3.108   5.645  15.467  0.3493  0.2371  1.5270
 1529TIP3   OH228781   4.460   2.013  16.453  0.1919 -0.2994  0.1016
 1529TIP3    H128782   4.540   2.045  16.412  0.1299  0.6057  0.6394
 1529TIP3    H228783   4.490   1.959  16.526  0.2992 -1.4647 -0.7796
 1530TIP3   OH228784   1.140   3.011  17.656 -0.5330  0.1908 -0.2029
 1530TIP3    H128785   1.164   2.963  17.577  0.4799  0.6929 -0.2163
 1530TIP3    H228786   1.171   2.957  17.728  0.9609  0.9708 -0.2268
 1531TIP3   OH228787   3.324   1.817  15.349  0.0841 -0.2307  0.0194
 1531TIP3    H128788   3.266   1.784  15.281  0.5024  0.0636 -0.4968
 1531TIP3    H228789   3.391   1.866  15.301  1.7998 -2.0589  0.4455
 1532TIP3   OH228790   4.294   3.452  16.165 -0.4625 -0.2223 -0.3104
 1532TIP3    H128791   4.350   3.529  16.160 -0.5103 -0.2311 -0.9845
 1532TIP3    H228792   4.327   3.393  16.096 -1.7332  0.0660 -1.1887
 1533TIP3   OH228793   3.351   2.214  15.489  0.1576  0.5298  0.1365
 1533TIP3    H128794   3.309   2.129  15.500 -0.4913  0.7783 -0.3339
 1533TIP3    H228795   3.435   2.205  15.533  0.1532 -0.3999 -0.0207
 1534TIP3   OH228796   3.362   2.005  15.830 -0.3178 -0.1187  0.1084
 1534TIP3    H128797   3.305   1.987  15.905 -2.3940 -0.1984 -1.3839
 1534TIP3    H228798   3.312   2.066  15.776  0.7461 -0.6578 -1.5817
 1535TIP3   OH228799   1.049   0.706  15.533  0.0961 -0.2921  0.4267
 1535TIP3    H128800   1.017   0.729  15.620 -1.1927  1.7915 -0.5103
 1535TIP3    H228801   1.120   0.768  15.517 -1.5584  1.3801 -1.0377
 1536TIP3   OH228802   3.950   2.294  16.511 -0.2880  0.0922 -0.1422
 1536TIP3    H128803   3.931   2.283  16.604  1.0308 -0.3032  0.1034
 1536TIP3    H228804   3.912   2.217  16.469  1.5521 -1.2067  0.4636
 1537TIP3   OH228805   5.127   4.839  17.140 -0.2312  0.5475 -0.2698
 1537TIP3    H128806   5.168   4.874  17.219 -0.3616 -0.0059  0.0431
 1537TIP3    H228807   5.139   4.744  17.146  1.3904  0.6053 -1.8135
 1538TIP3   OH228808   0.900   4.417  15.077 -0.0334 -0.3013 -0.2001
 1538TIP3    H128809   0.906   4.393  14.985 -0.3363  1.2456 -0.6532
 1538TIP3    H228810   0.977   4.473  15.092 -0.5475  0.3075  0.2043
 1539TIP3   OH228811   3.000   3.005  16.711  0.2282 -0.1063  0.0474
 1539TIP3    H128812   3.066   2.978  16.647  1.7349  4.0510 -0.4694
 1539TIP3    H228813   3.046   3.005  16.794  0.3976  1.0373 -0.0267
 1540TIP3   OH228814   3.442   2.065  17.588 -0.0254 -0.4072 -0.1519
 1540TIP3    H128815   3.364   2.014  17.612 -0.9567  0.8982 -0.2623
 1540TIP3    H228816   3.508   2.041  17.653 -0.1879 -2.2503 -0.6204
 1541TIP3   OH228817   0.745   0.661  16.516 -0.1164 -0.3031  0.2493
 1541TIP3    H128818   0.835   0.673  16.547  0.3028 -0.6617 -0.7742
 1541TIP3    H228819   0.733   0.566  16.516 -0.8285 -0.2297  1.2456
 1542TIP3   OH228820   2.607   3.422  16.803  0.3080 -0.2861  0.2864
 1542TIP3    H128821   2.676   3.356  16.801  0.1440 -0.5210  1.5553
 1542TIP3    H228822   2.653   3.505  16.800  0.6469 -0.4452  0.8734
 1543TIP3   OH228823   3.075   3.802  16.074 -0.5455 -0.5100  0.1695
 1543TIP3    H128824   3.089   3.719  16.030  0.3942 -0.7910  0.9572
 1543TIP3    H228825   2.985   3.827  16.051  0.3336  0.1474 -3.1898
 1544TIP3   OH228826   1.218   4.723  16.111 -0.1814  0.3608  0.0026
 1544TIP3    H128827   1.146   4.694  16.055 -0.5114  2.0581 -0.5093
 1544TIP3    H228828   1.279   4.766  16.052  1.3496 -1.1518  0.4222
 1545TIP3   OH228829   2.218   2.960  17.851  0.5229 -0.2032  0.0489
 1545TIP3    H128830   2.190   3.051  17.853  0.6046 -0.0113 -3.1011
 1545TIP3    H228831   2.313   2.964  17.836  0.5805 -0.8124  0.2206
 1546TIP3   OH228832   4.620   2.895  15.591  0.7375 -0.1950  0.4796
 1546TIP3    H128833   4.690   2.861  15.535 -0.2746 -0.9739 -0.3548
 1546TIP3    H228834   4.582   2.817  15.632 -0.1041  0.1340  0.3550
 1547TIP3   OH228835   0.709   4.692  15.343 -0.4792  0.1264  0.1710
 1547TIP3    H128836   0.675   4.613  15.301  1.5804 -0.5515 -0.3431
 1547TIP3    H228837   0.737   4.663  15.430  0.0977  0.3340  0.0579
 1548TIP3   OH228838   2.159   0.160  16.256  0.2397  0.0170  0.0894
 1548TIP3    H128839   2.248   0.125  16.258  0.0806 -0.3754  1.0769
 1548TIP3    H228840   2.123   0.129  16.173  0.7083 -0.6241  0.1141
 1549TIP3   OH228841   3.936   6.350  15.749 -0.0692 -0.7147  0.1210
 1549TIP3    H128842   3.869   6.295  15.791 -1.9022 -0.2721 -2.0335
 1549TIP3    H228843   4.016   6.333  15.799 -1.8527 -0.8656  3.1871
 1550TIP3   OH228844   0.883   1.061  14.802 -0.2407  0.2207 -0.6208
 1550TIP3    H128845   0.924   1.134  14.756  0.9431  0.0450  0.1068
 1550TIP3    H228846   0.802   1.045  14.755 -0.3016  1.7093 -1.0724
 1551TIP3   OH228847   1.096   6.681  16.492 -0.0553 -0.3120  0.2857
 1551TIP3    H128848   1.098   6.658  16.585  0.9520 -0.8516  0.1478
 1551TIP3    H228849   1.056   6.605  16.449 -0.7051  0.0204  0.2903
 1552TIP3   OH228850   1.994   3.113  17.453  0.3611 -0.0020  0.0472
 1552TIP3    H128851   1.979   3.147  17.541  0.4377 -0.0145  0.0655
 1552TIP3    H228852   2.079   3.150  17.427  0.8717 -0.8777  0.4135
 1553TIP3   OH228853   5.281   3.450  15.966 -0.0476 -0.7124  0.2185
 1553TIP3    H128854   5.226   3.497  16.028  0.0676 -0.6641  0.2837
 1553TIP3    H228855   5.315   3.375  16.015 -0.9954 -1.4086 -0.1489
 1554TIP3   OH228856   6.467   1.823  17.827  0.1976 -0.2940  0.0044
 1554TIP3    H128857   6.456   1.913  17.796  0.2365 -0.5055 -0.6313
 1554TIP3    H228858   6.455   1.769  17.749  1.3340 -0.7850  0.1536
 1555TIP3   OH228859   1.594   6.327  16.751  0.1649  0.3406  0.7377
 1555TIP3    H128860   1.664   6.294  16.696 -1.7043 -3.7212  0.4054
 1555TIP3    H228861   1.604   6.280  16.834 -2.0119 -0.3320  0.6984
 1556TIP3   OH228862   6.739   1.283  16.548  0.4319 -0.2562 -0.3552
 1556TIP3    H128863   6.810   1.232  16.588  2.8496  1.7769 -1.7944
 1556TIP3    H228864   6.671   1.285  16.615  1.4325 -2.7986  0.8719
 1557TIP3   OH228865   5.778   1.643  15.047  0.4519  0.8863  0.2374
 1557TIP3    H128866   5.847   1.578  15.039  0.7766  1.0360  1.6014
 1557TIP3    H228867   5.697   1.593  15.053  0.6310  0.6277  0.5220
 1558TIP3   OH228868   3.519   3.942  15.394 -0.8763 -0.0723  0.6843
 1558TIP3    H128869   3.563   3.862  15.422  0.0373 -0.1317 -0.8181
 1558TIP3    H228870   3.574   3.976  15.323 -1.5110  1.6207  0.9602
 1559TIP3   OH228871   2.811   5.212  16.617 -0.4993  0.3275 -1.0761
 1559TIP3    H128872   2.820   5.250  16.529 -0.5717  0.1634 -1.1555
 1559TIP3    H228873   2.727   5.168  16.615  1.4216 -3.8310 -2.5252
 1560TIP3   OH228874   5.031   1.762  14.778 -0.5167  0.6271 -0.0084
 1560TIP3    H128875   5.019   1.843  14.729  0.1005  1.0839  0.5728
 1560TIP3    H228876   5.028   1.789  14.870 -2.3091 -0.3015  0.2541
 1561TIP3   OH228877   0.735   1.355  17.649 -0.3274  0.5946  0.3666
 1561TIP3    H128878   0.659   1.411  17.665 -0.1772  0.7364  0.5944
 1561TIP3    H228879   0.799   1.414  17.608 -0.2823  0.5144  0.3224
 1562TIP3   OH228880   4.834   4.469  16.033  0.3290 -0.3519  0.3756
 1562TIP3    H128881   4.846   4.563  16.016  0.2448 -0.4386 -0.1963
 1562TIP3    H228882   4.814   4.432  15.947 -2.3027 -0.4881  0.9347
 1563TIP3   OH228883   4.198   2.751  15.514 -0.1535  0.4888 -0.1146
 1563TIP3    H128884   4.217   2.680  15.452 -1.5442  0.1660 -0.2057
 1563TIP3    H228885   4.203   2.710  15.600 -0.3071  0.4384 -0.1304
 1564TIP3   OH228886   0.330   5.459  17.013 -0.1191 -0.0494  0.1728
 1564TIP3    H128887   0.392   5.392  16.984 -1.5881 -0.7580 -1.4753
 1564TIP3    H228888   0.268   5.412  17.069 -0.2595  0.2538  0.2767
 1565TIP3   OH228889   4.978   0.485  14.791  0.0339 -0.3434  0.3930
 1565TIP3    H128890   5.011   0.452  14.875 -0.2102  2.3085  1.6386
 1565TIP3    H228891   4.974   0.408  14.735  2.4441 -1.8458  2.0796
 1566TIP3   OH228892   4.046   1.667  17.346  0.5948  0.0988  0.0998
 1566TIP3    H128893   3.974   1.651  17.285 -0.3618  3.0275  0.3506
 1566TIP3    H228894   4.115   1.607  17.317 -1.1455 -1.2873 -1.4491
 1567TIP3   OH228895   6.575   0.288  15.959 -0.4280 -0.4081  0.1427
 1567TIP3    H128896   6.516   0.317  15.890 -1.2961 -0.2054  0.9455
 1567TIP3    H228897   6.626   0.366  15.980 -1.1149 -0.0823  0.6566
 1568TIP3   OH228898   5.963   4.864  15.591  0.4974  0.4926 -0.1874
 1568TIP3    H128899   5.942   4.770  15.595  0.2898  0.5659  0.6426
 1568TIP3    H228900   6.051   4.871  15.627  0.0177  0.7562  0.9761
 1569TIP3   OH228901   1.223   1.729  15.438 -0.1074  0.4630 -0.0266
 1569TIP3    H128902   1.177   1.723  15.354  0.2702  1.9181 -0.3625
 1569TIP3    H228903   1.229   1.823  15.455 -0.3640  0.1912  1.7509
 1570TIP3   OH228904   5.678   2.476  18.050 -0.0084  0.3366  0.3214
 1570TIP3    H128905   5.740   2.549  18.050  0.4838 -0.0431  2.3553
 1570TIP3    H228906   5.662   2.458  18.142 -1.3079 -1.1472 -0.1636
 1571TIP3   OH228907   6.042   3.852  17.983  0.0614 -0.7129 -0.3294
 1571TIP3    H128908   6.050   3.757  17.975  1.4505 -0.8691  1.8911
 1571TIP3    H228909   6.125   3.885  17.951  0.6505 -0.5041  1.2906
 1572TIP3   OH228910   3.678   1.229  16.682 -0.4938 -0.4378  0.4534
 1572TIP3    H128911   3.755   1.176  16.704 -0.4180 -1.0567 -1.1649
 1572TIP3    H228912   3.642   1.187  16.604 -0.3722  1.9485 -0.9673
 1573TIP3   OH228913   3.143   3.985  16.789 -0.3621 -0.4547 -0.2344
 1573TIP3    H128914   3.169   3.920  16.723 -0.7220  0.3059 -1.1637
 1573TIP3    H228915   3.172   4.069  16.752 -1.1578  0.0540  0.2606
 1574TIP3   OH228916   5.982   1.261  15.274 -0.3204  0.1815 -0.2066
 1574TIP3    H128917   5.930   1.206  15.332  0.3057  0.1071  0.2935
 1574TIP3    H228918   6.060   1.209  15.253  0.3951  0.9435  0.4640
 1575TIP3   OH228919   0.330   1.399  15.349 -0.6481  0.5212 -0.1033
 1575TIP3    H128920   0.317   1.407  15.443 -0.6176 -2.1166  0.2061
 1575TIP3    H228921   0.292   1.314  15.326  1.4724 -0.0208 -2.0311
 1576TIP3   OH228922   3.261   2.975  16.601  0.4290 -0.0640 -0.7018
 1576TIP3    H128923   3.291   2.884  16.607 -1.8342 -0.7992  0.6069
 1576TIP3    H228924   3.322   3.024  16.655 -0.0078 -1.3419  1.0673
 1577TIP3   OH228925   2.196   0.292  17.871 -0.0119  0.4544 -0.9445
 1577TIP3    H128926   2.126   0.335  17.921  1.5332  1.0563  0.8163
 1577TIP3    H228927   2.168   0.201  17.865 -0.3028  0.3766  1.0018
 1578TIP3   OH228928   2.310   1.103  15.310 -0.1972  0.2943 -0.0971
 1578TIP3    H128929   2.233   1.069  15.357  0.1752  1.2721  1.2787
 1578TIP3    H228930   2.356   1.024  15.280 -1.1705 -0.3241 -0.0171
 1579TIP3   OH228931   3.561   5.043  15.902 -0.2102 -0.0230 -0.2474
 1579TIP3    H128932   3.523   5.001  15.825  0.1421 -2.3961  0.7967
 1579TIP3    H228933   3.640   5.086  15.869 -0.0905 -0.9605 -1.2371
 1580TIP3   OH228934   1.231   5.798  15.256 -0.1010  0.0826  0.4978
 1580TIP3    H128935   1.305   5.855  15.275  0.9932 -0.8138 -0.8835
 1580TIP3    H228936   1.202   5.766  15.341 -0.2532  2.0682  1.2286
 1581TIP3   OH228937   1.461   4.788  16.309  0.2125 -0.7560  0.1605
 1581TIP3    H128938   1.413   4.705  16.312  0.8673 -1.2827 -1.8923
 1581TIP3    H228939   1.429   4.837  16.385 -0.9038 -2.4863  0.8876
 1582TIP3   OH228940   5.394   2.360  17.712  0.3813  0.2000 -0.4045
 1582TIP3    H128941   5.367   2.304  17.784 -1.5934  1.2436 -0.2783
 1582TIP3    H228942   5.479   2.395  17.740 -0.3237  0.5665  1.4064
 1583TIP3   OH228943   3.340   6.375  15.625 -0.1783  0.2910 -0.1490
 1583TIP3    H128944   3.345   6.301  15.687 -0.1121  0.6669  0.3017
 1583TIP3    H228945   3.411   6.433  15.653  0.4849  0.0074 -1.1990
 1584TIP3   OH228946   0.829   2.570  13.982 -0.6330 -0.2687 -0.0605
 1584TIP3    H128947   0.842   2.651  13.933  0.8367 -1.2794 -1.4316
 1584TIP3    H228948   0.765   2.521  13.930 -0.7052 -0.4334  0.1847
 1585TIP3   OH228949   5.601   2.367  17.056 -0.3431 -0.6078  0.5027
 1585TIP3    H128950   5.642   2.380  16.971 -3.1024  0.5662 -0.7630
 1585TIP3    H228951   5.611   2.451  17.101 -0.0166 -0.8122  0.8158
 1586TIP3   OH228952   5.921   3.416  14.661 -0.1701  0.0310  0.0738
 1586TIP3    H128953   5.934   3.511  14.664  0.4294 -0.0583  2.5486
 1586TIP3    H228954   5.827   3.405  14.678 -0.7634  0.1956 -2.6973
 1587TIP3   OH228955   1.516   5.216  17.877 -0.1621  0.4689  0.2472
 1587TIP3    H128956   1.451   5.258  17.821  1.0149  1.1736 -0.6468
 1587TIP3    H228957   1.488   5.125  17.883 -2.2870  1.1342  1.4988
 1588TIP3   OH228958   3.690   3.729  16.782 -0.4297  0.1745  0.2313
 1588TIP3    H128959   3.774   3.746  16.824 -0.7034 -1.5668  1.6083
 1588TIP3    H228960   3.713   3.703  16.693  0.2761  2.2242 -0.2419
 1589TIP3   OH228961   3.471   6.164  16.065 -0.1054  0.1494 -0.1570
 1589TIP3    H128962   3.474   6.140  16.158 -0.1336  0.3468 -0.1059
 1589TIP3    H228963   3.437   6.253  16.064 -1.0181 -0.1887 -0.4155
 1590TIP3   OH228964   5.053   2.027  17.353  0.5978  0.3604  0.2268
 1590TIP3    H128965   5.067   1.955  17.292 -1.0159  1.3295 -1.3782
 1590TIP3    H228966   4.997   2.088  17.306  1.8070  2.6423  1.5682
 1591TIP3   OH228967   3.884   6.740  16.823  0.0748 -0.4133  0.0350
 1591TIP3    H128968   3.959   6.688  16.797  2.1781  2.2464  0.3653
 1591TIP3    H228969   3.835   6.754  16.742  0.7454 -0.9751 -0.4748
 1592TIP3   OH228970   1.061   5.983  15.139  0.5719  0.6864 -0.2326
 1592TIP3    H128971   1.142   5.933  15.148  1.5241  2.3946  1.1999
 1592TIP3    H228972   1.087   6.065  15.099 -0.6527  0.8260 -0.7871
 1593TIP3   OH228973   3.972   4.815  15.522  0.3624 -0.0834  0.0800
 1593TIP3    H128974   3.947   4.847  15.435  0.8849  0.6386  0.1807
 1593TIP3    H228975   4.037   4.878  15.553  0.0404 -0.2156  1.0813
 1594TIP3   OH228976   0.433   3.318  16.064  0.2276 -0.4103 -0.5308
 1594TIP3    H128977   0.382   3.399  16.063 -1.6510 -1.4909  1.0177
 1594TIP3    H228978   0.519   3.344  16.097 -0.0006  1.0872 -1.0251
 1595TIP3   OH228979   2.066   1.622  15.461  0.2078 -0.0897 -0.1203
 1595TIP3    H128980   1.994   1.685  15.459 -0.3814 -0.7459  0.0620
 1595TIP3    H228981   2.032   1.545  15.415  0.8081 -0.3955 -0.0672
 1596TIP3   OH228982   1.661   6.609  15.590 -0.1903 -0.4542 -0.1151
 1596TIP3    H128983   1.606   6.668  15.538 -0.1876  1.1156  1.6036
 1596TIP3    H228984   1.601   6.566  15.650  0.0154 -1.2601 -0.4560
 1597TIP3   OH228985   3.283   6.600  18.110  0.1599  0.1737 -0.0822
 1597TIP3    H128986   3.374   6.570  18.123  0.4564  1.1924  0.3065
 1597TIP3    H228987   3.261   6.573  18.021  0.9420  0.1430 -0.2748
 1598TIP3   OH228988   6.498   1.930  15.064 -0.3494 -0.2273  0.1595
 1598TIP3    H128989   6.555   1.867  15.109 -1.0403  0.7927  2.6300
 1598TIP3    H228990   6.417   1.881  15.048 -0.4808 -0.3185  1.0387
 1599TIP3   OH228991   2.899   5.647  15.760 -1.0642 -0.3918  0.4959
 1599TIP3    H128992   2.940   5.645  15.673 -0.3530 -3.7105  0.7614
 1599TIP3    H228993   2.955   5.704  15.812  0.5187 -1.0647 -0.4038
 1600TIP3   OH228994   4.055   6.692  16.572  0.0866  0.0539  0.4403
 1600TIP3    H128995   4.116   6.687  16.498 -0.2015  1.9290  0.0033
 1600TIP3    H228996   4.108   6.723  16.645 -0.2700  1.6807  0.0619
 1601TIP3   OH228997   4.004   3.032  16.129 -0.0193 -0.0908 -0.4572
 1601TIP3    H128998   3.991   3.021  16.035 -0.2595 -0.3601 -0.3926
 1601TIP3    H228999   3.916   3.049  16.164  0.0526 -0.1123 -0.2644
 1602TIP3   OH229000   0.277   0.753  15.125 -0.3688  0.1982 -0.0927
 1602TIP3    H129001   0.200   0.797  15.162 -0.5794  0.4184 -0.7893
 1602TIP3    H229002   0.345   0.764  15.192 -1.2282 -0.9043  0.9996
 1603TIP3   OH229003   5.808   0.156  17.302 -0.1628 -0.0083 -0.0377
 1603TIP3    H129004   5.837   0.170  17.392 -1.0059  0.6109  0.1533
 1603TIP3    H229005   5.781   0.064  17.300 -0.7412  0.1372  0.5303
 1604TIP3   OH229006   4.058   2.280  15.928  1.1339 -0.8091 -0.3796
 1604TIP3    H129007   4.022   2.213  15.987  0.0186 -0.7453 -0.9543
 1604TIP3    H229008   4.022   2.257  15.842  0.9672  0.3629 -0.6349
 1605TIP3   OH229009   3.498   0.689  16.877  0.2579 -0.3263 -0.0109
 1605TIP3    H129010   3.427   0.754  16.880 -1.2327 -1.9002  1.1413
 1605TIP3    H229011   3.495   0.654  16.788  1.2322  1.2791 -0.7197
 1606TIP3   OH229012   2.497   2.393  17.298 -0.0597 -0.4221  0.3730
 1606TIP3    H129013   2.417   2.372  17.347  0.9958 -1.6145  1.6838
 1606TIP3    H229014   2.494   2.488  17.287 -1.2743 -0.3493  1.0598
 1607TIP3   OH229015   0.130   0.347  16.846  0.3439 -0.1213  0.4092
 1607TIP3    H129016   0.213   0.319  16.809  0.1062  0.3658 -0.5285
 1607TIP3    H229017   0.077   0.371  16.770 -0.1938  0.8086  1.0571
 1608TIP3   OH229018   0.058   2.065  15.322 -0.0703 -0.2490  0.3198
 1608TIP3    H129019   0.082   2.137  15.262 -1.5425  0.1577  0.1858
 1608TIP3    H229020  -0.034   2.080  15.341 -0.8743 -3.0094 -0.9618
 1609TIP3   OH229021   1.699   2.303  15.400 -0.0874 -0.2736  0.2278
 1609TIP3    H129022   1.745   2.219  15.399 -0.7329 -0.6591 -1.7094
 1609TIP3    H229023   1.671   2.315  15.309  0.1257  2.1307  0.4373
 1610TIP3   OH229024   0.216   1.019  17.913 -0.2338  0.0974 -0.5777
 1610TIP3    H129025   0.308   1.048  17.916 -0.1920 -0.0863  0.3320
 1610TIP3    H229026   0.221   0.928  17.884 -0.0120 -0.3026  0.6555
 1611TIP3   OH229027   6.409   1.683  17.253 -0.0101  0.3800  0.3040
 1611TIP3    H129028   6.331   1.638  17.220 -1.2264  0.3999  2.9059
 1611TIP3    H229029   6.392   1.776  17.235 -1.6362  0.6136  2.6488
 1612TIP3   OH229030   2.743   4.048  15.688  0.3174  0.2773 -0.2991
 1612TIP3    H129031   2.707   3.966  15.655 -1.4220  0.5217  0.8886
 1612TIP3    H229032   2.753   4.035  15.782 -0.7114  1.6366  0.0384
 1613TIP3   OH229033   0.793   0.473  17.179 -0.0608 -0.0727 -0.3909
 1613TIP3    H129034   0.766   0.558  17.211  1.9028  1.3101 -2.1513
 1613TIP3    H229035   0.884   0.464  17.205 -0.0869 -1.4438 -0.6465
 1614TIP3   OH229036   5.489   2.934  16.150 -0.3497  0.2358  0.2647
 1614TIP3    H129037   5.410   2.917  16.202 -1.3371  1.2945 -0.8319
 1614TIP3    H229038   5.550   2.975  16.212 -0.7281 -0.3529  1.0600
 1615TIP3   OH229039   2.465   6.139  15.309  0.2363 -0.3504  0.2112
 1615TIP3    H129040   2.552   6.119  15.273 -0.6800  1.5531 -3.6512
 1615TIP3    H229041   2.408   6.072  15.270 -0.5317  0.6618 -0.4555
 1616TIP3   OH229042   0.657   4.247  14.851 -0.1945  0.2105 -0.7380
 1616TIP3    H129043   0.735   4.301  14.846 -0.2423  0.3354 -0.2128
 1616TIP3    H229044   0.585   4.306  14.829 -0.0921 -0.0500 -1.8247
 1617TIP3   OH229045   3.325   2.712  15.895  0.0847  0.0902 -0.0106
 1617TIP3    H129046   3.372   2.781  15.941  1.4859  0.1434 -1.4056
 1617TIP3    H229047   3.353   2.631  15.939 -1.1636  0.3285  1.2948
 1618TIP3   OH229048   6.048   2.801  15.844 -0.6619 -0.4204 -0.4440
 1618TIP3    H129049   6.093   2.751  15.776 -1.3099 -1.7915  0.0954
 1618TIP3    H229050   5.987   2.858  15.797  0.4568  0.2908 -1.0942
 1619TIP3   OH229051   0.763   0.243  15.705 -0.0279 -0.5821 -0.3820
 1619TIP3    H129052   0.844   0.245  15.654  0.3430  1.2668  0.2214
 1619TIP3    H229053   0.766   0.158  15.750  1.7610 -0.4185 -0.0940
 1620TIP3   OH229054   1.763   2.855  17.623  0.3593  0.0843  0.3866
 1620TIP3    H129055   1.716   2.772  17.614  0.0182  0.4231 -1.2324
 1620TIP3    H229056   1.836   2.835  17.682 -0.1754 -1.1484  0.6599
 1621TIP3   OH229057   5.635   0.615  16.223 -0.2748 -0.3552 -0.4049
 1621TIP3    H129058   5.724   0.581  16.235 -0.6686 -1.0076  0.7671
 1621TIP3    H229059   5.579   0.550  16.264 -1.2386  0.5072 -0.3289
 1622TIP3   OH229060   6.072   5.776  16.801 -0.4022  0.2516 -0.1986
 1622TIP3    H129061   6.077   5.710  16.870 -0.2830  0.4125 -0.0508
 1622TIP3    H229062   5.987   5.818  16.815 -0.7245 -0.2496 -0.6428
 1623TIP3   OH229063   5.918   5.905  17.400  0.6846  0.3901 -0.2680
 1623TIP3    H129064   5.987   5.935  17.459  1.7963  1.5441 -2.0364
 1623TIP3    H229065   5.944   5.815  17.377  1.7306  0.8545 -1.0121
 1624TIP3   OH229066   0.889   3.601  15.759 -0.1421  0.6114 -0.0301
 1624TIP3    H129067   0.873   3.587  15.853 -0.5012  2.3013  0.1874
 1624TIP3    H229068   0.973   3.646  15.756 -0.1988  0.6818 -0.5221
 1625TIP3   OH229069   4.407   2.093  16.855 -0.0206 -0.6884  0.2437
 1625TIP3    H129070   4.414   2.001  16.829 -1.1193 -0.4629 -0.9415
 1625TIP3    H229071   4.313   2.109  16.861  0.1121  0.6861 -0.8664
 1626TIP3   OH229072   0.783   3.991  14.841  0.4680  0.6207 -0.1085
 1626TIP3    H129073   0.873   4.023  14.831  0.4285  0.2353 -2.1325
 1626TIP3    H229074   0.728   4.069  14.834  0.6002  0.7840  0.5729
 1627TIP3   OH229075   3.922   5.244  16.565  0.6683 -0.2194 -0.3940
 1627TIP3    H129076   4.010   5.252  16.604  0.3537 -0.1097  0.3069
 1627TIP3    H229077   3.939   5.226  16.473  1.4347 -0.3503 -0.2403
 1628TIP3   OH229078   6.263   5.641  15.840  0.0505  0.6086 -0.0038
 1628TIP3    H129079   6.169   5.623  15.841  0.2471 -1.0242  3.4837
 1628TIP3    H229080   6.275   5.708  15.907  1.3353  1.1873 -0.7840
 1629TIP3   OH229081   3.194   2.580  17.799 -0.4373  0.0640  0.2042
 1629TIP3    H129082   3.145   2.512  17.846  1.2518 -1.8905 -0.6927
 1629TIP3    H229083   3.259   2.611  17.861  0.1019 -0.6345  0.0005
 1630TIP3   OH229084   1.876   3.352  15.900  0.4379 -0.3314 -0.4777
 1630TIP3    H129085   1.824   3.334  15.821 -0.1110  0.5426 -0.3311
 1630TIP3    H229086   1.967   3.347  15.870  0.2396 -0.1023 -1.1455
 1631TIP3   OH229087   5.187   4.161  15.913  0.3879  0.1973  0.1052
 1631TIP3    H129088   5.095   4.181  15.899  0.7205  0.7346 -1.4941
 1631TIP3    H229089   5.223   4.240  15.954 -0.2675 -0.8196  2.8667
 1632TIP3   OH229090   6.548   5.164  15.134 -0.0568  0.2719  0.1347
 1632TIP3    H129091   6.466   5.175  15.084  1.4070 -0.9399 -2.7769
 1632TIP3    H229092   6.573   5.253  15.157 -0.7818  0.9426 -1.4596
 1633TIP3   OH229093   4.774   5.306  17.276 -0.2574 -0.2923 -0.5605
 1633TIP3    H129094   4.744   5.390  17.313  1.2683 -0.4550  1.1995
 1633TIP3    H229095   4.863   5.297  17.309  0.3682 -1.6153 -2.4955
 1634TIP3   OH229096   6.001   4.223  15.330 -0.0016 -0.1606  0.0611
 1634TIP3    H129097   6.091   4.190  15.333 -0.1021 -0.4810 -0.2652
 1634TIP3    H229098   5.971   4.201  15.241  0.7536  3.0578 -1.1208
 1635TIP3   OH229099   6.585   1.269  17.300  0.0398  0.7641  0.1050
 1635TIP3    H129100   6.587   1.354  17.257 -1.0664  0.5608 -0.3747
 1635TIP3    H229101   6.539   1.211  17.239 -0.5268  0.1876  1.0452
 1636TIP3   OH229102   2.018   1.126  16.805 -0.2356  0.2100 -0.5861
 1636TIP3    H129103   1.976   1.063  16.746 -0.8164  0.2711 -0.2423
 1636TIP3    H229104   1.946   1.168  16.852  0.2102  0.1760  0.1560
 1637TIP3   OH229105   4.406   1.745  17.505  0.1920  0.3040  0.0366
 1637TIP3    H129106   4.492   1.786  17.513 -1.3873  3.7742  1.4979
 1637TIP3    H229107   4.390   1.742  17.411  1.3242  0.9916 -0.1993
 1638TIP3   OH229108   6.175   6.694  16.892  0.4458  0.5051  0.2341
 1638TIP3    H129109   6.203   6.754  16.823  0.6680  0.8858  0.6510
 1638TIP3    H229110   6.183   6.607  16.852  1.9824  0.6117  0.2365
 1639TIP3   OH229111   2.825   5.372  17.206 -0.3265 -0.6913  0.2437
 1639TIP3    H129112   2.890   5.367  17.136 -1.2967 -0.6620 -0.6886
 1639TIP3    H229113   2.782   5.287  17.204 -0.9973 -0.3581  0.1599
 1640TIP3   OH229114   0.321   5.815  14.724 -0.5870  0.3432 -0.3978
 1640TIP3    H129115   0.381   5.875  14.768 -2.5734  2.2660 -0.1172
 1640TIP3    H229116   0.372   5.736  14.708  1.5652  1.3622  1.0729
 1641TIP3   OH229117   2.445   2.911  16.309 -0.0586 -0.3612 -0.0588
 1641TIP3    H129118   2.494   2.955  16.379  0.0922  1.2547 -1.1346
 1641TIP3    H229119   2.355   2.907  16.342  0.3648 -1.3864  1.0221
 1642TIP3   OH229120   5.144   2.295  17.619  0.0124 -0.4616  0.0661
 1642TIP3    H129121   5.138   2.227  17.552  1.8494 -0.2871 -0.3160
 1642TIP3    H229122   5.234   2.290  17.651 -0.4742  0.2768  1.6691
 1643TIP3   OH229123   2.523   1.297  17.534  0.7732 -0.2285 -0.1601
 1643TIP3    H129124   2.554   1.207  17.543  4.4797  0.7373 -1.3756
 1643TIP3    H229125   2.527   1.333  17.623  1.0582 -0.7473  0.0402
 1644TIP3   OH229126   3.821   2.978  17.725  0.0258  0.2985 -0.7192
 1644TIP3    H129127   3.912   2.962  17.698  0.1151  0.4086 -0.4873
 1644TIP3    H229128   3.772   2.984  17.643  0.1650 -0.1333 -0.8419
 1645TIP3   OH229129   4.181   1.651  17.048  0.0250 -0.3852  0.2340
 1645TIP3    H129130   4.088   1.627  17.047  0.1094 -0.7442 -1.2981
 1645TIP3    H229131   4.227   1.567  17.055  0.2516 -0.1978  1.1374
 1646TIP3   OH229132   2.690   6.013  15.233 -0.7971  0.0899 -0.4157
 1646TIP3    H129133   2.761   6.050  15.180  1.5212 -1.1901  1.5991
 1646TIP3    H229134   2.655   5.942  15.181  1.2416 -0.9644 -0.4454
 1647TIP3   OH229135   2.638   4.005  16.179  0.0389 -0.0583 -0.2405
 1647TIP3    H129136   2.618   3.921  16.221 -0.2577 -0.2699 -0.7902
 1647TIP3    H229137   2.692   4.051  16.243 -1.7565  0.3072  1.1100
 1648TIP3   OH229138   4.654   5.246  15.235 -0.2488 -0.2673  0.5270
 1648TIP3    H129139   4.635   5.236  15.142  0.1025 -1.2768  0.5514
 1648TIP3    H229140   4.601   5.321  15.263 -0.2864  0.1051 -0.4988
 1649TIP3   OH229141   4.528   2.751  15.943 -0.4531 -0.1361 -0.2610
 1649TIP3    H129142   4.518   2.702  15.862  0.5163 -2.5819  1.0036
 1649TIP3    H229143   4.620   2.742  15.966 -0.8417 -0.1304  1.4731
 1650TIP3   OH229144   2.085   1.911  17.117  0.5000 -0.3746  0.1913
 1650TIP3    H129145   2.060   1.901  17.209  0.9610 -0.1127  0.3442
 1650TIP3    H229146   2.176   1.941  17.119  0.3185  0.2368 -0.3350
 1651TIP3   OH229147   6.255   5.703  17.199 -0.0876 -0.5342 -0.0623
 1651TIP3    H129148   6.332   5.647  17.197  1.5876  1.6347 -1.7659
 1651TIP3    H229149   6.226   5.701  17.290  2.5632 -0.7062  0.8641
 1652TIP3   OH229150   2.808   0.074  16.208  0.1031 -0.1210  0.8693
 1652TIP3    H129151   2.819   0.093  16.114  3.2114 -1.5062  0.8264
 1652TIP3    H229152   2.788   0.159  16.247  1.3362  0.9826 -0.7576
 1653TIP3   OH229153   1.192   1.470  17.671  0.5761 -0.0336  0.3353
 1653TIP3    H129154   1.285   1.464  17.690  0.7429 -0.4356 -0.5250
 1653TIP3    H229155   1.154   1.390  17.708  0.5379  0.2082  0.8270
 1654TIP3   OH229156   2.160   0.577  17.881  0.2715 -0.6912 -0.1847
 1654TIP3    H129157   2.212   0.600  17.804  0.4258  1.7525  0.5716
 1654TIP3    H229158   2.224   0.542  17.943  0.6239 -0.0543 -0.1774
 1655TIP3   OH229159   3.859   1.254  14.720  0.1437  0.2275  0.1446
 1655TIP3    H129160   3.767   1.248  14.745 -0.2929  1.4736 -1.0353
 1655TIP3    H229161   3.888   1.163  14.712 -0.3601 -0.2163  2.5448
 1656TIP3   OH229162   5.787   2.021  15.452 -0.0970  0.0342  0.0089
 1656TIP3    H129163   5.735   2.069  15.518  0.5098 -0.8480  1.1569
 1656TIP3    H229164   5.877   2.046  15.470  0.3138 -2.0594  1.1172
 1657TIP3   OH229165   1.251   0.573  15.811  0.0416  0.3285  0.4456
 1657TIP3    H129166   1.227   0.559  15.902  1.1424  0.4864  0.7739
 1657TIP3    H229167   1.189   0.520  15.761  1.3337 -2.2476  1.4387
 1658TIP3   OH229168   0.692   2.442  15.622  0.2983 -0.3429  0.0465
 1658TIP3    H129169   0.629   2.493  15.673  0.3559 -0.3994  0.1742
 1658TIP3    H229170   0.686   2.478  15.533  0.2344 -0.2104  0.1038
 1659TIP3   OH229171   6.141   2.554  15.202 -0.2641  1.0151 -0.0259
 1659TIP3    H129172   6.170   2.634  15.160  1.7031 -0.0914 -0.8768
 1659TIP3    H229173   6.116   2.496  15.130 -1.5249  0.7789  0.5671
 1660TIP3   OH229174   3.775   4.955  17.690 -0.2333 -0.2341  0.1334
 1660TIP3    H129175   3.859   4.918  17.714 -1.1449 -1.9287  0.9014
 1660TIP3    H229176   3.755   5.018  17.759 -0.0174 -0.5083  0.4449
 1661TIP3   OH229177   2.541   5.123  17.395 -0.6139  0.0299 -0.3482
 1661TIP3    H129178   2.635   5.112  17.411 -0.8730 -0.3396  1.0936
 1661TIP3    H229179   2.535   5.140  17.301  0.8824 -0.0434 -0.4955
 1662TIP3   OH229180   4.921   1.302  17.940 -0.6776  0.3511 -0.5978
 1662TIP3    H129181   4.985   1.370  17.924 -0.2574  0.6627  1.9397
 1662TIP3    H229182   4.838   1.339  17.909  0.0043  0.7959 -1.9405
 1663TIP3   OH229183   0.716   5.269  17.616  0.4601 -0.0364  0.1515
 1663TIP3    H129184   0.641   5.268  17.557 -0.2895 -2.2515  1.0514
 1663TIP3    H229185   0.792   5.254  17.559  0.3951  2.8179 -0.8483
 1664TIP3   OH229186   2.869   6.671  15.700 -0.1302 -0.0225  0.3997
 1664TIP3    H129187   2.790   6.642  15.745  0.2509  0.1400  1.2083
 1664TIP3    H229188   2.841   6.746  15.647 -0.2625  0.9404  1.7753
 1665TIP3   OH229189   6.558   5.321  15.543  0.5838  0.6316 -0.3734
 1665TIP3    H129190   6.581   5.362  15.460  0.3723  2.7473  0.5454
 1665TIP3    H229191   6.503   5.386  15.588  0.8266 -0.3720  1.4907
 1666TIP3   OH229192   2.184   6.604  15.548  0.4020  0.0754 -0.0423
 1666TIP3    H129193   2.122   6.604  15.621 -1.2983  0.9433 -1.4210
 1666TIP3    H229194   2.161   6.526  15.497  0.6986  0.1813 -0.3445
 1667TIP3   OH229195   1.115   6.043  17.294 -0.2208 -0.6627  0.6451
 1667TIP3    H129196   1.207   6.028  17.270 -0.0702 -0.8570  1.3199
 1667TIP3    H229197   1.078   6.089  17.219 -0.3444 -3.2159 -0.9902
 1668TIP3   OH229198   6.598   3.094  16.019  0.2394  0.1402 -0.2716
 1668TIP3    H129199   6.654   3.077  15.942  2.7207  0.1400  1.4091
 1668TIP3    H229200   6.582   3.188  16.015 -2.7899 -0.3235 -2.6796
 1669TIP3   OH229201   2.997   6.252  17.513 -0.4182 -0.0454  0.2398
 1669TIP3    H129202   3.064   6.251  17.581  0.2883  1.6216 -0.3847
 1669TIP3    H229203   2.914   6.258  17.560  0.0824  1.6054  0.9747
 1670TIP3   OH229204   3.491   2.038  16.176  0.2505 -0.0335  0.3972
 1670TIP3    H129205   3.462   2.124  16.206  0.2307 -0.3189  1.2014
 1670TIP3    H229206   3.576   2.025  16.217  1.0951  0.3536 -1.1379
 1671TIP3   OH229207   0.938   4.672  17.671 -0.0492  0.6405 -0.4298
 1671TIP3    H129208   1.023   4.671  17.627 -0.2941 -0.5464 -0.9265
 1671TIP3    H229209   0.959   4.671  17.764  0.5649 -2.0772 -0.5061
 1672TIP3   OH229210   3.758   4.467  14.523  0.1144 -0.0144  0.4465
 1672TIP3    H129211   3.694   4.444  14.455  0.6354 -1.7021  0.4901
 1672TIP3    H229212   3.705   4.498  14.596 -0.5742 -0.1733  0.0239
 1673TIP3   OH229213   5.874   5.739  16.079  0.0814  0.6615  0.1851
 1673TIP3    H129214   5.847   5.831  16.074 -0.0975  0.7357  2.0196
 1673TIP3    H229215   5.792   5.690  16.075  0.0800  0.6437  0.4081
 1674TIP3   OH229216   2.597   4.677  15.229 -0.5199 -0.3350  0.2605
 1674TIP3    H129217   2.691   4.691  15.243 -0.5262 -0.3818  0.3520
 1674TIP3    H229218   2.576   4.730  15.153 -0.7294  0.8218  1.1023
 1675TIP3   OH229219   0.739   2.392  15.325 -0.1740  0.4418 -0.7560
 1675TIP3    H129220   0.808   2.345  15.278  1.2067  0.5571  1.0436
 1675TIP3    H229221   0.756   2.485  15.307  1.0982  0.5577  0.8501
 1676TIP3   OH229222   2.019   5.646  16.574  0.2228  0.4593 -0.3241
 1676TIP3    H129223   2.020   5.558  16.612 -1.4297  1.8354  3.5292
 1676TIP3    H229224   1.967   5.638  16.494 -0.0095 -2.0302  0.0071
 1677TIP3   OH229225   1.176   0.672  15.229 -0.1537  0.6062 -0.1304
 1677TIP3    H129226   1.210   0.691  15.142  0.1268  0.8451  0.0287
 1677TIP3    H229227   1.164   0.758  15.270  3.6706  0.5476  1.5829
 1678TIP3   OH229228   5.769   0.173  15.748 -0.7026  0.1212 -0.3374
 1678TIP3    H129229   5.803   0.182  15.837 -1.4474 -1.7121  0.1856
 1678TIP3    H229230   5.837   0.211  15.692  1.0057 -1.0605  0.8439
 1679TIP3   OH229231   2.667   1.069  17.492  0.3465  0.3557 -0.4690
 1679TIP3    H129232   2.682   1.100  17.403 -0.7520  0.5589 -0.5905
 1679TIP3    H229233   2.707   0.982  17.494 -1.4019 -0.5273 -1.7884
 1680TIP3   OH229234   1.729   4.679  16.436 -0.4424 -0.2103 -0.4835
 1680TIP3    H129235   1.718   4.600  16.384  1.4259 -1.5115  0.9918
 1680TIP3    H229236   1.673   4.665  16.512  0.8264 -0.7218  0.3869
 1681TIP3   OH229237   5.337   5.490  16.865  0.1947 -0.0467 -0.2527
 1681TIP3    H129238   5.258   5.461  16.909  0.1791 -0.1261 -0.3328
 1681TIP3    H229239   5.408   5.460  16.922  0.1286  1.1014  0.4646
 1682TIP3   OH229240   2.058   1.292  17.799  0.1346  0.0869  0.3866
 1682TIP3    H129241   2.057   1.311  17.705  3.1645 -0.4850  0.1430
 1682TIP3    H229242   2.058   1.378  17.841 -0.2308  0.3579 -0.1484
 1683TIP3   OH229243   3.730   1.794  17.584  0.0675  0.1526  0.5871
 1683TIP3    H129244   3.745   1.859  17.516 -1.2228 -1.0654 -0.9548
 1683TIP3    H229245   3.636   1.775  17.578  0.2184 -1.0768  1.7028
 1684TIP3   OH229246   4.219   3.219  15.951  0.0040  0.2112  0.1348
 1684TIP3    H129247   4.279   3.287  15.922 -0.6189  0.1289 -1.4062
 1684TIP3    H229248   4.257   3.137  15.918  0.0284 -0.0530  0.7937
 1685TIP3   OH229249   1.460   0.791  16.043 -0.1839  0.4676 -0.1768
 1685TIP3    H129250   1.511   0.729  15.991 -0.4686  0.7329 -0.7856
 1685TIP3    H229251   1.469   0.875  15.997 -1.2009  0.5101 -0.3341
 1686TIP3   OH229252   2.860   1.805  15.822  0.2189  0.1972 -0.2906
 1686TIP3    H129253   2.826   1.739  15.883 -1.3460  1.6308  0.4543
 1686TIP3    H229254   2.782   1.847  15.785  1.1393  0.0654 -2.5667
 1687TIP3   OH229255   0.298   2.451  16.348  0.2903  0.1798  0.1857
 1687TIP3    H129256   0.219   2.493  16.312  0.6463 -0.0499 -0.9087
 1687TIP3    H229257   0.351   2.525  16.379 -0.0872  0.3773  0.3737
 1688TIP3   OH229258   4.655   5.626  15.563 -0.5184  0.6229 -0.2438
 1688TIP3    H129259   4.567   5.594  15.544 -0.8376  2.3592 -1.9218
 1688TIP3    H229260   4.650   5.721  15.548  0.7673  1.3344  3.0167
 1689TIP3   OH229261   2.726   4.052  17.143  0.2671  0.1603  0.5928
 1689TIP3    H129262   2.782   4.097  17.080  1.8037 -2.7032 -0.2452
 1689TIP3    H229263   2.637   4.077  17.118  0.9895  2.2112 -0.1342
 1690TIP3   OH229264   3.523   6.595  15.142  0.2411  0.2063 -0.5931
 1690TIP3    H129265   3.503   6.559  15.055 -2.2600 -0.7538  0.2553
 1690TIP3    H229266   3.445   6.646  15.165  0.2708 -0.6000  1.5591
 1691TIP3   OH229267   4.120   1.888  14.703  0.4788 -0.5341 -0.1123
 1691TIP3    H129268   4.083   1.972  14.732  0.3241 -0.3805 -0.7456
 1691TIP3    H229269   4.215   1.902  14.706  0.4988  0.6431 -2.8808
 1692TIP3   OH229270   3.190   3.569  16.800 -0.1491 -0.1464  0.4656
 1692TIP3    H129271   3.268   3.573  16.855 -1.6968 -0.5916  2.8632
 1692TIP3    H229272   3.184   3.478  16.772  0.9605  0.2021 -1.0219
 1693TIP3   OH229273   4.310   3.021  17.380  0.3934 -0.1063  0.4021
 1693TIP3    H129274   4.346   2.957  17.318 -0.1070  0.7618 -0.8341
 1693TIP3    H229275   4.387   3.068  17.413  0.5493  0.7847 -1.1391
 1694TIP3   OH229276   0.038   6.586  15.749 -0.5492  0.1751  0.2752
 1694TIP3    H129277   0.114   6.596  15.692  0.9983 -0.8119  2.0464
 1694TIP3    H229278  -0.030   6.641  15.709  1.3016  1.6680 -0.9848
 1695TIP3   OH229279   6.738   2.121  17.049 -0.6731 -0.3616 -0.1359
 1695TIP3    H129280   6.654   2.074  17.050 -0.6245 -0.4639  1.4255
 1695TIP3    H229281   6.759   2.135  17.141  0.7208  0.2398 -0.5156
 1696TIP3   OH229282   3.050   5.310  17.051  0.0176 -0.2562 -0.0470
 1696TIP3    H129283   3.063   5.262  17.132 -1.2126 -2.5049 -1.0932
 1696TIP3    H229284   3.110   5.385  17.057  1.4327 -1.4642  2.0097
 1697TIP3   OH229285   2.854   6.394  17.296  0.2383  0.4395  0.0792
 1697TIP3    H129286   2.907   6.324  17.334 -2.6954 -1.0491  1.7097
 1697TIP3    H229287   2.905   6.474  17.313  2.3112 -0.9543  0.7691
 1698TIP3   OH229288   6.579   3.456  17.770  0.4827  0.7437  0.2976
 1698TIP3    H129289   6.609   3.480  17.858 -0.9669  0.1161  0.9978
 1698TIP3    H229290   6.619   3.371  17.753 -1.7906 -0.7096  1.7668
 1699TIP3   OH229291   4.728   1.829  15.741  0.0152  0.0922 -0.3664
 1699TIP3    H129292   4.737   1.855  15.832  0.8536  0.4598 -0.5450
 1699TIP3    H229293   4.817   1.833  15.706 -0.5336  1.7128 -1.6758
 1700TIP3   OH229294   0.797   6.229  17.232 -0.0097  0.1429 -1.0247
 1700TIP3    H129295   0.706   6.255  17.244 -0.2179 -1.0071  0.0758
 1700TIP3    H229296   0.846   6.311  17.234 -0.8558  0.6450 -0.0408
 1701TIP3   OH229297   1.702   3.013  16.576  0.4401 -0.5702  0.4145
 1701TIP3    H129298   1.671   3.080  16.516  0.5620  0.0188  0.9912
 1701TIP3    H229299   1.767   2.963  16.526 -1.7562 -2.1776 -0.9839
 1702TIP3   OH229300   4.359   5.105  16.996  0.1469 -0.3601  0.0383
 1702TIP3    H129301   4.290   5.078  16.935 -0.2721 -2.5510  1.3454
 1702TIP3    H229302   4.312   5.132  17.075  0.7220 -1.1987  0.6934
 1703TIP3   OH229303   2.945   6.430  16.510  0.0762 -0.1607 -0.1733
 1703TIP3    H129304   2.940   6.461  16.419  0.9627 -0.5392 -0.3596
 1703TIP3    H229305   3.037   6.408  16.523  0.2890  1.4086  1.3371
 1704TIP3   OH229306   1.991   0.067  16.018  0.1587 -0.2702 -0.1106
 1704TIP3    H129307   1.955   0.130  15.955 -0.9355  0.9472  1.6318
 1704TIP3    H229308   1.915   0.017  16.047  1.0397 -2.6221 -1.6030
 1705TIP3   OH229309   3.278   5.208  14.872  0.0595 -0.7695 -0.4669
 1705TIP3    H129310   3.209   5.142  14.879 -0.3076 -0.3392  0.0931
 1705TIP3    H229311   3.246   5.270  14.807 -0.1044 -0.5464 -0.1757
 1706TIP3   OH229312   3.722   2.517  17.709  0.9773 -0.2047 -0.4269
 1706TIP3    H129313   3.768   2.594  17.742 -1.2746  0.8902  0.3738
 1706TIP3    H229314   3.669   2.549  17.637 -1.3853 -0.5311  1.0616
 1707TIP3   OH229315   5.846   2.963  15.759  0.6078  0.9441 -0.5729
 1707TIP3    H129316   5.833   3.020  15.835  0.4895 -0.4949  0.5309
 1707TIP3    H229317   5.771   2.980  15.702  0.6015  1.9078 -0.2933
 1708TIP3   OH229318   2.377   1.806  17.338 -0.2116 -0.6701  0.4733
 1708TIP3    H129319   2.387   1.898  17.313 -0.5155 -0.8042 -0.1789
 1708TIP3    H229320   2.298   1.777  17.291 -2.6905 -0.1286  3.9639
 1709TIP3   OH229321   3.854   5.967  16.182  0.3024  0.7315  0.2981
 1709TIP3    H129322   3.759   5.961  16.187  0.3788 -1.5366  0.1473
 1709TIP3    H229323   3.875   5.940  16.093  1.1338 -0.6106  0.8551
 1710TIP3   OH229324   1.093   1.103  16.077  0.4178  0.1202  0.2545
 1710TIP3    H129325   1.083   1.074  15.986  0.0609 -0.6908  0.5500
 1710TIP3    H229326   1.030   1.051  16.127 -2.4676  3.3917  0.4382
 1711TIP3   OH229327   5.790   2.446  17.473  1.1230  0.6554  0.5363
 1711TIP3    H129328   5.745   2.361  17.468  1.4241  0.5549 -3.0471
 1711TIP3    H229329   5.722   2.510  17.455  1.6335  0.7714 -1.1789
 1712TIP3   OH229330   4.610   3.215  15.705 -0.5129  0.0641  0.5769
 1712TIP3    H129331   4.665   3.225  15.628 -0.1305  1.6095  1.0187
 1712TIP3    H229332   4.656   3.151  15.759 -0.0087  0.1019  0.2003
 1713TIP3   OH229333   1.217   3.528  16.874 -0.7769 -0.0789 -0.2246
 1713TIP3    H129334   1.196   3.618  16.897 -0.8887  0.1475 -1.1784
 1713TIP3    H229335   1.161   3.475  16.931 -0.5671  0.4416  0.4759
 1714TIP3   OH229336   2.705   4.855  16.172 -0.0479 -0.2202  0.2319
 1714TIP3    H129337   2.748   4.840  16.088 -1.0526 -0.9952 -0.1743
 1714TIP3    H229338   2.749   4.795  16.232  0.3393 -0.0284  0.1413
 1715TIP3   OH229339   6.272   5.932  16.696 -0.0103  0.4290 -0.4357
 1715TIP3    H129340   6.220   5.857  16.725  1.5078 -0.5605 -0.1037
 1715TIP3    H229341   6.362   5.906  16.716  0.6183  2.0078 -1.1099
 1716TIP3   OH229342   0.514   1.607  16.956  0.2445 -0.7288 -0.0746
 1716TIP3    H129343   0.426   1.644  16.958 -0.8170 -3.0785  1.3329
 1716TIP3    H229344   0.558   1.646  17.032  0.2852  0.0850 -0.5030
 1717TIP3   OH229345   5.523   2.036  15.288 -0.3550 -0.3205 -0.1202
 1717TIP3    H129346   5.615   2.041  15.317 -0.4783 -1.7781  0.5893
 1717TIP3    H229347   5.475   2.008  15.366 -1.3904  0.2219 -0.5408
 1718TIP3   OH229348   3.001   5.866  16.406  0.5051 -0.5031  0.6140
 1718TIP3    H129349   2.981   5.944  16.457 -0.5311 -0.6195  0.3944
 1718TIP3    H229350   3.082   5.832  16.446  0.3778  0.0742  1.3950
 1719TIP3   OH229351   1.236   2.580  15.196  0.0212  0.0522 -0.6122
 1719TIP3    H129352   1.278   2.508  15.244  0.0661 -0.5816 -1.5762
 1719TIP3    H229353   1.142   2.565  15.208  0.0200  1.1784  1.1174
 1720TIP3   OH229354   0.219   3.340  14.680 -0.1457 -0.3370 -0.0872
 1720TIP3    H129355   0.311   3.311  14.679 -0.0481 -0.2659  2.0851
 1720TIP3    H229356   0.224   3.435  14.688 -0.2998 -0.5025  2.9682
 1721TIP3   OH229357   3.657   1.464  17.091 -0.3394  0.6494 -0.1997
 1721TIP3    H129358   3.726   1.418  17.139 -0.4016  0.6116 -0.1474
 1721TIP3    H229359   3.607   1.395  17.048  0.3977  0.7438 -1.2555
 1722TIP3   OH229360   5.835   2.458  15.793 -0.2419  0.2553 -0.1511
 1722TIP3    H129361   5.868   2.416  15.873 -0.9655 -0.6392 -0.3032
 1722TIP3    H229362   5.810   2.546  15.822  1.8832  0.8502  0.0389
 1723TIP3   OH229363   0.193   4.632  16.640  0.0199 -0.2595 -0.2543
 1723TIP3    H129364   0.161   4.669  16.722 -1.2753 -0.4480 -0.6615
 1723TIP3    H229365   0.212   4.540  16.660 -0.9448 -0.4808 -0.3246
 1724TIP3   OH229366   2.348   6.277  17.358 -0.3349 -0.4260  0.6219
 1724TIP3    H129367   2.428   6.263  17.408 -1.0617  0.0553  1.9491
 1724TIP3    H229368   2.363   6.229  17.276  2.4622  1.9097 -0.4167
 1725TIP3   OH229369   4.770   1.670  14.091  0.0898  0.0541 -0.2168
 1725TIP3    H129370   4.761   1.759  14.057  0.0988  0.0706 -0.1757
 1725TIP3    H229371   4.697   1.622  14.052 -0.4635  0.3022  0.4959
 1726TIP3   OH229372   0.672   1.818  14.255 -0.6414 -0.3715  0.4349
 1726TIP3    H129373   0.729   1.877  14.204 -0.4294 -0.5285  0.4893
 1726TIP3    H229374   0.602   1.875  14.287 -0.0479  0.0137  1.0975
 1727TIP3   OH229375   0.849   1.793  16.881  0.1867 -0.0048  0.1518
 1727TIP3    H129376   0.825   1.723  16.821  1.0775 -0.3881  0.2324
 1727TIP3    H229377   0.895   1.749  16.952  2.5512  0.8452 -0.7643
 1728TIP3   OH229378   5.357   2.274  17.148  0.2388 -0.1572  0.4741
 1728TIP3    H129379   5.340   2.212  17.077 -2.0020 -0.8332  1.5268
 1728TIP3    H229380   5.443   2.311  17.127  0.7127 -2.0844 -1.2883
 1729TIP3   OH229381   3.923   5.849  18.017 -0.3329 -1.1513 -0.8470
 1729TIP3    H129382   3.878   5.926  17.984  0.2022 -0.0998  0.7355
 1729TIP3    H229383   3.889   5.837  18.106  0.9475 -1.5798 -0.3768
 1730TIP3   OH229384   2.240   0.534  16.924 -0.3048 -0.2247 -0.0081
 1730TIP3    H129385   2.217   0.461  16.867  0.7018 -0.4231 -0.1869
 1730TIP3    H229386   2.244   0.610  16.866 -0.9553 -0.1007  0.1054
 1731TIP3   OH229387   3.031   2.448  16.438 -0.0668 -0.3516  0.2771
 1731TIP3    H129388   2.975   2.427  16.512  0.5795  0.2418  0.9411
 1731TIP3    H229389   3.008   2.383  16.371 -0.4165 -1.0931  1.1076
 1732TIP3   OH229390   2.083   6.581  17.697 -0.0041  0.0877  0.5988
 1732TIP3    H129391   2.122   6.519  17.636 -1.0855 -1.6649  1.5852
 1732TIP3    H229392   2.140   6.579  17.774  0.7750  1.4785  0.0738
 1733TIP3   OH229393   0.266   0.130  15.609 -0.0331 -0.2034  0.0762
 1733TIP3    H129394   0.183   0.172  15.630  0.1953  0.0390  0.5202
 1733TIP3    H229395   0.332   0.198  15.625  0.2060 -0.2124 -0.8264
 1734TIP3   OH229396   1.546   2.926  16.342  0.4899  0.4309  0.3032
 1734TIP3    H129397   1.580   2.866  16.408  1.1624 -0.9523 -1.2008
 1734TIP3    H229398   1.619   2.940  16.282 -0.9056 -1.0309 -1.9207
 1735TIP3   OH229399   4.881   6.459  16.426 -0.6296 -0.2110 -0.6539
 1735TIP3    H129400   4.972   6.480  16.447 -0.7154 -0.7681  0.3412
 1735TIP3    H229401   4.852   6.532  16.372 -0.0310  0.7357  0.2501
 1736TIP3   OH229402   5.982   4.751  17.947  0.6227 -0.1294 -0.7271
 1736TIP3    H129403   6.010   4.840  17.925 -0.4882  0.5582  0.5125
 1736TIP3    H229404   5.892   4.761  17.977  0.6166 -1.6203 -0.1654
 1737TIP3   OH229405   1.242   2.446  16.000  0.7029 -0.3915 -0.3240
 1737TIP3    H129406   1.314   2.461  16.061 -0.5930 -0.0695  1.1857
 1737TIP3    H229407   1.197   2.531  15.995 -0.1508 -0.8425 -0.4794
 1738TIP3   OH229408   6.117   4.183  17.359  0.3615 -0.1992 -0.1459
 1738TIP3    H129409   6.158   4.267  17.377  1.9456 -1.0824  0.5703
 1738TIP3    H229410   6.158   4.153  17.278  1.1310 -1.0597  0.5411
 1739TIP3   OH229411   3.641   6.088  14.334  0.6411 -0.1930  0.4341
 1739TIP3    H129412   3.727   6.129  14.342  1.0344 -0.0364 -3.0571
 1739TIP3    H229413   3.656   5.996  14.352  1.9960 -0.4679 -1.6851
 1740TIP3   OH229414   3.194   5.552  16.329 -0.3319 -0.4718 -0.2628
 1740TIP3    H129415   3.122   5.489  16.339 -1.6430  1.0137  0.1477
 1740TIP3    H229416   3.198   5.596  16.414  1.4858 -0.9075 -0.0841
 1741TIP3   OH229417   6.381   4.124  17.849 -0.2923 -0.3664 -0.1228
 1741TIP3    H129418   6.424   4.101  17.766  0.0924 -1.1349  0.2781
 1741TIP3    H229419   6.363   4.040  17.891 -1.2340 -0.0099  0.2085
 1742TIP3   OH229420   3.257   0.793  17.467 -0.0942 -0.0403  0.1445
 1742TIP3    H129421   3.253   0.718  17.407 -1.6609  0.8722 -0.9657
 1742TIP3    H229422   3.177   0.787  17.518  0.1043  0.5022  0.5257
 1743TIP3   OH229423   6.397   4.806  15.176 -0.3410 -0.1042 -0.0047
 1743TIP3    H129424   6.379   4.715  15.154  0.2009 -0.1437 -0.3132
 1743TIP3    H229425   6.486   4.821  15.143 -0.6099  0.6776 -0.4082
 1744TIP3   OH229426   1.921   5.415  16.962  0.0602 -0.1008 -0.3674
 1744TIP3    H129427   1.887   5.329  16.940  1.3199 -0.6595 -0.2033
 1744TIP3    H229428   1.857   5.452  17.023  0.8878 -2.1083  1.9000
 1745TIP3   OH229429   0.654   1.348  16.139  0.4371  0.0563 -0.1015
 1745TIP3    H129430   0.637   1.289  16.212 -0.6151 -2.5259 -2.2706
 1745TIP3    H229431   0.588   1.417  16.147 -0.2038 -0.6533  0.8799
 1746TIP3   OH229432   2.596   2.089  17.124  0.1827  0.6897  0.1043
 1746TIP3    H129433   2.613   2.114  17.033  2.8359 -1.0159  0.0305
 1746TIP3    H229434   2.660   2.138  17.175  0.6042 -0.4403  0.7071
 1747TIP3   OH229435   2.356   5.438  16.138  0.1527  0.7887  0.2015
 1747TIP3    H129436   2.361   5.432  16.043 -0.2243 -0.8453  0.2568
 1747TIP3    H229437   2.263   5.452  16.156 -0.5017 -2.7568  0.3973
 1748TIP3   OH229438   1.377   5.069  14.596 -0.0246  0.0072  0.4425
 1748TIP3    H129439   1.293   5.052  14.553 -0.4805  1.5324  0.6799
 1748TIP3    H229440   1.367   5.156  14.634  1.5401  0.0433  0.8170
 1749TIP3   OH229441   3.597   1.661  16.909 -0.2479 -0.3495  0.0814
 1749TIP3    H129442   3.626   1.623  16.992 -1.4708  0.8886  1.1261
 1749TIP3    H229443   3.521   1.714  16.932 -0.8714 -0.2881 -1.9134
 1750TIP3   OH229444   1.535   2.739  15.500  0.1789  0.2001 -0.3228
 1750TIP3    H129445   1.615   2.688  15.516 -0.7789 -1.6830 -1.1952
 1750TIP3    H229446   1.469   2.698  15.555 -0.8930 -0.2874 -1.8974
 1751TIP3   OH229447   5.229   2.636  16.643  0.6816  0.3949  0.0763
 1751TIP3    H129448   5.314   2.594  16.641  0.9948  0.9802 -1.8101
 1751TIP3    H229449   5.236   2.703  16.711  1.1290 -0.6481  1.0896
 1752TIP3   OH229450   2.574   4.161  18.153  0.7306 -0.1341  0.0742
 1752TIP3    H129451   2.631   4.181  18.079  0.1936 -2.5611 -1.0910
 1752TIP3    H229452   2.634   4.142  18.225  1.3229 -0.0264 -0.3852
 1753TIP3   OH229453   2.584   5.395  17.549  0.6783  0.8005 -0.3372
 1753TIP3    H129454   2.649   5.327  17.567  0.2563  0.5579  0.2927
 1753TIP3    H229455   2.546   5.370  17.465  1.4522  0.9896 -0.7503
 1754TIP3   OH229456   1.512   2.154  17.639  0.4459  0.6380 -0.4542
 1754TIP3    H129457   1.607   2.160  17.639  0.6303 -1.6684 -0.4068
 1754TIP3    H229458   1.492   2.064  17.664 -1.7388  0.8245 -1.2304
 1755TIP3   OH229459   6.081   0.088  16.398 -0.0764  0.2887 -0.0694
 1755TIP3    H129460   6.165   0.090  16.351  0.1716  0.1304  0.3585
 1755TIP3    H229461   6.015   0.099  16.329  0.2518 -0.5202 -0.5341
 1756TIP3   OH229462   1.702   5.247  17.680  0.2131 -0.6715  0.5007
 1756TIP3    H129463   1.670   5.272  17.767 -0.3096  0.8502 -0.0948
 1756TIP3    H229464   1.794   5.226  17.693  0.5730  1.1646  1.1564
 1757TIP3   OH229465   6.088   2.105  17.869  0.8382  0.0941  0.1530
 1757TIP3    H129466   6.061   2.120  17.779 -0.6581  0.1393  0.5792
 1757TIP3    H229467   6.139   2.024  17.865  1.9549  0.8209 -0.9183
 1758TIP3   OH229468   3.354   1.892  16.567  0.0900 -0.3136 -0.1788
 1758TIP3    H129469   3.280   1.848  16.609 -0.0920 -0.0056 -0.1637
 1758TIP3    H229470   3.359   1.854  16.479 -0.3864 -0.0149 -0.3454
 1759TIP3   OH229471   2.154   3.898  15.833  0.2328  0.3473 -0.6680
 1759TIP3    H129472   2.139   3.805  15.852  2.3463 -0.0410 -0.5671
 1759TIP3    H229473   2.089   3.944  15.886  1.4244 -0.9714  2.1669
 1760TIP3   OH229474   0.905   5.257  16.334  0.4800  0.1601  0.1853
 1760TIP3    H129475   0.879   5.189  16.272  0.6407 -1.6553  2.0012
 1760TIP3    H229476   0.999   5.268  16.320  0.3107  0.6248 -0.6570
 1761TIP3   OH229477   4.511   5.218  16.501 -0.0421 -0.4314 -0.2194
 1761TIP3    H129478   4.492   5.199  16.409 -1.1192 -1.2388  0.1431
 1761TIP3    H229479   4.494   5.135  16.545 -0.5896  0.2413  0.8551
 1762TIP3   OH229480   4.466   5.677  14.984  0.1270  0.6547 -0.3224
 1762TIP3    H129481   4.464   5.612  14.914  2.2318  3.0907 -2.9183
 1762TIP3    H229482   4.394   5.736  14.964 -1.8198 -0.7440  2.0624
 1763TIP3   OH229483   2.933   6.263  16.827  0.0643  0.5117 -0.0690
 1763TIP3    H129484   2.959   6.182  16.784 -1.4319  1.7681 -3.7424
 1763TIP3    H229485   3.004   6.324  16.808 -0.4945  1.0087 -0.6300
 1764TIP3   OH229486   5.655   2.679  16.864  0.3979 -0.1801  0.0138
 1764TIP3    H129487   5.669   2.590  16.834 -1.0285 -0.4747  0.1653
 1764TIP3    H229488   5.650   2.672  16.960  0.2449  0.0400  0.0245
 1765TIP3   OH229489   2.712   2.061  15.765  0.0553 -0.2658 -0.2203
 1765TIP3    H129490   2.706   2.139  15.709 -0.4316 -0.3002 -0.2220
 1765TIP3    H229491   2.717   2.096  15.854  0.2936 -0.2226 -0.2502
 1766TIP3   OH229492   6.631   2.858  14.568 -0.0551 -0.7442  0.0012
 1766TIP3    H129493   6.590   2.813  14.494  0.6565 -0.4212 -0.6013
 1766TIP3    H229494   6.703   2.800  14.594  0.6364 -0.1463 -0.5426
 1767TIP3   OH229495   6.553   0.263  16.526 -0.1328  0.4179  0.0669
 1767TIP3    H129496   6.567   0.177  16.566  0.8156  0.3144 -0.4661
 1767TIP3    H229497   6.528   0.320  16.599 -2.5142 -0.6659  0.2041
 1768TIP3   OH229498   2.232   6.386  16.008  0.3986  0.2605 -0.5362
 1768TIP3    H129499   2.174   6.354  15.939  1.7239  0.0017 -1.5634
 1768TIP3    H229500   2.220   6.324  16.080  1.3685 -1.3831 -1.7293
 1769TIP3   OH229501   6.634   4.495  15.717 -0.1232 -0.1453  1.0830
 1769TIP3    H129502   6.554   4.533  15.752  0.1045  1.6906 -0.2287
 1769TIP3    H229503   6.704   4.536  15.767  0.0893  0.2327  0.4793
 1770TIP3   OH229504   1.193   5.815  16.249 -0.5298  0.1461  0.4044
 1770TIP3    H129505   1.104   5.800  16.217  0.0048 -0.4777 -0.8651
 1770TIP3    H229506   1.182   5.845  16.339 -2.0714  1.4847 -0.1948
 1771TIP3   OH229507   0.879   0.809  17.874  0.4979 -0.3557  0.3121
 1771TIP3    H129508   0.835   0.777  17.952  1.9760 -2.5297  0.3547
 1771TIP3    H229509   0.871   0.738  17.810  2.4950 -0.2016 -0.1939
 1772TIP3   OH229510   4.709   3.079  17.370  0.2448  0.4595 -0.2016
 1772TIP3    H129511   4.788   3.121  17.336  2.0340 -2.9362 -0.7353
 1772TIP3    H229512   4.704   3.107  17.462  1.6561  1.3130 -0.3609
 1773TIP3   OH229513   0.487   1.050  16.889  0.2081  0.0366  0.1928
 1773TIP3    H129514   0.415   1.003  16.847  0.4058 -1.9275  1.8774
 1773TIP3    H229515   0.463   1.142  16.882 -1.7414 -0.4810 -0.5845
 1774TIP3   OH229516   2.965   0.508  15.640  0.2195 -0.3985  0.1438
 1774TIP3    H129517   2.966   0.463  15.555  1.1242  0.6814 -0.4482
 1774TIP3    H229518   3.033   0.465  15.691 -0.2573 -0.9835  0.2968
 1775TIP3   OH229519   4.600   3.336  16.289  0.0446 -0.2005  0.0959
 1775TIP3    H129520   4.542   3.264  16.315 -0.1821  0.3151  1.0528
 1775TIP3    H229521   4.547   3.415  16.302  0.8547  0.2579  0.6804
 1776TIP3   OH229522   2.252   2.414  15.704  0.2144 -0.1077  0.0393
 1776TIP3    H129523   2.266   2.425  15.610  1.8640 -0.4484  0.2169
 1776TIP3    H229524   2.235   2.503  15.735 -1.4991 -0.1173 -0.6989
 1777TIP3   OH229525   1.367   3.097  15.171 -0.2786 -1.2349 -0.6025
 1777TIP3    H129526   1.300   3.067  15.231  0.0394 -1.5537 -0.3966
 1777TIP3    H229527   1.324   3.100  15.086 -0.2858 -2.4742 -0.6618
 1778TIP3   OH229528   4.859   1.461  18.188 -0.2177 -0.2855  0.1177
 1778TIP3    H129529   4.885   1.552  18.205 -1.9483  0.4915 -1.0717
 1778TIP3    H229530   4.770   1.454  18.222 -1.1255 -0.6980 -2.1366
 1779TIP3   OH229531   1.657   2.282  14.649  0.7503 -0.7177  0.0803
 1779TIP3    H129532   1.605   2.248  14.576 -0.3766  1.9428 -0.4709
 1779TIP3    H229533   1.745   2.247  14.634  1.3189  1.8159 -4.2551
 1780TIP3   OH229534   1.506   5.692  16.936  0.0985  0.2655 -0.2627
 1780TIP3    H129535   1.524   5.783  16.912 -0.7676  0.5020 -0.0346
 1780TIP3    H229536   1.580   5.643  16.899  0.7249  1.0888 -0.1384
 1781TIP3   OH229537   5.844   0.321  16.509 -0.5821  0.6121 -0.2134
 1781TIP3    H129538   5.897   0.376  16.567  1.0485  1.2399 -2.1664
 1781TIP3    H229539   5.762   0.310  16.555 -0.4935  3.6106  0.9059
 1782TIP3   OH229540   0.377   3.850  15.295 -0.0836 -0.6794 -0.1377
 1782TIP3    H129541   0.457   3.797  15.302 -1.1493 -2.3208  0.1634
 1782TIP3    H229542   0.404   3.937  15.325  1.7299 -1.0163 -0.6497
 1783TIP3   OH229543   1.573   0.839  17.706 -0.1223  0.1333  0.1789
 1783TIP3    H129544   1.613   0.782  17.771 -1.3808 -1.7047 -0.5715
 1783TIP3    H229545   1.491   0.869  17.747 -0.7421 -0.7410 -0.3933
 1784TIP3   OH229546   1.444   3.357  17.155  0.0333  0.6372 -0.7723
 1784TIP3    H129547   1.370   3.325  17.206  0.3316  3.1303  1.4189
 1784TIP3    H229548   1.521   3.330  17.204  0.3203  3.2486  0.3302
 1785TIP3   OH229549   4.275   1.506  15.032  0.3122 -0.3974  0.2923
 1785TIP3    H129550   4.242   1.434  14.979  3.8423 -0.4969 -2.1151
 1785TIP3    H229551   4.213   1.578  15.017 -1.3130 -1.8235 -0.1321
 1786TIP3   OH229552   6.687   0.110  15.132 -0.2462  0.1878 -0.3824
 1786TIP3    H129553   6.763   0.121  15.076  0.8544 -0.0375  1.0042
 1786TIP3    H229554   6.720   0.062  15.208 -1.6936  0.4032  0.4151
 1787TIP3   OH229555   3.840   1.765  16.835  0.5431  0.5160 -0.6337
 1787TIP3    H129556   3.897   1.734  16.905  0.1680  0.1627 -0.4820
 1787TIP3    H229557   3.764   1.708  16.839 -1.0082  2.5720  0.8365
 1788TIP3   OH229558   5.965   2.915  17.872  0.4053 -0.0573  0.2520
 1788TIP3    H129559   5.874   2.929  17.848  0.8346  0.4953 -1.2118
 1788TIP3    H229560   6.009   2.996  17.846  1.6416 -1.0942 -1.0571
 1789TIP3   OH229561   4.547   0.627  16.855  0.2797 -0.3504 -0.0147
 1789TIP3    H129562   4.538   0.532  16.858 -0.4428 -0.2757  0.3204
 1789TIP3    H229563   4.462   0.661  16.881  0.1296  0.3934 -1.3784
 1790TIP3   OH229564   5.381   5.879  17.572 -0.1455 -0.9003  0.2000
 1790TIP3    H129565   5.451   5.939  17.598 -0.1413 -0.4727 -0.7753
 1790TIP3    H229566   5.409   5.793  17.605  0.5353 -0.6198  0.3570
 1791TIP3   OH229567   0.395   0.512  17.099  0.4397 -0.4106 -0.6158
 1791TIP3    H129568   0.332   0.445  17.126  0.8656 -0.4971  0.1768
 1791TIP3    H229569   0.466   0.462  17.058  1.2050 -0.5431  0.8261
 1792TIP3   OH229570   0.930   2.908  17.922  0.2378  0.7993  0.2839
 1792TIP3    H129571   1.015   2.942  17.894  1.0356 -0.4634  1.0554
 1792TIP3    H229572   0.950   2.821  17.957 -1.7705 -0.7609 -2.1453
 1793TIP3   OH229573   6.309   2.992  14.870 -0.3711 -0.4345 -0.4145
 1793TIP3    H129574   6.359   3.026  14.796 -0.0845 -0.6208 -0.3098
 1793TIP3    H229575   6.298   2.899  14.850 -1.2195 -0.2751 -0.7410
 1794TIP3   OH229576   4.605   0.971  16.629  0.6958  0.0763  0.0682
 1794TIP3    H129577   4.593   0.942  16.719  0.0784 -2.4741 -0.7601
 1794TIP3    H229578   4.687   0.930  16.601 -0.2179 -0.9873 -1.1661
 1795TIP3   OH229579   4.035   6.076  15.508 -0.3044 -0.4585 -0.0101
 1795TIP3    H129580   3.986   6.158  15.515 -2.3384 -1.5003 -1.2059
 1795TIP3    H229581   4.111   6.098  15.453 -1.3998  0.4160 -1.2312
 1796TIP3   OH229582   4.735   5.030  15.384 -0.3033 -0.1692 -0.0435
 1796TIP3    H129583   4.727   5.108  15.329 -4.8048 -1.0880 -1.1252
 1796TIP3    H229584   4.806   4.980  15.344  1.3004  2.3287 -0.5749
 1797TIP3   OH229585   0.901   6.258  16.606 -0.6431 -0.2529  0.5072
 1797TIP3    H129586   0.935   6.227  16.690  2.6312 -1.1638 -1.0052
 1797TIP3    H229587   0.898   6.180  16.551 -0.7137  0.6587 -0.8329
 1798TIP3   OH229588   3.562   5.470  15.695  0.3910 -0.4358  0.3519
 1798TIP3    H129589   3.566   5.473  15.790 -1.1654  0.2729  0.4244
 1798TIP3    H229590   3.595   5.383  15.672  1.8373 -0.2013  1.4505
 1799TIP3   OH229591   3.336   3.927  14.943 -0.5077  0.0789 -0.3269
 1799TIP3    H129592   3.311   3.899  15.031  0.5636 -2.1325 -0.6511
 1799TIP3    H229593   3.419   3.974  14.956  1.4129 -3.0365 -0.3520
 1800TIP3   OH229594   1.384   6.499  15.646 -0.0083  0.0338 -0.3106
 1800TIP3    H129595   1.328   6.454  15.709 -0.4805  0.1889 -0.6194
 1800TIP3    H229596   1.330   6.571  15.612  0.3467  0.1341 -0.6691
 1801TIP3   OH229597   4.223   2.753  17.515 -0.5153 -0.4535  0.1494
 1801TIP3    H129598   4.314   2.782  17.509 -0.1826 -1.7961 -3.1206
 1801TIP3    H229599   4.227   2.670  17.563 -0.3263  0.3957  1.6662
 1802TIP3   OH229600   5.474   0.769  16.079  0.4376  0.2661 -0.0228
 1802TIP3    H129601   5.521   0.794  16.000 -0.2778  1.0122 -0.2252
 1802TIP3    H229602   5.540   0.727  16.134  1.1485  0.5685 -0.6350
 1803TIP3   OH229603   6.649   1.889  15.731  0.3538 -0.0780  0.5824
 1803TIP3    H129604   6.702   1.936  15.796 -0.8727  1.2500  0.6664
 1803TIP3    H229605   6.583   1.843  15.783  0.2145 -0.1294  0.3603
 1804TIP3   OH229606   1.301   6.411  17.180  0.3773  0.0883 -0.3985
 1804TIP3    H129607   1.363   6.441  17.246 -1.4284  2.1457  0.4918
 1804TIP3    H229608   1.301   6.481  17.115 -0.2858 -0.3645 -0.8902
 1805TIP3   OH229609   0.991   1.001  17.091 -0.1795  0.6353  0.4087
 1805TIP3    H129610   1.026   0.917  17.061 -0.2639  1.5049 -2.4415
 1805TIP3    H229611   0.900   0.982  17.113 -0.4005  0.0783 -0.8884
 1806TIP3   OH229612   3.810   1.116  17.708 -0.6912 -0.3846  0.0843
 1806TIP3    H129613   3.900   1.141  17.686 -0.7432 -0.0912  0.2014
 1806TIP3    H229614   3.779   1.186  17.765 -1.7249  0.6728 -1.6711
 1807TIP3   OH229615   3.640   2.161  14.828  0.0015  0.3343  0.0883
 1807TIP3    H129616   3.700   2.204  14.889 -1.0115  0.0062  1.3641
 1807TIP3    H229617   3.597   2.094  14.880 -0.2580 -0.5660 -1.2346
 1808TIP3   OH229618   3.888   1.491  16.373  0.0855 -0.3523 -0.2936
 1808TIP3    H129619   3.963   1.541  16.340 -0.0659  0.0026 -0.1036
 1808TIP3    H229620   3.831   1.480  16.296 -0.2246  0.3989 -0.1827
 1809TIP3   OH229621   0.195   1.955  17.288 -0.0953 -0.0149 -0.1435
 1809TIP3    H129622   0.106   1.923  17.270  0.5853 -1.1149 -1.8641
 1809TIP3    H229623   0.247   1.875  17.300  0.2042  0.5767  3.8891
 1810TIP3   OH229624   2.647   2.686  16.194  0.5356 -0.3694  0.7049
 1810TIP3    H129625   2.603   2.763  16.229  0.1954 -0.4355  0.4340
 1810TIP3    H229626   2.721   2.721  16.145 -0.5774 -0.0720 -0.8653
 1811TIP3   OH229627   6.158   4.584  17.312 -0.4206 -0.3988 -0.4884
 1811TIP3    H129628   6.235   4.570  17.367  0.2511  0.1968 -1.2503
 1811TIP3    H229629   6.085   4.548  17.363  0.3525 -0.9507  0.2540
 1812TIP3   OH229630   1.541   0.294  15.943 -0.6142 -0.4561 -0.7791
 1812TIP3    H129631   1.522   0.374  15.894  1.4041 -1.1730 -2.8702
 1812TIP3    H229632   1.545   0.324  16.034 -3.3258  1.1285 -1.0477
 1813TIP3   OH229633   2.724   1.138  16.338  0.4052  0.8984  0.5505
 1813TIP3    H129634   2.696   1.203  16.402 -0.3644  2.1353 -0.9951
 1813TIP3    H229635   2.712   1.180  16.253 -0.7549 -1.4876 -0.5639
 1814TIP3   OH229636   5.214   1.770  16.355  0.0014  0.4388 -0.2445
 1814TIP3    H129637   5.238   1.780  16.446 -1.1923  1.1882  0.0086
 1814TIP3    H229638   5.128   1.813  16.347 -0.2723 -0.2671 -1.5384
 1815TIP3   OH229639   5.965   2.534  17.693 -0.2824  0.4820 -0.2484
 1815TIP3    H129640   5.992   2.624  17.672  0.4108  0.3266 -0.0715
 1815TIP3    H229641   5.902   2.511  17.625  0.1078  0.8351 -0.7387
 1816TIP3   OH229642   0.645   4.042  16.740  0.0406  0.4348  0.0612
 1816TIP3    H129643   0.612   4.037  16.830 -0.2986 -0.8521 -0.1083
 1816TIP3    H229644   0.736   4.012  16.747  0.2387  1.0344  0.0791
 1817TIP3   OH229645   1.602   6.328  16.279  0.1317  0.0815 -0.1355
 1817TIP3    H129646   1.653   6.409  16.290 -0.4936  0.8630 -2.4933
 1817TIP3    H229647   1.546   6.324  16.357 -0.6149  2.5434 -0.4601
 1818TIP3   OH229648   2.576   1.574  15.392  0.2705  0.0768 -0.1944
 1818TIP3    H129649   2.647   1.575  15.456  1.0265 -0.1823 -1.0080
 1818TIP3    H229650   2.497   1.559  15.443  1.0575 -1.9375  0.5061
 1819TIP3   OH229651   6.282   1.712  16.157 -0.2550 -0.1172 -0.3032
 1819TIP3    H129652   6.241   1.672  16.081  0.4808 -2.4423  0.4448
 1819TIP3    H229653   6.374   1.687  16.151  0.1429  1.0440  0.5173
 1820TIP3   OH229654   5.173   1.431  15.726  0.8606  0.4340 -0.4191
 1820TIP3    H129655   5.104   1.410  15.663  1.8901 -0.6179 -1.2471
 1820TIP3    H229656   5.169   1.360  15.790  0.9579  0.5430 -0.2915
 1821TIP3   OH229657   4.687   6.479  15.264 -0.2093 -0.2989  0.1244
 1821TIP3    H129658   4.651   6.465  15.176 -0.8576  0.6988  0.2042
 1821TIP3    H229659   4.719   6.570  15.262 -1.1631  0.0850  1.2157
 1822TIP3   OH229660   5.469   6.560  16.102 -0.2240  0.3482  0.4231
 1822TIP3    H129661   5.481   6.586  16.011 -0.2648 -0.2120  0.2554
 1822TIP3    H229662   5.531   6.614  16.151 -0.1158  0.5614  0.0513
 1823TIP3   OH229663   4.236   6.226  17.758 -0.2891 -0.4736 -0.2456
 1823TIP3    H129664   4.231   6.173  17.838 -0.7671  0.7937  0.5920
 1823TIP3    H229665   4.196   6.310  17.783 -1.0045 -0.2685 -1.9874
 1824TIP3   OH229666   1.990   2.173  16.297 -0.0277 -0.2017  0.0221
 1824TIP3    H129667   2.030   2.256  16.270 -0.7271  0.3415  0.5761
 1824TIP3    H229668   1.990   2.177  16.393 -2.2192  0.2643  0.0532
 1825TIP3   OH229669   5.576   4.893  17.741  0.0495  0.3047 -0.3071
 1825TIP3    H129670   5.662   4.895  17.783 -0.5448  0.7737  0.9271
 1825TIP3    H229671   5.586   4.829  17.670  1.0346 -0.6614  0.6548
 1826TIP3   OH229672   4.391   0.140  17.759  0.4468 -0.6151  0.5317
 1826TIP3    H129673   4.473   0.188  17.770  0.0432  0.6819 -1.6004
 1826TIP3    H229674   4.329   0.183  17.818  0.3217  1.0184 -0.7249
 1827TIP3   OH229675   3.065   3.965  15.127  0.0388  0.0976 -0.2705
 1827TIP3    H129676   3.144   3.924  15.161 -0.8378  0.4502  2.4064
 1827TIP3    H229677   3.003   3.893  15.115  0.1020  0.0657 -0.4093
 1828TIP3   OH229678   1.181   5.388  16.884 -0.3476  0.5074  0.3047
 1828TIP3    H129679   1.201   5.434  16.802  0.0171 -2.3480 -1.3313
 1828TIP3    H229680   1.254   5.408  16.942  0.1448  1.3525 -0.5812
 1829TIP3   OH229681   0.400   2.208  17.617  0.3298  0.3937 -0.1960
 1829TIP3    H129682   0.451   2.143  17.666  0.7539  0.4023 -0.6219
 1829TIP3    H229683   0.319   2.163  17.594  0.4308  0.1618 -0.1011
 1830TIP3   OH229684   4.924   6.243  15.878  0.0654  0.3772 -0.3265
 1830TIP3    H129685   4.878   6.306  15.823 -1.6207 -0.9703 -0.5371
 1830TIP3    H229686   4.867   6.231  15.954  0.9034 -0.0801  0.2500
 1831TIP3   OH229687   3.453   5.988  14.605  0.3966 -0.5802  0.2751
 1831TIP3    H129688   3.537   5.966  14.566  0.2264  0.3330 -0.6902
 1831TIP3    H229689   3.389   5.965  14.538  0.1250  1.4439 -0.2432
 1832TIP3   OH229690   4.774   1.955  18.237  0.2859 -0.9021  0.3191
 1832TIP3    H129691   4.773   2.039  18.191 -0.7703  0.0684  2.0069
 1832TIP3    H229692   4.686   1.947  18.275 -0.1370 -3.4838 -0.9804
 1833TIP3   OH229693   6.130   3.778  16.600  0.2521  0.0604  0.4012
 1833TIP3    H129694   6.067   3.819  16.659  0.2670 -1.3837  1.4844
 1833TIP3    H229695   6.083   3.767  16.517 -0.7391 -0.4599  1.0190
 1834TIP3   OH229696   5.179   2.145  14.800 -0.0889  0.1417 -0.3878
 1834TIP3    H129697   5.102   2.157  14.856 -0.2303  0.6351 -0.6851
 1834TIP3    H229698   5.150   2.083  14.733  0.1015 -0.5048  0.1099
 1835TIP3   OH229699   5.712   5.449  15.646 -0.2462 -0.3377  0.1123
 1835TIP3    H129700   5.679   5.386  15.709 -0.8282  1.2421  1.4698
 1835TIP3    H229701   5.640   5.463  15.585 -0.5588 -0.1062  0.5279
 1836TIP3   OH229702   5.340   3.555  17.872  0.1717 -0.2036  0.0963
 1836TIP3    H129703   5.394   3.627  17.905  1.1295 -1.4237  1.3405
 1836TIP3    H229704   5.362   3.549  17.779  1.8723 -0.3692  0.4793
 1837TIP3   OH229705   5.201   0.468  15.262  0.1478 -0.0245 -0.2208
 1837TIP3    H129706   5.253   0.547  15.243 -0.3715 -0.0608 -2.0082
 1837TIP3    H229707   5.123   0.501  15.307  0.0425  0.4749 -0.7553
 1838TIP3   OH229708   0.429   3.036  16.178  0.4320  0.2804 -0.7595
 1838TIP3    H129709   0.359   3.030  16.112 -0.1012  2.0916 -0.4182
 1838TIP3    H229710   0.485   3.106  16.147  1.0484  0.1055 -0.0599
 1839TIP3   OH229711   1.782   3.529  16.549  0.4868 -0.5353 -0.2428
 1839TIP3    H129712   1.732   3.455  16.516  2.3337 -1.7932 -0.4207
 1839TIP3    H229713   1.777   3.522  16.644  0.5370 -0.8079 -0.2612
 1840TIP3   OH229714   1.590   5.718  15.980 -0.0912  0.2577 -0.1184
 1840TIP3    H129715   1.545   5.655  16.036 -0.1274 -0.0596 -0.4995
 1840TIP3    H229716   1.634   5.664  15.914  0.5658  0.5823  0.0460
 1841TIP3   OH229717   5.409   3.665  16.257  0.1517  0.2951  0.0113
 1841TIP3    H129718   5.456   3.695  16.179  1.0976  1.7187  1.1089
 1841TIP3    H229719   5.380   3.576  16.234 -0.9081  1.1899 -2.5289
 1842TIP3   OH229720   0.465   4.031  15.789  0.1920  0.4525 -0.5253
 1842TIP3    H129721   0.516   3.952  15.774  0.6683  0.6803 -0.1054
 1842TIP3    H229722   0.522   4.102  15.760 -0.4411  0.6112 -1.4151
 1843TIP3   OH229723   0.522   0.767  17.149 -0.3543 -0.0326 -0.6095
 1843TIP3    H129724   0.446   0.825  17.158 -1.0987 -0.7301 -2.0399
 1843TIP3    H229725   0.484   0.680  17.138  0.6364 -0.3555 -1.6396
 1844TIP3   OH229726   4.789   2.729  16.029  0.0353 -0.4436 -0.1809
 1844TIP3    H129727   4.827   2.709  16.115  0.0766  1.0538  0.1659
 1844TIP3    H229728   4.864   2.754  15.975 -0.1278 -0.2396 -0.3134
 1845TIP3   OH229729   3.703   0.037  16.640  0.0521  0.3869 -0.0794
 1845TIP3    H129730   3.658   0.115  16.608 -1.2632  0.1560  1.1418
 1845TIP3    H229731   3.633  -0.021  16.670  0.8890 -1.7879 -1.9700
 1846TIP3   OH229732   0.720   6.596  16.263 -0.2437  0.1284  0.1699
 1846TIP3    H129733   0.711   6.591  16.358  0.2195 -1.2224  0.1639
 1846TIP3    H229734   0.701   6.688  16.242  0.1719  0.5674  1.6087
 1847TIP3   OH229735   5.247   1.729  17.929 -0.0888  0.3078  0.2192
 1847TIP3    H129736   5.310   1.793  17.897  0.8141  0.4834  2.1982
 1847TIP3    H229737   5.215   1.765  18.011 -0.7216 -1.0631  0.6142
 1848TIP3   OH229738   2.779   1.043  15.818  0.8782 -0.0127  0.5205
 1848TIP3    H129739   2.872   1.058  15.803  0.8053  1.8833  1.6471
 1848TIP3    H229740   2.736   1.123  15.789 -0.3187 -0.5201  0.8082
 1849TIP3   OH229741   1.645   4.750  16.945 -0.2131  0.0797  0.3866
 1849TIP3    H129742   1.624   4.670  16.993  0.3305 -1.3709 -1.6582
 1849TIP3    H229743   1.739   4.763  16.961 -0.4084  0.6026  1.1235
 1850TIP3   OH229744   6.009   3.399  16.956 -0.3892 -0.2481  0.6786
 1850TIP3    H129745   6.087   3.344  16.944 -0.9838 -1.5323  2.2408
 1850TIP3    H229746   6.002   3.449  16.875  0.7030 -1.8643 -0.4883
 1851TIP3   OH229747   4.328   1.473  17.727  0.2103 -0.7380  0.0328
 1851TIP3    H129748   4.340   1.399  17.786  0.2951 -1.1215 -0.4612
 1851TIP3    H229749   4.249   1.452  17.678 -1.1286  0.5873  1.4956
 1852TIP3   OH229750   5.815   5.781  16.368  0.1310  0.7373  0.4613
 1852TIP3    H129751   5.872   5.771  16.444  0.1098 -1.5715  0.2691
 1852TIP3    H229752   5.875   5.800  16.296  0.3515  1.1128  0.7407
 1853TIP3   OH229753   3.222   5.915  16.187  0.7702  0.0658  0.7544
 1853TIP3    H129754   3.291   5.858  16.155  0.4518 -0.2082  0.5492
 1853TIP3    H229755   3.163   5.857  16.236 -0.3462 -0.0730 -0.6730
 1854TIP3   OH229756   4.780   4.331  15.786  0.0108 -0.7546 -0.1361
 1854TIP3    H129757   4.847   4.265  15.768  0.8286  0.4515 -1.7590
 1854TIP3    H229758   4.796   4.400  15.722 -0.9628  0.9332  1.3463
 1855TIP3   OH229759   3.593   4.607  17.057 -0.1660  0.4798  0.0203
 1855TIP3    H129760   3.625   4.640  17.141 -0.5465 -2.4198  1.4154
 1855TIP3    H229761   3.662   4.630  16.994  1.0822  0.9520  1.5041
 1856TIP3   OH229762   2.808   2.558  15.048  0.2588  0.3877  0.4302
 1856TIP3    H129763   2.801   2.641  15.002  0.6438 -0.3332 -0.9563
 1856TIP3    H229764   2.870   2.575  15.119  0.8381  1.1103 -0.2373
 1857TIP3   OH229765   6.426   4.026  17.397  0.2884 -0.5141  0.0954
 1857TIP3    H129766   6.401   3.948  17.346 -1.7762  0.3242 -0.2805
 1857TIP3    H229767   6.497   4.066  17.346 -0.0149 -1.0628 -0.7775
 1858TIP3   OH229768   4.614   1.476  18.338 -0.4283 -0.3983  0.2712
 1858TIP3    H129769   4.562   1.517  18.268 -1.6483 -0.6347  1.0054
 1858TIP3    H229770   4.550   1.459  18.407  0.2186 -2.6414  0.3841
 1859TIP3   OH229771   2.893   6.474  15.972  0.0648 -0.0615  0.6095
 1859TIP3    H129772   2.808   6.500  15.936 -0.4804  0.4293  2.1674
 1859TIP3    H229773   2.878   6.386  16.008 -0.2088  0.5777  2.1427
 1860TIP3   OH229774   1.372   5.912  17.311  0.3388  0.1423 -0.2285
 1860TIP3    H129775   1.403   5.961  17.235  1.1272  1.2920  0.8057
 1860TIP3    H229776   1.451   5.883  17.355 -0.1132 -1.5613 -0.4599
 1861TIP3   OH229777   4.974   6.477  15.436 -0.0239  0.1921 -0.1741
 1861TIP3    H129778   5.020   6.511  15.513  1.4000  0.4708 -1.1130
 1861TIP3    H229779   4.921   6.405  15.471 -0.3132  1.0373  1.2419
 1862TIP3   OH229780   5.845   6.398  17.638  0.2564  0.0420  0.6371
 1862TIP3    H129781   5.926   6.446  17.656  0.7173  0.2021 -1.6743
 1862TIP3    H229782   5.851   6.373  17.546 -2.5955  0.5598  0.2256
 1863TIP3   OH229783   6.704   5.637  14.900  0.4098  0.0311  0.2162
 1863TIP3    H129784   6.789   5.662  14.935  1.0467 -0.1771 -1.1233
 1863TIP3    H229785   6.706   5.667  14.809 -1.0861  0.3384  0.2629
 1864TIP3   OH229786   5.056   4.965  15.624 -0.5249  0.1361  0.5570
 1864TIP3    H129787   5.013   4.982  15.707 -0.6673  1.3657  0.2535
 1864TIP3    H229788   5.127   5.029  15.620  0.1365 -0.6118  0.1996
 1865TIP3   OH229789   3.802   5.627  17.702 -0.1143 -0.3062 -0.2718
 1865TIP3    H129790   3.787   5.547  17.650 -0.0433 -1.3522  1.2560
 1865TIP3    H229791   3.855   5.598  17.776  0.4920  1.3134 -0.0445
 1866TIP3   OH229792   4.613   4.793  15.616  0.6652  0.1178 -0.4524
 1866TIP3    H129793   4.558   4.855  15.664  1.4259  0.7613 -0.3948
 1866TIP3    H229794   4.666   4.848  15.558  0.9438 -0.5273 -0.8206
 1867TIP3   OH229795   2.773   5.764  16.013  0.6481 -0.1541  0.3202
 1867TIP3    H129796   2.690   5.799  15.980 -0.0851 -1.1414  1.0671
 1867TIP3    H229797   2.767   5.670  16.000  1.9354 -0.1990 -0.1924
 1868TIP3   OH229798   0.919   1.359  17.069  0.0088 -0.5405  0.0121
 1868TIP3    H129799   0.974   1.312  17.006 -1.5749  1.1491 -2.8259
 1868TIP3    H229800   0.835   1.370  17.025 -0.5180  2.6097  1.5296
 1869TIP3   OH229801   5.411   5.818  15.842 -0.3118 -0.5048  0.5318
 1869TIP3    H129802   5.317   5.811  15.856 -0.6708  2.1767  0.1205
 1869TIP3    H229803   5.447   5.835  15.929 -0.8142  2.4468  0.2905
 1870TIP3   OH229804   5.986   3.194  14.505 -0.0009 -0.1193 -0.7608
 1870TIP3    H129805   5.959   3.106  14.533  2.1385 -0.6646 -0.1642
 1870TIP3    H229806   5.942   3.253  14.566  0.8114 -1.0144  0.7822
 1871TIP3   OH229807   5.580   1.161  16.194  0.7751  0.0929  0.1079
 1871TIP3    H129808   5.536   1.233  16.149  0.0968 -1.5071 -1.9557
 1871TIP3    H229809   5.663   1.150  16.147  0.2198 -1.3747 -0.5819
 1872TIP3   OH229810   5.541   5.235  15.262  0.4658  0.3048 -0.0033
 1872TIP3    H129811   5.450   5.245  15.233 -0.3351 -1.8949  1.4800
 1872TIP3    H229812   5.563   5.321  15.300 -1.6499  0.3674  1.2287
 1873TIP3   OH229813   5.160   5.492  17.544 -0.7282  0.2335 -0.0167
 1873TIP3    H129814   5.184   5.402  17.520 -0.2274  0.5006 -0.5464
 1873TIP3    H229815   5.113   5.525  17.467 -1.9344  0.0497  0.6218
 1874TIP3   OH229816   5.377   3.184  15.175 -0.3095 -0.2192  0.6682
 1874TIP3    H129817   5.418   3.199  15.260  0.9025  3.6521 -0.3917
 1874TIP3    H229818   5.299   3.240  15.176  0.1433  0.4940 -0.9994
 1875TIP3   OH229819   5.957   6.113  17.753  0.2746 -0.2326 -0.3801
 1875TIP3    H129820   5.935   6.202  17.725 -0.2465 -0.4669 -0.7402
 1875TIP3    H229821   5.897   6.095  17.824 -0.4625 -0.7403 -1.1199
 1876TIP3   OH229822   5.449   2.438  17.457 -0.4266  0.0097 -0.1024
 1876TIP3    H129823   5.425   2.402  17.543 -0.9466  0.7134  0.0603
 1876TIP3    H229824   5.497   2.367  17.414  3.0125  0.7485  2.0916
 1877TIP3   OH229825   3.416   5.854  17.206 -0.7484 -0.0067  0.0629
 1877TIP3    H129826   3.492   5.802  17.181 -0.3842  1.2204 -1.4861
 1877TIP3    H229827   3.342   5.808  17.167 -0.7713 -0.8433  1.0327
 1878TIP3   OH229828   1.842   2.680  16.115  0.0907  0.6176  0.5653
 1878TIP3    H129829   1.755   2.652  16.140 -0.3106  1.6202  0.3623
 1878TIP3    H229830   1.898   2.605  16.132 -0.4351  0.6777  2.8377
 1879TIP3   OH229831   4.652   1.361  16.245  0.1942 -0.1498  0.0856
 1879TIP3    H129832   4.676   1.299  16.314  0.0880  0.1004  0.3523
 1879TIP3    H229833   4.718   1.430  16.251  0.0369  0.0004  0.1072
 1880TIP3   OH229834   0.803   0.917  15.193 -0.2865 -0.3241  0.2859
 1880TIP3    H129835   0.795   0.952  15.282 -0.8359 -0.1357  0.1697
 1880TIP3    H229836   0.830   0.992  15.140  1.8349 -0.8214  0.5685
 1881TIP3   OH229837   3.734   2.137  18.000 -0.3361  0.0204  0.0764
 1881TIP3    H129838   3.687   2.103  17.924 -0.9511 -0.8977  0.8444
 1881TIP3    H229839   3.770   2.060  18.043  2.2372  0.7215 -0.6601
 1882TIP3   OH229840   2.539   0.709  16.150  0.1878 -0.0923 -0.0945
 1882TIP3    H129841   2.456   0.663  16.140  0.2435  0.0999 -1.7929
 1882TIP3    H229842   2.544   0.765  16.072  0.4206  2.3321  1.5830
 1883TIP3   OH229843   0.114   3.510  15.388  0.4221 -0.1650  0.2600
 1883TIP3    H129844   0.106   3.499  15.483 -0.5246 -0.4896  0.1570
 1883TIP3    H229845   0.159   3.430  15.358  1.7802  0.4563  0.5475
 1884TIP3   OH229846   3.266   6.318  15.131 -0.5599 -0.3204  1.0666
 1884TIP3    H129847   3.249   6.228  15.157  0.0815 -1.1241 -1.1258
 1884TIP3    H229848   3.296   6.313  15.041  2.6050  1.8183  1.8195
 1885TIP3   OH229849   3.560   2.619  16.277  0.3443 -0.6033  0.5122
 1885TIP3    H129850   3.603   2.692  16.324 -1.0309  1.9582 -1.9024
 1885TIP3    H229851   3.469   2.622  16.307  0.4147 -1.7861  0.8604
 1886TIP3   OH229852   1.335   1.957  15.540 -0.6652  0.4096 -0.5251
 1886TIP3    H129853   1.428   1.977  15.548 -0.5913 -0.5303  1.4298
 1886TIP3    H229854   1.294   2.002  15.613 -1.8149  1.0571 -1.5369
 1887TIP3   OH229855   0.103   5.315  16.798  0.0087 -0.2677 -0.7868
 1887TIP3    H129856   0.187   5.318  16.752  2.1183 -2.9359  2.4200
 1887TIP3    H229857   0.059   5.238  16.762 -0.1908 -0.0016 -1.1174
 1888TIP3   OH229858   6.691   5.438  15.069 -0.3724 -0.0262  0.5771
 1888TIP3    H129859   6.699   5.510  15.006  0.1499 -1.1534 -0.7110
 1888TIP3    H229860   6.773   5.389  15.059 -0.8331 -0.9593  1.2155
 1889TIP3   OH229861   6.134   6.071  15.925 -0.2679 -0.3222 -0.9495
 1889TIP3    H129862   6.161   6.138  15.988 -0.5295  0.5426 -1.7571
 1889TIP3    H229863   6.039   6.075  15.924 -0.2600 -0.2360 -1.5107
 1890TIP3   OH229864   0.310   2.637  17.230 -0.2377 -0.3085 -0.5688
 1890TIP3    H129865   0.367   2.587  17.171  1.2827 -0.0561  0.6559
 1890TIP3    H229866   0.265   2.699  17.173 -0.0802 -1.2075 -1.7062
 1891TIP3   OH229867   1.450   3.730  16.355  0.2557 -0.0964  0.4457
 1891TIP3    H129868   1.536   3.689  16.352  0.1136 -0.3356 -1.2598
 1891TIP3    H229869   1.457   3.806  16.297 -0.3815  0.4999  1.1341
 1892TIP3   OH229870   4.542   5.434  16.685 -0.2440  0.3166 -0.1858
 1892TIP3    H129871   4.631   5.465  16.698  0.5439 -2.3067  1.6093
 1892TIP3    H229872   4.552   5.345  16.651 -2.1991  0.2972 -0.8641
 1893TIP3   OH229873   2.442   6.138  17.149  0.2330 -0.0978 -0.5570
 1893TIP3    H129874   2.409   6.058  17.109  0.6408 -0.3295 -0.4342
 1893TIP3    H229875   2.535   6.139  17.128  0.3764 -0.0322  0.0774
 1894TIP3   OH229876   3.750   4.524  15.589 -0.0201  0.7187 -0.3400
 1894TIP3    H129877   3.658   4.521  15.615  0.0830 -2.3852  0.0467
 1894TIP3    H229878   3.797   4.556  15.666 -0.6871  1.4466 -0.2330
 1895TIP3   OH229879   6.551   5.514  17.194 -0.2034  0.1509  0.1816
 1895TIP3    H129880   6.603   5.594  17.186 -0.9684  0.6969  0.5847
 1895TIP3    H229881   6.613   5.444  17.175  0.1239  0.8919 -1.7481
 1896TIP3   OH229882   3.482   3.625  16.582  0.2938  0.4701 -0.5107
 1896TIP3    H129883   3.420   3.674  16.528  2.2302  2.2765 -1.2148
 1896TIP3    H229884   3.544   3.690  16.614 -0.2689 -0.6410  3.3311
 1897TIP3   OH229885   4.791   6.040  16.373 -0.0462 -0.0007 -0.7273
 1897TIP3    H129886   4.860   5.991  16.330 -0.3313 -1.1941  0.1285
 1897TIP3    H229887   4.710   6.009  16.332 -0.1634  0.4710 -0.8583
 1898TIP3   OH229888   5.367   2.890  17.589  0.1973  0.6691  0.4792
 1898TIP3    H129889   5.375   2.811  17.641 -0.3460  1.4244  1.7593
 1898TIP3    H229890   5.455   2.908  17.557 -0.0552 -1.8346 -2.0113
 1899TIP3   OH229891   3.688   0.074  15.599  0.3201 -0.8168 -0.3973
 1899TIP3    H129892   3.774   0.041  15.623  0.1719 -0.7878  0.1937
 1899TIP3    H229893   3.648   0.002  15.550  0.5337 -0.9745 -0.3426
 1900TIP3   OH229894   0.576   3.651  15.185 -0.2206 -0.7663 -0.4903
 1900TIP3    H129895   0.629   3.712  15.134  0.0893 -1.3484 -0.8882
 1900TIP3    H229896   0.536   3.594  15.119 -0.4931 -0.9959 -0.1282
 1901TIP3   OH229897   5.806   2.146  16.665 -0.3338  0.6051 -0.0159
 1901TIP3    H129898   5.820   2.092  16.743 -1.4602 -0.8814 -0.7855
 1901TIP3    H229899   5.857   2.103  16.596  1.0212  2.1633 -0.0448
 1902TIP3   OH229900   5.547   4.118  18.032  0.1386 -0.0318 -0.4664
 1902TIP3    H129901   5.583   4.128  17.944  0.7810 -0.9495 -0.3169
 1902TIP3    H229902   5.619   4.142  18.090  0.4940 -1.6950 -0.1650
 1903TIP3   OH229903   5.839   6.248  16.948  0.1528 -0.8478 -0.2472
 1903TIP3    H129904   5.870   6.190  17.017 -0.6957 -0.5374  0.4156
 1903TIP3    H229905   5.886   6.330  16.963 -1.9869  0.1117  1.6782
 1904TIP3   OH229906   3.896   6.683  15.016 -0.7511 -0.6825 -0.2285
 1904TIP3    H129907   3.883   6.764  15.066  0.3391 -0.7892  0.2434
 1904TIP3    H229908   3.990   6.668  15.018 -0.9232 -1.8761 -0.4667
 1905TIP3   OH229909   0.179   2.052  16.880  0.9366  0.0390  0.5624
 1905TIP3    H129910   0.232   2.131  16.878  0.0903  0.6061 -1.6588
 1905TIP3    H229911   0.121   2.064  16.956  0.4636  1.7988 -0.0386
 1906TIP3   OH229912   5.683   5.166  17.637 -0.1738 -0.5905 -0.3443
 1906TIP3    H129913   5.751   5.138  17.575  0.1985 -1.2710  0.3504
 1906TIP3    H229914   5.691   5.104  17.710 -0.0771  0.6515  0.7359
 1907TIP3   OH229915   2.939   4.942  16.537 -0.1385  0.4345 -0.2321
 1907TIP3    H129916   3.016   4.980  16.496 -0.3401  2.0725  0.8023
 1907TIP3    H229917   2.865   4.975  16.486 -0.2480  0.2624 -0.1886
 1908TIP3   OH229918   5.266   6.224  15.633 -0.1764  0.2414 -0.0587
 1908TIP3    H129919   5.225   6.137  15.627  1.3643 -0.4078 -2.2424
 1908TIP3    H229920   5.341   6.211  15.691  0.4789 -0.1061 -0.9594
 1909TIP3   OH229921   5.894   4.551  15.271 -0.2161 -0.7378  0.4070
 1909TIP3    H129922   5.976   4.562  15.321  0.0212 -1.3591  0.1670
 1909TIP3    H229923   5.923   4.520  15.185 -0.7016 -0.8014  0.2680
 1910TIP3   OH229924   2.105   1.290  17.538 -0.0234 -0.6274 -0.1017
 1910TIP3    H129925   2.061   1.280  17.453 -0.5114 -2.5006  0.3279
 1910TIP3    H229926   2.170   1.220  17.540  0.2573 -0.3601  0.9304
 1911TIP3   OH229927   3.977   3.293  15.993  0.4548 -0.3312  0.3663
 1911TIP3    H129928   3.955   3.326  16.080  1.6479  0.9278  0.2191
 1911TIP3    H229929   4.065   3.257  16.002  0.8641  0.4288 -0.4649
 1912TIP3   OH229930   2.910   6.370  15.531 -0.0632  0.3937 -0.1644
 1912TIP3    H129931   2.884   6.440  15.472 -0.5629  0.7072  0.4268
 1912TIP3    H229932   2.882   6.399  15.617  1.8781  0.5710  0.4589
 1913TIP3   OH229933   4.095   0.215  16.389  0.0147  0.1227 -0.1545
 1913TIP3    H129934   4.176   0.183  16.349 -1.0711  0.0532 -2.4754
 1913TIP3    H229935   4.032   0.144  16.374 -0.8486  0.7740  0.2928
 1914TIP3   OH229936   0.149   5.998  16.168  0.5797 -0.0528 -0.3471
 1914TIP3    H129937   0.133   5.978  16.076 -2.2972  0.3065 -0.0176
 1914TIP3    H229938   0.122   5.919  16.215  0.3953  0.3532  0.2514
 1915TIP3   OH229939   0.228   3.500  17.356  0.7845  0.2922  0.1276
 1915TIP3    H129940   0.256   3.411  17.335  0.4374  0.1022  0.4832
 1915TIP3    H229941   0.147   3.490  17.405  1.2029  0.7727  0.9336
 1916TIP3   OH229942   1.682   3.592  14.356 -0.2393 -0.0259 -0.0677
 1916TIP3    H129943   1.633   3.669  14.328 -1.7673 -0.8994  0.0880
 1916TIP3    H229944   1.637   3.519  14.314  0.8676 -0.8912  0.1990
 1917TIP3   OH229945   1.234   2.860  17.434 -0.2510 -0.4193 -0.0555
 1917TIP3    H129946   1.315   2.884  17.388  0.1873 -0.4683  0.6631
 1917TIP3    H229947   1.228   2.765  17.424  0.5590 -0.6092  1.0919
 1918TIP3   OH229948   5.943   3.405  17.846  0.3002 -0.1000  0.1536
 1918TIP3    H129949   5.887   3.375  17.774  1.3507 -0.1340 -0.6641
 1918TIP3    H229950   5.934   3.337  17.913  0.0107 -0.5236 -0.3066
 1919TIP3   OH229951   5.676   2.309  15.261  0.0388  0.2570 -0.2862
 1919TIP3    H129952   5.706   2.233  15.211 -0.3901  0.4813 -0.8928
 1919TIP3    H229953   5.754   2.338  15.308 -0.1089 -1.3714  1.0427
 1920TIP3   OH229954   3.354   0.748  15.905 -0.2256  0.3564 -0.0965
 1920TIP3    H129955   3.268   0.771  15.871  0.2816  0.2754 -1.5166
 1920TIP3    H229956   3.339   0.668  15.956 -0.9598  0.2133 -0.5220
 1921TIP3   OH229957   0.465   5.674  16.236 -0.5213 -0.4409  0.0288
 1921TIP3    H129958   0.417   5.628  16.167 -0.1120 -1.4957  0.4389
 1921TIP3    H229959   0.462   5.766  16.209 -5.6930  0.1884  1.7055
 1922TIP3   OH229960   3.364   2.505  17.581 -0.3364 -0.2867  0.6467
 1922TIP3    H129961   3.423   2.560  17.632 -0.2676 -0.2460  0.5245
 1922TIP3    H229962   3.279   2.513  17.624 -0.6904  1.1488 -0.2616
 1923TIP3   OH229963   1.939   3.803  17.584 -0.1917  0.0015  0.0256
 1923TIP3    H129964   1.971   3.736  17.645 -0.3922  0.5980  0.7911
 1923TIP3    H229965   1.903   3.752  17.510 -2.2299 -0.8291  1.5049
 1924TIP3   OH229966   5.319   2.636  17.343 -0.3264  0.0451 -0.6602
 1924TIP3    H129967   5.228   2.607  17.345 -0.0814 -1.0249  2.8134
 1924TIP3    H229968   5.367   2.562  17.382  2.1859  0.2646 -3.0831
 1925TIP3   OH229969   6.744   5.992  14.816 -0.7673 -0.0832  0.1378
 1925TIP3    H129970   6.653   5.962  14.813 -0.2010 -1.8561 -1.9963
 1925TIP3    H229971   6.790   5.924  14.865 -0.4945  0.6470  0.9277
 1926TIP3   OH229972   0.847   6.034  15.339 -0.2303  0.2778 -0.1027
 1926TIP3    H129973   0.908   5.997  15.276 -1.7209 -0.9974 -0.8779
 1926TIP3    H229974   0.850   6.128  15.323  0.7320  0.1426 -0.8352
 1927TIP3   OH229975   4.218   1.378  16.727 -0.2989 -0.0648  0.2584
 1927TIP3    H129976   4.147   1.436  16.753  0.2757  0.7425  0.0966
 1927TIP3    H229977   4.203   1.362  16.634 -0.1896  0.2312  0.1878
 1928TIP3   OH229978   0.447   2.550  17.005  0.2691 -0.9106  0.1342
 1928TIP3    H129979   0.531   2.513  16.980 -0.9421 -2.5970 -1.7305
 1928TIP3    H229980   0.407   2.577  16.922 -0.7999  0.4352  1.0331
 1929TIP3   OH229981   5.721   1.132  17.734  0.1779 -0.2882 -0.4854
 1929TIP3    H129982   5.673   1.106  17.813 -0.5517  1.9519 -0.1087
 1929TIP3    H229983   5.778   1.058  17.716 -2.5023 -2.6235 -0.2457
 1930TIP3   OH229984   0.583   6.765  17.075 -0.2677  0.0937 -0.1733
 1930TIP3    H129985   0.554   6.695  17.134 -0.1237  1.4768  1.6190
 1930TIP3    H229986   0.678   6.763  17.080 -0.2462  0.0462 -0.5819
 1931TIP3   OH229987   5.048   5.446  16.563  0.2842 -0.0707 -0.2144
 1931TIP3    H129988   5.021   5.526  16.518 -1.3987 -0.9312 -0.8599
 1931TIP3    H229989   5.143   5.448  16.561  0.2870  1.8733 -0.2572
 1932TIP3   OH229990   0.159   0.491  17.533  0.2695  0.0052  0.2791
 1932TIP3    H129991   0.097   0.440  17.587  1.5982 -1.6611  0.3107
 1932TIP3    H229992   0.206   0.545  17.596  0.8423 -0.9035  0.6636
 1933TIP3   OH229993   5.415   3.216  17.896  0.4396 -0.3185 -0.1692
 1933TIP3    H129994   5.348   3.191  17.832  0.3898 -0.2435 -0.1452
 1933TIP3    H229995   5.368   3.222  17.979  0.2787  0.7345 -0.3306
 1934TIP3   OH229996   4.277   3.025  16.190 -0.2780  0.4289 -0.2250
 1934TIP3    H129997   4.286   2.930  16.191 -0.1510  0.4283 -1.2758
 1934TIP3    H229998   4.185   3.040  16.170 -0.1434  0.5335 -0.7653
 1935TIP3   OH229999   6.057   2.428  15.601  0.8110 -0.7360 -0.1367
 1935TIP3    H130000   6.021   2.472  15.678 -0.8128 -0.5430 -0.9647
 1935TIP3    H230001   6.145   2.402  15.628  0.7371  0.4007  1.3686
 1936TIP3   OH230002   6.534   3.377  15.988  0.2212  0.7128  0.0324
 1936TIP3    H130003   6.545   3.372  15.893 -0.8087  0.1618 -0.0838
 1936TIP3    H230004   6.440   3.362  16.001  0.4841 -0.0478  1.1849
 1937TIP3   OH230005   5.039   3.819  14.608 -0.1621  0.0681  0.5930
 1937TIP3    H130006   4.949   3.834  14.637  0.0394 -0.1457  1.3539
 1937TIP3    H230007   5.069   3.904  14.577 -0.5013  0.2227  0.6858
 1938TIP3   OH230008   1.852   0.511  15.025  0.2068 -0.0857  0.3619
 1938TIP3    H130009   1.815   0.423  15.030 -0.9448  0.3101 -0.6641
 1938TIP3    H230010   1.943   0.501  15.053 -0.1750 -1.4187  1.1815
 1939TIP3   OH230011   4.466   2.674  15.664 -0.0395  0.4050  0.2470
 1939TIP3    H130012   4.463   2.650  15.571 -0.8606  0.1677  0.3264
 1939TIP3    H230013   4.375   2.673  15.692  0.1663  0.8730  0.9625
 1940TIP3   OH230014   4.770   5.986  17.524 -0.1792  0.5240 -0.6074
 1940TIP3    H130015   4.777   6.048  17.596  0.2695  0.0996 -0.2798
 1940TIP3    H230016   4.677   5.986  17.501 -0.6886 -0.7716  1.2737
 1941TIP3   OH230017   2.169   5.669  17.767 -0.3987  0.0902 -0.1221
 1941TIP3    H130018   2.195   5.726  17.694  0.1152 -0.2496 -0.2055
 1941TIP3    H230019   2.242   5.673  17.828 -1.3256  1.3274  0.9557
 1942TIP3   OH230020   0.049   4.554  17.662  0.2032 -0.0973  0.1502
 1942TIP3    H130021   0.002   4.625  17.618  0.5523 -0.1462 -0.3150
 1942TIP3    H230022  -0.003   4.476  17.644 -0.4710  0.1201  1.1185
 1943TIP3   OH230023   0.355   0.944  16.615 -0.5212  0.0417 -0.2628
 1943TIP3    H130024   0.394   0.861  16.588 -1.0718  0.0556 -1.1493
 1943TIP3    H230025   0.299   0.921  16.690 -0.5626 -0.3675 -0.4167
 1944TIP3   OH230026   0.251   3.458  17.792 -0.4669 -0.2070  0.6452
 1944TIP3    H130027   0.176   3.463  17.733 -0.1950  2.0153  0.4305
 1944TIP3    H230028   0.253   3.542  17.837  1.7360 -0.3014  0.8496
 1945TIP3   OH230029   2.765   3.682  14.921  0.3113  0.2143 -0.2808
 1945TIP3    H130030   2.848   3.715  14.955  0.0600  0.6096 -0.0420
 1945TIP3    H230031   2.757   3.594  14.958  0.6476  0.1541 -0.3494
 1946TIP3   OH230032   1.262   1.747  15.140 -0.2351 -0.4566  0.0635
 1946TIP3    H130033   1.238   1.750  15.047 -2.2242 -0.0730  0.5425
 1946TIP3    H230034   1.281   1.837  15.164  1.4664 -0.7085 -0.2182
 1947TIP3   OH230035   3.573   0.295  15.689  0.1069  0.0319 -0.0604
 1947TIP3    H130036   3.628   0.227  15.650  0.8265 -0.0955  1.0975
 1947TIP3    H230037   3.500   0.247  15.728 -1.7290  0.3191 -2.8802
 1948TIP3   OH230038   0.719   2.843  16.645 -0.0988 -0.5561  0.2229
 1948TIP3    H130039   0.811   2.819  16.631  0.7107  1.3302  1.7996
 1948TIP3    H230040   0.701   2.813  16.734 -0.6713  0.0543  0.3132
 1949TIP3   OH230041   1.296   5.347  17.766 -0.1084  0.4095  0.1157
 1949TIP3    H130042   1.204   5.351  17.790  0.1810  0.7522  1.2395
 1949TIP3    H230043   1.307   5.416  17.701 -0.0995  2.2152  1.9631
 1950TIP3   OH230044   5.441   6.429  16.892 -0.2538 -0.0068  0.5478
 1950TIP3    H130045   5.386   6.375  16.836 -1.0177  0.3128  0.9795
 1950TIP3    H230046   5.461   6.374  16.968 -0.2586 -0.0057  0.5504
 1951TIP3   OH230047   3.256   3.418  17.323  0.4026  1.0044  0.1756
 1951TIP3    H130048   3.332   3.362  17.304  0.6329  1.2816  0.2838
 1951TIP3    H230049   3.239   3.462  17.240 -1.6480 -1.4367 -0.8404
 1952TIP3   OH230050   5.054   2.113  15.266  0.1019 -0.2678  0.3039
 1952TIP3    H130051   5.033   2.149  15.179 -0.3152  2.0289  1.2816
 1952TIP3    H230052   5.149   2.116  15.271  0.3968 -3.3050 -1.1520
 1953TIP3   OH230053   5.956   5.607  17.407  0.0188  0.0434 -0.3702
 1953TIP3    H130054   6.046   5.636  17.418  0.5947 -1.2191 -1.3536
 1953TIP3    H230055   5.936   5.558  17.487  1.0450 -1.5929 -1.0526
 1954TIP3   OH230056   4.837   3.707  16.062 -0.4560  0.0523  0.7549
 1954TIP3    H130057   4.892   3.698  16.140 -2.9751 -2.1299  2.4441
 1954TIP3    H230058   4.814   3.617  16.039 -1.4011  0.7795 -1.3351
 1955TIP3   OH230059   6.169   0.370  16.314 -0.0315  0.1693  0.0528
 1955TIP3    H130060   6.085   0.330  16.289 -0.3686  0.8396  0.0996
 1955TIP3    H230061   6.181   0.343  16.405 -1.0797  1.5006  0.6255
 1956TIP3   OH230062   6.522   6.141  16.593  0.0482 -0.0744  0.4451
 1956TIP3    H130063   6.605   6.123  16.548 -1.4834 -3.1155 -1.5681
 1956TIP3    H230064   6.522   6.081  16.667 -0.4638 -0.3585  0.2231
 1957TIP3   OH230065   5.931   4.588  15.614  0.2287 -0.4450  0.1002
 1957TIP3    H130066   5.840   4.592  15.641  0.0882 -0.9556 -0.2880
 1957TIP3    H230067   5.950   4.495  15.603 -0.0541 -0.2628 -2.5621
 1958TIP3   OH230068   5.038   4.072  16.196  0.3094 -0.1707  0.2299
 1958TIP3    H130069   5.037   4.156  16.150  1.2946 -0.3623 -0.1523
 1958TIP3    H230070   5.130   4.048  16.201 -0.0668 -2.2368 -1.5385
 1959TIP3   OH230071   2.271   5.654  16.490 -0.3097 -0.1671  0.1959
 1959TIP3    H130072   2.186   5.649  16.534  0.4848  1.8336  2.2107
 1959TIP3    H230073   2.268   5.737  16.443 -0.5384 -1.5368 -2.3364
 1960TIP3   OH230074   3.372   6.355  16.938 -0.0897  0.1791 -0.2659
 1960TIP3    H130075   3.348   6.324  16.851  2.7803 -0.9930 -0.7487
 1960TIP3    H230076   3.345   6.285  16.997 -1.5904  0.7583 -0.2277
 1961TIP3   OH230077   6.091   6.523  17.682  0.0735 -0.1803  0.4441
 1961TIP3    H130078   6.082   6.550  17.590 -0.0839 -1.9196 -0.0848
 1961TIP3    H230079   6.175   6.560  17.710 -0.8191  2.1728  0.2979
 1962TIP3   OH230080   1.666   0.805  16.355  0.1068  0.1229  0.4530
 1962TIP3    H130081   1.755   0.771  16.348 -0.0861 -0.3082 -0.0030
 1962TIP3    H230082   1.625   0.782  16.271 -0.2605  0.8229  0.4295
 1963TIP3   OH230083   4.450   3.122  16.388  0.2170 -0.7780  0.4324
 1963TIP3    H130084   4.388   3.110  16.460 -1.4231 -3.0885 -1.2276
 1963TIP3    H230085   4.398   3.111  16.309  2.5468 -1.9376 -1.0627
 1964TIP3   OH230086   2.203   4.181  17.620 -0.5198  0.1846  0.0930
 1964TIP3    H130087   2.264   4.252  17.638  2.8035 -2.2782 -0.6117
 1964TIP3    H230088   2.173   4.153  17.707  1.2486 -0.0570  0.6538
 1965TIP3   OH230089   3.799   2.766  15.190 -0.1617  0.2495 -0.3082
 1965TIP3    H130090   3.849   2.685  15.179 -0.2703  0.0698  0.5107
 1965TIP3    H230091   3.849   2.831  15.140  0.1923 -0.2074 -0.5635
 1966TIP3   OH230092   0.233   1.797  17.562  0.2297  0.4692  0.0389
 1966TIP3    H130093   0.151   1.752  17.544 -0.8149  2.6045 -0.8262
 1966TIP3    H230094   0.248   1.782  17.655 -0.8475 -0.4020  0.0959
 1967TIP3   OH230095   4.816   6.724  14.493  0.2063 -0.5110  0.0768
 1967TIP3    H130096   4.843   6.655  14.433  1.1562  1.0886 -1.4568
 1967TIP3    H230097   4.888   6.729  14.557  1.4825  0.7440 -1.3651
 1968TIP3   OH230098   4.325   3.829  16.250 -0.0622 -0.9975 -0.1364
 1968TIP3    H130099   4.343   3.917  16.285  0.5055 -1.4166  0.6535
 1968TIP3    H230100   4.280   3.845  16.167  1.6565  0.0759 -0.9159
 1969TIP3   OH230101   2.822   0.983  14.336  0.3854  0.0305  0.1300
 1969TIP3    H130102   2.896   0.959  14.392 -0.2056 -0.6079  0.6442
 1969TIP3    H230103   2.841   0.940  14.253  0.9837  0.5267 -0.0056
 1970TIP3   OH230104   3.750   2.021  15.819  0.7613 -0.7154  0.1979
 1970TIP3    H130105   3.685   2.082  15.856  0.7192 -0.4411 -0.3206
 1970TIP3    H230106   3.829   2.035  15.872  0.7027 -0.3262  0.1845
 1971TIP3   OH230107   0.722   2.164  15.066 -0.4173  0.2755  0.3526
 1971TIP3    H130108   0.709   2.094  15.003  0.5686  0.5962 -0.2224
 1971TIP3    H230109   0.666   2.141  15.140 -1.1279 -0.4098 -0.3906
 1972TIP3   OH230110   0.036   4.866  16.308  0.1540  0.3695 -0.0331
 1972TIP3    H130111   0.101   4.896  16.371  0.3270 -0.7925  0.3614
 1972TIP3    H230112   0.084   4.806  16.251  0.1333  1.8036 -1.6468
 1973TIP3   OH230113   1.030   0.708  16.551 -0.1545 -0.1961  0.3642
 1973TIP3    H130114   1.091   0.756  16.496 -0.3160 -0.4686 -0.0558
 1973TIP3    H230115   0.998   0.773  16.614 -1.0344  0.4790 -0.7337
 1974TIP3   OH230116   3.346   1.484  15.967 -0.0242  0.2290  0.2048
 1974TIP3    H130117   3.265   1.534  15.971  0.2129  0.6202  0.1955
 1974TIP3    H230118   3.323   1.404  15.920  0.5654  2.3155 -4.1177
 1975TIP3   OH230119   3.827   3.668  17.641 -0.2598 -0.1543  0.3199
 1975TIP3    H130120   3.902   3.633  17.687 -0.3833  0.7983  1.2981
 1975TIP3    H230121   3.820   3.616  17.561  0.9274 -0.7861  0.6181
 1976TIP3   OH230122   6.237   3.495  18.122 -0.2452 -0.3645 -0.5829
 1976TIP3    H130123   6.146   3.503  18.151 -0.5480 -1.1676 -1.2435
 1976TIP3    H230124   6.238   3.413  18.071  1.1057 -0.9943  0.3965
 1977TIP3   OH230125   2.660   4.772  16.521  0.1051  0.1851 -0.7641
 1977TIP3    H130126   2.580   4.816  16.493 -0.7321 -0.4628  0.5011
 1977TIP3    H230127   2.652   4.683  16.487  0.3784  0.1712 -0.7955
 1978TIP3   OH230128   3.686   6.738  18.121 -0.1231  0.2362 -0.4123
 1978TIP3    H130129   3.736   6.751  18.202 -0.1048 -0.7707 -0.2463
 1978TIP3    H230130   3.619   6.807  18.124  0.2068  0.5436  0.2002
 1979TIP3   OH230131   5.682   6.681  17.356 -0.6566 -0.2051 -0.1172
 1979TIP3    H130132   5.605   6.643  17.399 -0.3254 -1.1473 -0.3256
 1979TIP3    H230133   5.756   6.650  17.408 -0.3750  0.2511 -0.2411
 1980TIP3   OH230134   6.282   5.075  16.362  0.2629 -0.2030 -0.3960
 1980TIP3    H130135   6.352   5.118  16.411  1.4685 -1.2646 -1.1375
 1980TIP3    H230136   6.237   5.147  16.318  2.6233  0.3329 -2.1237
 1981TIP3   OH230137   2.891   5.648  16.958  0.0879 -0.3581 -0.1066
 1981TIP3    H130138   2.884   5.600  17.040  0.5377 -0.9548 -0.4103
 1981TIP3    H230139   2.869   5.739  16.981  0.3714 -0.4853  0.7041
 1982TIP3   OH230140   5.514   1.264  14.845 -0.1182 -0.3337 -0.7362
 1982TIP3    H130141   5.570   1.200  14.888 -0.3249  0.8578  1.4224
 1982TIP3    H230142   5.559   1.282  14.762  1.1375 -1.5464 -0.3621
 1983TIP3   OH230143   5.595   3.114  17.157  0.4519 -0.2679 -0.0470
 1983TIP3    H130144   5.536   3.130  17.083  0.3671 -2.4694 -0.4971
 1983TIP3    H230145   5.678   3.090  17.118  0.4387 -1.3524  0.5430
 1984TIP3   OH230146   1.964   3.675  15.737  0.6580 -0.4533  0.7123
 1984TIP3    H130147   1.918   3.655  15.655  1.0338  2.0222 -0.1900
 1984TIP3    H230148   2.057   3.667  15.715  0.8704  2.4243  0.1147
 1985TIP3   OH230149   0.911   1.681  14.897  0.8797  0.3894 -0.1357
 1985TIP3    H130150   0.997   1.643  14.880  1.0989  0.5815  0.4934
 1985TIP3    H230151   0.930   1.762  14.944  0.3594  0.4925 -0.0964
 1986TIP3   OH230152   0.750   4.460  16.282 -0.3719 -1.2090  0.7858
 1986TIP3    H130153   0.816   4.442  16.215 -1.0012 -1.3160  0.1830
 1986TIP3    H230154   0.789   4.529  16.336 -1.0478  1.1470 -1.5490
 1987TIP3   OH230155   5.351   3.235  16.493 -0.0297 -0.3980 -0.0703
 1987TIP3    H130156   5.315   3.296  16.557 -0.8575 -1.0573  0.1067
 1987TIP3    H230157   5.328   3.148  16.526 -0.8292 -0.7397 -1.4472
 1988TIP3   OH230158   1.361   2.371  16.420  0.7723 -0.4147 -0.5511
 1988TIP3    H130159   1.279   2.420  16.416  1.7650  1.3120 -0.5878
 1988TIP3    H230160   1.337   2.283  16.393 -1.3405 -0.3374  0.8233
 1989TIP3   OH230161   6.377   1.479  16.016  0.7391 -0.3582  0.0251
 1989TIP3    H130162   6.464   1.449  16.043  0.7459 -1.4128 -1.0997
 1989TIP3    H230163   6.387   1.504  15.924 -0.2390 -0.8856 -0.2381
 1990TIP3   OH230164   5.920   4.026  15.151 -0.0235  0.3653 -0.1069
 1990TIP3    H130165   5.855   4.028  15.081 -1.7218  2.1788  1.3982
 1990TIP3    H230166   5.916   3.937  15.186 -2.8655  0.7752  0.8890
 1991TIP3   OH230167   4.732   2.365  17.858  0.3079  0.1832 -0.4931
 1991TIP3    H130168   4.807   2.351  17.916 -0.0723 -2.5522 -0.5304
 1991TIP3    H230169   4.770   2.370  17.770  0.4844 -1.3353 -0.5289
 1992TIP3   OH230170   0.074   0.908  16.226  0.3395  0.5559 -0.2565
 1992TIP3    H130171   0.017   0.865  16.289 -0.8672  0.6031 -1.2748
 1992TIP3    H230172   0.102   0.988  16.270 -3.1255  2.2928 -0.8476
 1993TIP3   OH230173   2.491   3.834  16.850 -0.3881  0.3109  0.5564
 1993TIP3    H130174   2.477   3.928  16.851  1.5802  0.6542  0.1251
 1993TIP3    H230175   2.431   3.800  16.917  0.2398  2.0962  2.1189
 1994TIP3   OH230176   0.029   1.019  16.666 -0.1536  0.0642  0.5384
 1994TIP3    H130177   0.051   1.028  16.573  1.2322  0.0823  0.8476
 1994TIP3    H230178  -0.015   0.934  16.672  1.5880 -0.9348  0.1423
 1995TIP3   OH230179   6.604   3.739  15.795  0.3888 -0.1345 -0.1309
 1995TIP3    H130180   6.655   3.662  15.820 -0.6519 -1.1505 -0.9833
 1995TIP3    H230181   6.589   3.728  15.701  1.1005  1.6743 -0.4943
 1996TIP3   OH230182   4.250   0.896  15.753 -0.6470 -0.6407  0.3141
 1996TIP3    H130183   4.263   0.944  15.671  1.7748 -0.4742  0.7289
 1996TIP3    H230184   4.180   0.944  15.797 -0.3348  0.7286 -0.5946
 1997TIP3   OH230185   3.458   1.749  16.323  0.1511  0.0728 -0.5172
 1997TIP3    H130186   3.530   1.768  16.384 -0.4451  1.1683 -0.1337
 1997TIP3    H230187   3.496   1.765  16.236  0.4418  0.3947 -0.3333
 1998TIP3   OH230188   6.272   2.861  15.363  0.1936 -0.0175 -0.4791
 1998TIP3    H130189   6.260   2.862  15.268 -0.2238 -0.0262 -0.4288
 1998TIP3    H230190   6.286   2.953  15.387 -0.4675  0.0843 -0.4600
 1999TIP3   OH230191   6.726   5.267  14.745 -0.6245  0.0773  0.6240
 1999TIP3    H130192   6.779   5.220  14.809 -0.4922  0.3032  0.6822
 1999TIP3    H230193   6.785   5.281  14.671 -0.3851  0.9381  0.9638
 2000TIP3   OH230194   5.997   3.062  16.741 -0.6599  0.1175  0.4297
 2000TIP3    H130195   5.970   3.097  16.657 -1.5622  0.1068  0.7086
 2000TIP3    H230196   5.961   2.973  16.743  0.8911 -0.5550  0.0799
 2001TIP3   OH230197   0.584   1.979  16.826 -0.1622 -0.0345 -0.6265
 2001TIP3    H130198   0.670   1.944  16.850 -0.1074  0.4030 -0.1811
 2001TIP3    H230199   0.530   1.964  16.903 -0.4304 -0.1097 -0.8273
 2002TIP3   OH230200   5.654   6.673  17.053  0.0664 -0.0803 -0.1570
 2002TIP3    H130201   5.606   6.592  17.039  1.7723 -1.3407  0.9205
 2002TIP3    H230202   5.693   6.663  17.140  0.3117  1.9115  0.0060
 2003TIP3   OH230203   5.053   1.114  17.761 -0.5432 -0.1747  0.3640
 2003TIP3    H130204   5.139   1.144  17.790  0.0371  1.0222 -2.2997
 2003TIP3    H230205   4.991   1.173  17.804 -0.1259 -1.2086  2.5119
 2004TIP3   OH230206   5.864   1.913  15.103 -0.4801 -0.0920 -0.5831
 2004TIP3    H130207   5.812   1.984  15.066 -1.3988  0.2010  1.1287
 2004TIP3    H230208   5.826   1.834  15.066 -1.6713  0.1659  0.0123
 2005TIP3   OH230209   4.449   6.645  17.604 -0.4485 -0.5109  0.1635
 2005TIP3    H130210   4.469   6.726  17.651  0.3955 -0.9238  0.5403
 2005TIP3    H230211   4.471   6.665  17.512 -1.8975  0.2271 -0.0549
 2006TIP3   OH230212   0.608   3.132  17.148 -0.1490  0.5806  0.5621
 2006TIP3    H130213   0.559   3.209  17.122 -1.1616  0.4199  1.8801
 2006TIP3    H230214   0.694   3.165  17.174 -0.2943  1.1550  0.3149
 2007TIP3   OH230215   4.097   1.438  15.756 -0.3260 -0.1880 -0.0449
 2007TIP3    H130216   4.013   1.469  15.789 -0.5697  0.3668 -1.1199
 2007TIP3    H230217   4.162   1.474  15.817 -0.9306 -1.9991  1.7626
 2008TIP3   OH230218   4.554   6.478  16.614 -0.1892 -0.0074  0.1892
 2008TIP3    H130219   4.529   6.555  16.561 -0.4845  0.1525  0.5587
 2008TIP3    H230220   4.594   6.418  16.551 -2.3597 -0.6933 -0.6373
 2009TIP3   OH230221   1.487   2.593  17.997 -0.1449 -0.2947 -0.1630
 2009TIP3    H130222   1.421   2.536  17.958 -0.0081  0.0057 -0.8378
 2009TIP3    H230223   1.562   2.535  18.012  0.0424 -0.2761 -0.9722
 2010TIP3   OH230224   3.518   0.644  16.590  0.2207 -0.9763 -0.3764
 2010TIP3    H130225   3.531   0.738  16.575  0.0561 -0.9291 -0.2228
 2010TIP3    H230226   3.445   0.621  16.533  2.2396 -1.6769 -2.8591
 2011TIP3   OH230227   5.188   0.762  16.025  0.5026  0.1966 -0.2383
 2011TIP3    H130228   5.176   0.848  15.984 -0.9881  1.0748  1.9215
 2011TIP3    H230229   5.276   0.766  16.063  0.6330  0.5522 -0.5683
 2012TIP3   OH230230   2.072   6.016  16.386 -0.6167  0.3699  0.3565
 2012TIP3    H130231   2.005   5.969  16.435  0.3500  1.8175  3.3078
 2012TIP3    H230232   2.037   6.105  16.378 -1.0724  0.0294 -2.3942
 2013TIP3   OH230233   4.528   0.326  17.220  0.2455  0.1714 -0.0511
 2013TIP3    H130234   4.470   0.263  17.263  1.3975  0.4767  2.0890
 2013TIP3    H230235   4.482   0.410  17.228 -1.1232 -0.2495 -2.5862
 2014TIP3   OH230236   1.817   3.040  16.998 -0.4985  0.1043  0.0145
 2014TIP3    H130237   1.746   3.100  16.977 -1.0393 -0.5834 -0.1441
 2014TIP3    H230238   1.853   3.074  17.080 -0.7542  0.6741 -0.1014
 2015TIP3   OH230239   3.116   5.061  16.361  0.0492  0.4353  0.2262
 2015TIP3    H130240   3.150   5.139  16.403 -0.9922  1.1435 -0.1973
 2015TIP3    H230241   3.178   5.043  16.290 -0.4183  1.6874 -0.5301
 2016TIP3   OH230242   2.123   0.510  15.050 -0.2436  0.2266  0.4041
 2016TIP3    H130243   2.202   0.494  15.102 -0.3186  1.1707  0.8287
 2016TIP3    H230244   2.146   0.584  14.994 -0.5030 -0.1336 -0.1857
 2017TIP3   OH230245   2.381   5.938  14.879 -0.3039  0.0950 -0.2870
 2017TIP3    H130246   2.418   6.001  14.817 -1.3515  0.4921 -0.5168
 2017TIP3    H230247   2.288   5.934  14.857 -0.4189 -0.8459  0.3278
 2018TIP3   OH230248   5.432   5.730  17.094  0.2192  0.0914  0.3517
 2018TIP3    H130249   5.496   5.659  17.097  0.2769  0.0548 -1.0224
 2018TIP3    H230250   5.410   5.738  17.001 -2.4986 -0.5529  0.8482
 2019TIP3   OH230251   4.419   4.573  16.443  0.2118 -0.4525 -0.3284
 2019TIP3    H130252   4.499   4.623  16.462 -0.5987  0.9327 -0.4364
 2019TIP3    H230253   4.397   4.597  16.353 -0.7941 -0.1521 -0.0109
 2020TIP3   OH230254   3.180   0.797  15.588  0.2360  0.0512 -0.3445
 2020TIP3    H130255   3.088   0.803  15.611  0.1627  1.0387 -0.8812
 2020TIP3    H230256   3.187   0.717  15.535 -0.4366  0.3408 -0.8786
 2021TIP3   OH230257   5.187   0.645  14.917  0.8549 -0.9483  0.0422
 2021TIP3    H130258   5.118   0.640  14.982 -0.5798  1.6914 -1.1105
 2021TIP3    H230259   5.194   0.738  14.897  3.3198 -1.3619 -1.4113
 2022TIP3   OH230260   5.644   4.613  15.673 -0.3709  0.4788  0.3198
 2022TIP3    H130261   5.621   4.636  15.763 -0.4263 -0.4990  0.5665
 2022TIP3    H230262   5.559   4.605  15.628 -0.4477 -0.9549  0.6805
 2023TIP3   OH230263   0.288   5.886  15.892 -0.4488  0.0756 -0.2008
 2023TIP3    H130264   0.214   5.826  15.891  0.1017 -0.6449  0.5402
 2023TIP3    H230265   0.360   5.834  15.928  0.2872  0.9013 -0.4486
 2024TIP3   OH230266   5.466   0.091  16.471  0.6623  0.0599 -0.0512
 2024TIP3    H130267   5.392   0.111  16.527 -0.0705  1.1597 -1.3314
 2024TIP3    H230268   5.515   0.023  16.517 -0.6616 -0.0601  1.2215
 2025TIP3   OH230269   6.715   0.766  16.764  0.2243 -0.2289  0.7016
 2025TIP3    H130270   6.709   0.822  16.841 -0.9784  0.4681  0.1425
 2025TIP3    H230271   6.678   0.682  16.791 -0.3150  0.0539  0.8644
 2026TIP3   OH230272   5.729   1.429  17.761  0.0983  0.4115 -0.5484
 2026TIP3    H130273   5.706   1.336  17.762 -1.4118  0.6189  3.6574
 2026TIP3    H230274   5.645   1.475  17.761  0.7952  1.7618 -1.0718
 2027TIP3   OH230275   1.603   1.622  16.722  0.1619 -0.5606 -0.2402
 2027TIP3    H130276   1.667   1.693  16.711 -0.7630  0.7718  2.2473
 2027TIP3    H230277   1.533   1.643  16.661 -0.6598  1.4137  1.3085
 2028TIP3   OH230278   3.640   1.443  15.536 -0.1856 -0.3806 -0.2666
 2028TIP3    H130279   3.623   1.457  15.629  1.1467  1.2487 -0.2304
 2028TIP3    H230280   3.678   1.355  15.533 -0.6245 -0.6205  0.6641
 2029TIP3   OH230281   0.839   0.949  14.147 -0.3797 -0.1333  0.4512
 2029TIP3    H130282   0.872   0.884  14.084  0.4243 -0.1509  0.8690
 2029TIP3    H230283   0.896   0.938  14.224 -1.9730 -0.7921  1.5751
 2030TIP3   OH230284   3.411   4.153  17.985  0.1037  0.5725  0.2173
 2030TIP3    H130285   3.391   4.144  17.892  1.2511 -0.1521  0.0172
 2030TIP3    H230286   3.360   4.229  18.014  0.8723  1.7441 -1.3567
 2031TIP3   OH230287   6.168   4.586  17.043  0.4050 -0.2565 -0.4101
 2031TIP3    H130288   6.136   4.498  17.023 -1.6060  0.1958  0.4931
 2031TIP3    H230289   6.177   4.587  17.138  0.4423  0.4862 -0.4179
 2032TIP3   OH230290   2.564   6.579  18.369 -0.3180  0.4752 -0.2906
 2032TIP3    H130291   2.618   6.638  18.421  0.0176  1.8987 -2.1195
 2032TIP3    H230292   2.609   6.495  18.374 -0.6105  0.4094  2.0981
 2033TIP3   OH230293   0.462   0.160  17.741 -0.0997 -0.8365 -0.8535
 2033TIP3    H130294   0.391   0.142  17.803 -0.6870 -2.1028 -1.8531
 2033TIP3    H230295   0.419   0.199  17.665  0.5540  0.2445 -0.6905
 2034TIP3   OH230296   3.583   5.905  16.131 -0.4148 -0.0271  0.1787
 2034TIP3    H130297   3.534   5.985  16.111 -2.1920 -0.9064  0.7404
 2034TIP3    H230298   3.523   5.834  16.107  0.0623 -1.1605  2.1346
 2035TIP3   OH230299   5.965   4.424  16.454 -0.1146  0.0843 -0.4525
 2035TIP3    H130300   6.046   4.397  16.412 -0.5930 -1.2662 -0.5403
 2035TIP3    H230301   5.962   4.519  16.442  0.7212 -0.0378 -1.7231
 2036TIP3   OH230302   4.018   1.826  16.568 -0.0879 -0.3323  0.6499
 2036TIP3    H130303   4.053   1.738  16.552  0.1199 -0.0763 -0.4196
 2036TIP3    H230304   3.934   1.812  16.610  0.4599 -1.0070  1.5605
 2037TIP3   OH230305   4.714   5.397  14.883  0.1511  0.3411 -0.4712
 2037TIP3    H130306   4.640   5.424  14.828 -0.2398 -0.6373 -0.4324
 2037TIP3    H230307   4.763   5.335  14.829 -0.2760 -0.6862  0.3039
 2038TIP3   OH230308   5.903   1.700  17.382  0.4044  0.3478 -0.2168
 2038TIP3    H130309   5.896   1.740  17.468 -0.5981  1.0814 -0.6228
 2038TIP3    H230310   5.902   1.606  17.399 -0.8040  0.4723  0.5185
 2039TIP3   OH230311   4.576   2.971  18.096 -0.1265 -1.0937  0.3862
 2039TIP3    H130312   4.559   3.065  18.088  0.6447 -0.9218  0.6457
 2039TIP3    H230313   4.564   2.952  18.189 -0.6172 -1.3243  0.2772
 2040TIP3   OH230314   1.091   1.711  14.546 -0.1199 -0.0660  0.2524
 2040TIP3    H130315   1.166   1.754  14.586 -1.1432  0.7268  1.3803
 2040TIP3    H230316   1.071   1.638  14.604 -0.1982 -0.2897 -0.0566
 2041TIP3   OH230317   2.577   0.470  15.891 -0.0259 -0.5145  0.0083
 2041TIP3    H130318   2.498   0.493  15.843 -0.0401  1.0867  0.7191
 2041TIP3    H230319   2.546   0.412  15.961 -0.3815 -0.8836 -0.4528
 2042TIP3   OH230320   2.565   4.541  17.957  0.3410  0.2481  0.3538
 2042TIP3    H130321   2.535   4.622  17.917 -1.9404 -0.3764  0.6316
 2042TIP3    H230322   2.617   4.498  17.890  0.0985  1.1410 -0.4200
 2043TIP3   OH230323   3.176   0.198  15.532  0.1434 -0.2207  0.2749
 2043TIP3    H130324   3.168   0.113  15.487 -2.6583  1.2576 -2.3970
 2043TIP3    H230325   3.225   0.253  15.471 -0.2677  0.7844  0.8241
 2044TIP3   OH230326   2.670   3.390  15.752  0.0000 -0.1433  0.0292
 2044TIP3    H130327   2.684   3.380  15.847  1.6499 -2.0987 -0.3290
 2044TIP3    H230328   2.651   3.301  15.722  1.4983  0.0752 -1.7364
 2045TIP3   OH230329   6.272   2.511  15.744 -0.6908  0.3890  0.4827
 2045TIP3    H130330   6.349   2.456  15.729 -0.2820  1.2108 -0.5861
 2045TIP3    H230331   6.304   2.583  15.799 -0.5572  0.9948 -0.3676
 2046TIP3   OH230332   5.115   6.626  14.699  0.2205 -0.0153 -0.0520
 2046TIP3    H130333   5.024   6.654  14.713  0.5983  1.7586 -0.8303
 2046TIP3    H230334   5.117   6.593  14.609  0.4172  0.3107 -0.1698
 2047TIP3   OH230335   0.714   2.477  17.383  0.4866  0.1636  0.0321
 2047TIP3    H130336   0.807   2.499  17.382  1.2199 -2.4646  1.4009
 2047TIP3    H230337   0.685   2.500  17.471  0.3690 -0.9225  0.2810
 2048TIP3   OH230338   1.292   0.611  16.960  0.4344  0.0211  0.2510
 2048TIP3    H130339   1.351   0.551  16.914  0.1865  0.8688 -1.2395
 2048TIP3    H230340   1.207   0.569  16.957  0.4890 -0.0895  0.2487
 2049TIP3   OH230341   4.528   0.196  16.104 -0.0353  0.4724  0.7596
 2049TIP3    H130342   4.515   0.101  16.101  1.2967  0.2877 -0.9462
 2049TIP3    H230343   4.506   0.226  16.015  1.2904  1.4840  0.7356
 2050TIP3   OH230344   6.016   2.972  15.093 -0.2154 -0.3446  0.2394
 2050TIP3    H130345   5.994   2.941  15.181  0.7023 -0.1315  0.5523
 2050TIP3    H230346   6.043   3.063  15.105 -1.6595  0.2144 -0.5056
 2051TIP3   OH230347   0.524   1.623  15.439 -0.7333  0.4879  0.7633
 2051TIP3    H130348   0.613   1.607  15.470  0.7837 -0.3790 -3.4563
 2051TIP3    H230349   0.495   1.539  15.403 -1.8738  1.5668 -0.9994
 2052TIP3   OH230350   0.933   1.721  15.360 -0.0186 -0.1052 -0.5171
 2052TIP3    H130351   0.911   1.765  15.278  0.4738 -1.1583 -1.2447
 2052TIP3    H230352   0.905   1.630  15.346 -1.1400 -0.0238  0.9840
 2053TIP3   OH230353   1.614   1.357  16.775 -0.1032  0.5429 -0.1822
 2053TIP3    H130354   1.568   1.313  16.703  1.3819  0.5556 -1.1710
 2053TIP3    H230355   1.624   1.447  16.746  0.3140  0.6005  0.1281
 2054TIP3   OH230356   4.898   5.622  15.710  0.5608 -0.1056 -0.2177
 2054TIP3    H130357   4.898   5.528  15.728  1.7736  0.0953  0.9340
 2054TIP3    H230358   4.833   5.633  15.640  0.0422 -1.7219 -0.0213
 2055TIP3   OH230359   6.373   2.711  15.893  0.3065 -0.1214  0.2699
 2055TIP3    H130360   6.334   2.789  15.933  0.4918  0.1216 -0.0178
 2055TIP3    H230361   6.452   2.744  15.849  2.2758 -0.9439  2.8874
 2056TIP3   OH230362   6.089   1.286  16.923  0.8160 -0.0835  0.2616
 2056TIP3    H130363   6.115   1.353  16.859  1.3978 -0.4957  0.0678
 2056TIP3    H230364   6.012   1.324  16.966  2.3670  1.6651  1.6457
 2057TIP3   OH230365   2.853   4.490  17.558  0.0968 -0.0848 -0.4305
 2057TIP3    H130366   2.839   4.480  17.464 -0.5054 -1.2127 -0.2413
 2057TIP3    H230367   2.906   4.415  17.583  0.8953  0.6115  0.0127
 2058TIP3   OH230368   4.886   3.215  17.235 -0.5293  0.1255  0.0200
 2058TIP3    H130369   4.913   3.221  17.143  0.7274 -0.8994  0.2920
 2058TIP3    H230370   4.965   3.239  17.285 -1.1352  0.4493  0.8422
 2059TIP3   OH230371   2.120   3.809  16.994 -0.1371 -0.7776 -0.2058
 2059TIP3    H130372   2.205   3.778  17.027 -0.7526 -1.7918  0.4625
 2059TIP3    H230373   2.111   3.897  17.030  1.0654 -0.2529 -1.0969
 2060TIP3   OH230374   4.819   4.655  15.368  0.2945  0.3354  0.4078
 2060TIP3    H130375   4.809   4.589  15.299 -0.0893  0.9762 -0.1781
 2060TIP3    H230376   4.767   4.729  15.336  1.4221  1.2439  0.6230
 2061TIP3   OH230377   5.762   0.995  17.385  0.3221  0.0703  0.1454
 2061TIP3    H130378   5.673   1.027  17.374  0.3415  0.0153 -0.1862
 2061TIP3    H230379   5.818   1.071  17.364  0.3587 -0.0312 -0.1352
 2062TIP3   OH230380   1.184   6.175  17.031 -0.0952 -0.0362  0.1050
 2062TIP3    H130381   1.247   6.236  17.069 -0.4625  0.5547 -0.2174
 2062TIP3    H230382   1.239   6.105  16.994  0.2396 -1.0607  2.3786
 2063TIP3   OH230383   6.553   5.628  16.004  0.4358 -0.0879  0.0203
 2063TIP3    H130384   6.640   5.666  15.996  0.8015 -1.1244 -1.1258
 2063TIP3    H230385   6.502   5.671  15.935  0.6179 -1.0153 -0.7037
 2064TIP3   OH230386   1.982   2.373  17.764  0.2651 -0.0912  0.4002
 2064TIP3    H130387   2.074   2.347  17.753  0.7664  2.0200 -0.9937
 2064TIP3    H230388   1.978   2.462  17.729 -2.6828 -0.7199 -1.1898
 2065TIP3   OH230389   4.602   3.754  16.735  0.2106  0.2468 -0.3805
 2065TIP3    H130390   4.674   3.735  16.675 -0.2921  0.2812 -1.0186
 2065TIP3    H230391   4.548   3.674  16.733  1.2765 -0.5855  1.6768
 2066TIP3   OH230392   1.954   5.167  16.427  1.0925  0.0225 -0.0423
 2066TIP3    H130393   1.958   5.097  16.362 -0.4961  0.8525 -1.1253
 2066TIP3    H230394   2.027   5.225  16.404  2.3386 -1.1512  0.7839
 2067TIP3   OH230395   4.148   1.963  17.409 -0.2205 -0.0244  0.0204
 2067TIP3    H130396   4.162   1.885  17.463  0.1790 -0.1903 -0.3172
 2067TIP3    H230397   4.074   2.008  17.450 -1.5205 -1.4003 -0.6799
 2068TIP3   OH230398   4.070   1.481  17.574  0.3256  0.3593  0.1447
 2068TIP3    H130399   3.979   1.472  17.603 -0.0509  0.5945 -0.9351
 2068TIP3    H230400   4.071   1.560  17.521  0.9127 -0.2763 -0.8095
 2069TIP3   OH230401   5.874   1.313  14.835  0.3061  0.4652 -0.6387
 2069TIP3    H130402   5.849   1.329  14.926  0.7699 -0.1602 -0.3971
 2069TIP3    H230403   5.807   1.358  14.783 -2.0398 -2.1408 -0.0300
 2070TIP3   OH230404   4.870   5.130  15.033  0.7583 -0.1505  0.2255
 2070TIP3    H130405   4.797   5.177  15.072  0.5801 -0.6160  0.4646
 2070TIP3    H230406   4.863   5.148  14.939  0.2428 -0.3139  0.2286
 2071TIP3   OH230407   6.717   0.372  14.819  0.2990  0.4131 -0.8957
 2071TIP3    H130408   6.678   0.419  14.745  0.4888  1.1836 -0.5167
 2071TIP3    H230409   6.811   0.370  14.800  0.2174 -0.4217 -1.2431
 2072TIP3   OH230410   3.845   6.591  17.061 -0.1911 -0.2316 -0.1256
 2072TIP3    H130411   3.862   6.668  17.005 -0.7202  1.1659  1.5445
 2072TIP3    H230412   3.797   6.531  17.004  1.0931  0.2255 -1.7876
 2073TIP3   OH230413   2.630   4.516  16.389 -0.2328 -0.0620  0.1989
 2073TIP3    H130414   2.639   4.479  16.301  0.8043 -0.8672  0.6254
 2073TIP3    H230415   2.591   4.446  16.441 -2.6811  1.0592 -0.0175
 2074TIP3   OH230416   1.230   1.343  15.433 -0.3242 -0.2186  0.2097
 2074TIP3    H130417   1.322   1.324  15.450 -0.2338 -2.0225 -1.9139
 2074TIP3    H230418   1.231   1.400  15.356 -0.9642  1.0361  1.1036
 2075TIP3   OH230419   1.122   4.578  17.931  0.2200  0.1288  0.1391
 2075TIP3    H130420   1.173   4.512  17.886 -0.3008 -1.9870  2.4300
 2075TIP3    H230421   1.106   4.541  18.018 -3.5487  1.4888  0.2091
 2076TIP3   OH230422   5.900   1.750  15.336  0.1627 -0.2045  0.1821
 2076TIP3    H130423   5.893   1.845  15.334  0.9549 -0.1432 -0.8190
 2076TIP3    H230424   5.892   1.724  15.244  0.7455 -1.0282  0.3595
 2077TIP3   OH230425   3.291   0.548  17.321 -0.6656 -0.4023 -0.3068
 2077TIP3    H130426   3.274   0.540  17.227 -1.8879 -0.8337 -0.0688
 2077TIP3    H230427   3.381   0.519  17.332 -1.0359 -1.9603 -1.1382
 2078TIP3   OH230428   4.163   1.718  16.035 -0.0341 -0.1831  0.3241
 2078TIP3    H130429   4.177   1.759  15.950  0.9862  0.0733  0.5902
 2078TIP3    H230430   4.180   1.625  16.020 -1.2671 -0.3672 -0.0440
 2079TIP3   OH230431   0.794   4.722  16.966  0.8771 -0.0446 -0.1558
 2079TIP3    H130432   0.799   4.817  16.961 -3.4398  0.4138  0.0558
 2079TIP3    H230433   0.737   4.705  17.041  0.7429 -2.7410 -0.7599
 2080TIP3   OH230434   0.608   0.375  16.984 -0.0212 -0.2350  0.0988
 2080TIP3    H130435   0.667   0.381  16.909 -1.1886  2.2432 -0.7113
 2080TIP3    H230436   0.662   0.402  17.059  0.6879 -1.0979 -0.0795
 2081TIP3   OH230437   2.103   4.478  15.075 -0.8241 -0.2395 -0.0375
 2081TIP3    H130438   2.135   4.407  15.019 -2.4795  0.1269 -1.5396
 2081TIP3    H230439   2.180   4.529  15.096  0.2716 -1.9340  0.3060
 2082TIP3   OH230440   1.069   2.479  14.046 -0.8923  0.5885 -0.0504
 2082TIP3    H130441   0.983   2.519  14.031 -1.4559  0.2884  2.1284
 2082TIP3    H230442   1.130   2.534  13.997 -2.0929  1.9137 -0.1133
 2083TIP3   OH230443   3.073   0.451  14.368 -0.2074 -0.0565  0.1546
 2083TIP3    H130444   3.097   0.540  14.341  0.0703 -0.3207 -0.4804
 2083TIP3    H230445   3.157   0.409  14.390 -0.3431 -0.1463  0.5078
 2084TIP3   OH230446   6.733   1.618  16.972  0.0853  0.1891 -0.3283
 2084TIP3    H130447   6.682   1.699  16.960  2.2134  1.7221  0.3041
 2084TIP3    H230448   6.729   1.602  17.066 -0.0955 -0.2861 -0.4165
 2085TIP3   OH230449   4.188   5.603  17.722  0.1926  0.4169 -0.4067
 2085TIP3    H130450   4.158   5.599  17.813  0.2878 -0.8875 -0.4151
 2085TIP3    H230451   4.121   5.653  17.677 -1.3201 -1.2614 -0.1433
 2086TIP3   OH230452   2.825   1.641  17.370  0.0217  0.8030  0.3779
 2086TIP3    H130453   2.759   1.622  17.303  0.0207  1.0195  0.3153
 2086TIP3    H230454   2.908   1.643  17.322  0.1381  0.0076  0.5463
 2087TIP3   OH230455   2.237   5.222  14.953  0.0875  0.5021  0.3161
 2087TIP3    H130456   2.244   5.130  14.976  0.8014  0.9324  1.9934
 2087TIP3    H230457   2.153   5.229  14.907  0.3749 -1.0928 -0.5213
 2088TIP3   OH230458   3.458   1.568  14.943 -0.0893 -0.0590 -0.0105
 2088TIP3    H130459   3.463   1.514  15.022 -1.3499 -0.7918 -0.4045
 2088TIP3    H230460   3.416   1.511  14.878 -1.3569  1.3566 -0.4780
 2089TIP3   OH230461   2.018   0.183  16.708 -0.0013 -0.0055  0.5122
 2089TIP3    H130462   2.013   0.141  16.623 -0.7735  2.6197 -0.8551
 2089TIP3    H230463   1.930   0.175  16.745 -0.7286  1.9785 -0.6385
 2090TIP3   OH230464   0.691   6.712  17.416  0.7450  0.2128  0.4759
 2090TIP3    H130465   0.639   6.673  17.345  1.1553  1.5742 -0.6204
 2090TIP3    H230466   0.661   6.803  17.421  1.8080  0.5556  0.9884
 2091TIP3   OH230467   4.689   4.122  17.192  0.3016 -0.5412 -0.0884
 2091TIP3    H130468   4.781   4.140  17.213  0.5402 -1.5038 -0.2319
 2091TIP3    H230469   4.690   4.102  17.098 -0.0833 -0.3942 -0.1254
 2092TIP3   OH230470   6.677   6.471  15.459 -0.5833 -0.4467  0.0170
 2092TIP3    H130471   6.734   6.405  15.419 -1.6163 -0.1803 -1.9652
 2092TIP3    H230472   6.715   6.555  15.432 -1.4329 -0.2616 -0.6096
 2093TIP3   OH230473   3.836   6.758  14.421 -0.3474 -0.3310 -0.2335
 2093TIP3    H130474   3.932   6.751  14.423 -0.4570 -2.8666  1.1816
 2093TIP3    H230475   3.807   6.670  14.397 -2.3246 -0.3745  2.0066
 2094TIP3   OH230476   4.941   5.823  14.888 -0.0753  0.4186 -0.4624
 2094TIP3    H130477   4.915   5.763  14.958  3.0061 -0.0075  0.4652
 2094TIP3    H230478   4.863   5.877  14.871 -2.0568 -1.9451  0.6309
 2095TIP3   OH230479   5.929   5.471  17.662 -0.0795  0.0558  0.4507
 2095TIP3    H130480   5.837   5.455  17.682  0.0531 -1.8281 -0.1634
 2095TIP3    H230481   5.944   5.563  17.683 -2.0389  0.3318  0.7611
 2096TIP3   OH230482   5.626   0.140  15.474  0.0690  0.1238 -0.2493
 2096TIP3    H130483   5.554   0.168  15.417 -0.9293 -0.7868  0.5155
 2096TIP3    H230484   5.606   0.181  15.559 -0.6107 -1.6120  0.4771
 2097TIP3   OH230485   5.156   0.464  17.917  0.8741  0.1926  0.3436
 2097TIP3    H130486   5.079   0.413  17.890  1.1060  1.1730 -2.5389
 2097TIP3    H230487   5.120   0.540  17.962  0.1573  0.3844 -0.5291
 2098TIP3   OH230488   5.784   3.227  16.871  0.3614  0.1020 -0.0895
 2098TIP3    H130489   5.846   3.300  16.872 -0.5639  0.9206 -1.0533
 2098TIP3    H230490   5.828   3.158  16.921  0.8613  1.6256  1.7082
 2099TIP3   OH230491   4.128   5.014  15.653  0.7884  0.6090 -0.0503
 2099TIP3    H130492   4.173   5.097  15.637  0.0379  0.9288 -0.5748
 2099TIP3    H230493   4.121   5.008  15.748  1.5376  0.7565  0.0258
 2100TIP3   OH230494   5.540   4.509  16.791 -0.3597  0.3657  0.2060
 2100TIP3    H130495   5.570   4.475  16.707 -0.4514  3.1647 -1.0962
 2100TIP3    H230496   5.611   4.491  16.852  0.4034 -0.3329 -0.8557
 2101TIP3   OH230497   2.222   3.861  16.450  0.2498 -0.5061  0.0113
 2101TIP3    H130498   2.272   3.818  16.381  0.1374  0.4057 -0.6588
 2101TIP3    H230499   2.164   3.793  16.484 -0.3294 -0.7576 -1.4134
 2102TIP3   OH230500   2.538   1.946  15.011  0.4505 -0.0866  0.0304
 2102TIP3    H130501   2.529   1.876  15.076  0.0320  0.9253  1.1170
 2102TIP3    H230502   2.625   1.934  14.975 -0.3578 -2.3918 -1.3300
 2103TIP3   OH230503   5.679   6.598  16.315 -0.3033 -0.6238 -0.0069
 2103TIP3    H130504   5.645   6.626  16.400  1.4626 -0.8135  0.8106
 2103TIP3    H230505   5.771   6.577  16.332  0.0786 -0.7136 -1.9626
 2104TIP3   OH230506   5.436   1.184  16.770  0.0345 -0.3511 -0.2533
 2104TIP3    H130507   5.453   1.124  16.842  1.2446 -0.2860 -0.4663
 2104TIP3    H230508   5.509   1.171  16.709  0.3482  1.3315 -0.3023
 2105TIP3   OH230509   4.740   6.725  15.140  0.0184  0.7527  0.0539
 2105TIP3    H130510   4.678   6.704  15.070  0.0010  1.4612 -0.1514
 2105TIP3    H230511   4.826   6.706  15.102 -0.1033 -1.1493  0.6657
 2106TIP3   OH230512   3.439   2.595  15.629  0.2603 -0.2773  0.1255
 2106TIP3    H130513   3.432   2.635  15.716 -0.1365  0.8785 -0.4127
 2106TIP3    H230514   3.350   2.602  15.593  0.9342  1.5106 -1.3058
 2107TIP3   OH230515   0.662   0.540  16.191 -0.4708  0.2470  1.0057
 2107TIP3    H130516   0.616   0.515  16.111  2.4170  1.6325 -1.2599
 2107TIP3    H230517   0.731   0.475  16.201 -0.2536  0.5974  1.8795
 2108TIP3   OH230518   0.457   3.535  15.415 -0.4039  0.0031  0.2146
 2108TIP3    H130519   0.368   3.531  15.380 -0.6588 -0.0872  0.8727
 2108TIP3    H230520   0.513   3.535  15.337 -1.0314  2.4513 -0.3334
 2109TIP3   OH230521   6.458   0.929  15.082 -0.4698  0.0290  0.0280
 2109TIP3    H130522   6.471   0.836  15.100  1.1828  0.5230  1.6272
 2109TIP3    H230523   6.445   0.969  15.168  0.9553  1.5557 -0.4106
 2110TIP3   OH230524   6.104   2.071  14.971 -0.6471  0.2827  0.4637
 2110TIP3    H130525   6.042   2.010  15.010 -1.7847  1.2526  0.2168
 2110TIP3    H230526   6.095   2.057  14.877  0.7572 -0.7446  0.4376
 2111TIP3   OH230527   5.151   1.039  15.066  0.5971  0.1034 -0.0494
 2111TIP3    H130528   5.152   0.949  15.100  0.6528 -0.3998 -1.3476
 2111TIP3    H230529   5.187   1.092  15.138 -2.5448 -0.3907  2.0946
 2112TIP3   OH230530   3.635   1.323  15.044  0.3939 -0.1205  0.8157
 2112TIP3    H130531   3.634   1.307  14.949  0.3738 -0.1914  0.8275
 2112TIP3    H230532   3.661   1.239  15.082  0.5895 -0.0406  0.8632
 2113TIP3   OH230533   0.506   5.925  16.130  0.4845  0.0238 -0.2515
 2113TIP3    H130534   0.477   5.982  16.201  1.3278  1.2443 -0.8480
 2113TIP3    H230535   0.602   5.929  16.134  0.6407 -2.8118  0.8097
 2114TIP3   OH230536   1.405   1.000  15.068 -0.2171  0.1399 -0.1136
 2114TIP3    H130537   1.406   0.909  15.038 -0.2032  0.0029  0.3086
 2114TIP3    H230538   1.319   1.012  15.106  0.8221 -0.6533  2.7535
 2115TIP3   OH230539   2.243   6.761  16.001  0.1037 -0.3842  0.0747
 2115TIP3    H130540   2.280   6.740  16.087  0.5440  0.5399  0.1241
 2115TIP3    H230541   2.151   6.779  16.018  0.7048  2.5338  0.8738
 2116TIP3   OH230542   1.600   2.550  14.617 -0.0405 -0.1024 -0.1536
 2116TIP3    H130543   1.635   2.464  14.640 -0.5413 -0.7111 -1.6022
 2116TIP3    H230544   1.524   2.532  14.562  0.2671  1.2649 -1.0705
 2117TIP3   OH230545   5.122   2.669  17.031  0.0275  0.6725 -0.4505
 2117TIP3    H130546   5.119   2.580  17.067 -0.1705  0.3636 -1.2086
 2117TIP3    H230547   5.155   2.723  17.103 -0.8786  0.1621  0.3721
 2118TIP3   OH230548   5.714   0.570  14.699 -0.1393  0.1281 -0.3482
 2118TIP3    H130549   5.790   0.615  14.662 -0.9628  0.7621 -1.3365
 2118TIP3    H230550   5.690   0.621  14.776  0.5668 -0.2099  0.1022
 2119TIP3   OH230551   4.032   0.112  16.081 -0.1864 -0.4250  0.5325
 2119TIP3    H130552   4.033   0.046  16.150 -1.6671 -1.4992 -0.3837
 2119TIP3    H230553   3.967   0.079  16.018 -0.1495  1.3633 -0.5170
 2120TIP3   OH230554   2.785   5.103  15.930  0.1997 -0.1711 -0.5040
 2120TIP3    H130555   2.735   5.170  15.977 -0.9993 -0.7406 -0.9296
 2120TIP3    H230556   2.858   5.082  15.989 -1.7399 -1.5256  1.5994
 2121TIP3   OH230557   6.697   0.357  17.647 -0.1512 -0.0852 -0.2124
 2121TIP3    H130558   6.683   0.424  17.581 -1.8314  0.5408  0.7201
 2121TIP3    H230559   6.655   0.391  17.726 -0.7095 -2.0533  0.4013
 2122TIP3   OH230560   6.515   1.554  17.928 -0.6012 -0.1101  0.1672
 2122TIP3    H130561   6.518   1.646  17.901  2.4864 -0.1834 -0.0794
 2122TIP3    H230562   6.553   1.554  18.016 -2.4530 -0.9553  1.0086
 2123TIP3   OH230563   1.278   6.662  17.019  0.1844 -0.5464  0.2434
 2123TIP3    H130564   1.291   6.618  16.935  0.4686 -0.1463  0.0738
 2123TIP3    H230565   1.329   6.743  17.011 -1.1715  0.3278  0.1483
 2124TIP3   OH230566   6.698   5.085  16.190  0.7904 -0.2100 -0.1082
 2124TIP3    H130567   6.729   5.014  16.246 -0.4138  0.2229  1.1443
 2124TIP3    H230568   6.644   5.041  16.124  0.0778 -0.4776  0.6397
 2125TIP3   OH230569   6.323   4.429  15.367 -0.1235 -0.2191  0.3892
 2125TIP3    H130570   6.263   4.497  15.398  1.2940  0.8027  1.0155
 2125TIP3    H230571   6.327   4.441  15.272  1.4524  1.8236  0.6283
 2126TIP3   OH230572   0.602   5.677  17.343 -0.0017 -0.6007  0.0691
 2126TIP3    H130573   0.610   5.764  17.305 -0.4603 -0.9422 -0.8407
 2126TIP3    H230574   0.677   5.669  17.402  0.8094 -0.0957 -0.8694
 2127TIP3   OH230575   3.870   0.991  16.483 -0.5394 -0.2587  0.6331
 2127TIP3    H130576   3.901   1.082  16.487 -1.7941  0.2309 -0.0274
 2127TIP3    H230577   3.925   0.950  16.416  0.6847 -0.2714  1.6173
 2128TIP3   OH230578   1.327   2.968  18.283 -0.1833  0.1821 -0.6313
 2128TIP3    H130579   1.302   2.997  18.195  0.5457  0.4524 -0.7589
 2128TIP3    H230580   1.250   2.922  18.316 -1.4204  2.2883 -0.4087
 2129TIP3   OH230581   3.375   5.159  17.525  0.0947 -0.2466  0.4628
 2129TIP3    H130582   3.302   5.186  17.470  0.0242 -0.8518  0.2548
 2129TIP3    H230583   3.379   5.225  17.594 -1.6493 -1.0398  1.3734
 2130TIP3   OH230584   6.738   4.408  16.743  0.1714 -0.0085 -0.0599
 2130TIP3    H130585   6.667   4.436  16.684  0.5777  2.6620  0.5835
 2130TIP3    H230586   6.694   4.391  16.826  0.1382  0.9028  0.1283
 2131TIP3   OH230587   2.885   3.220  16.163 -0.1394 -0.5498  0.1452
 2131TIP3    H130588   2.909   3.211  16.071 -0.3254  0.1081  0.0304
 2131TIP3    H230589   2.789   3.223  16.163 -0.1069  1.0041  0.2065
 2132TIP3   OH230590   5.901   3.495  17.560  0.3449  0.2571  0.5915
 2132TIP3    H130591   5.853   3.413  17.546  0.2832  0.6437 -2.1366
 2132TIP3    H230592   5.992   3.473  17.540  0.5048  0.6386  0.8957
 2133TIP3   OH230593   5.178   5.205  16.733  0.0470 -0.5064 -0.1283
 2133TIP3    H130594   5.169   5.234  16.824 -1.1705 -2.0787  0.2894
 2133TIP3    H230595   5.090   5.214  16.696  0.3824 -0.5342 -0.9598
 2134TIP3   OH230596   1.292   0.048  16.371 -0.5612  0.3992  0.3653
 2134TIP3    H130597   1.235   0.024  16.444 -0.7119 -0.9724 -0.1847
 2134TIP3    H230598   1.346  -0.029  16.356 -0.7362  0.5445 -1.1584
 2135TIP3   OH230599   5.056   0.606  17.303  0.1057  0.3516  0.2327
 2135TIP3    H130600   5.151   0.593  17.307  0.3903  1.9591 -0.2624
 2135TIP3    H230601   5.031   0.579  17.215  0.3401  1.1540 -0.0891
 2136TIP3   OH230602   0.779   1.034  14.489  0.1148 -0.1338 -0.0020
 2136TIP3    H130603   0.740   0.955  14.526  0.9564 -0.4820  0.1619
 2136TIP3    H230604   0.705   1.090  14.467 -0.5464 -1.4192 -1.1280
 2137TIP3   OH230605   3.848   1.822  15.316 -0.4182  0.0668  0.0055
 2137TIP3    H130606   3.890   1.749  15.270 -0.2102  0.3311 -0.2238
 2137TIP3    H230607   3.769   1.784  15.354 -1.0168  0.0236 -1.2300
 2138TIP3   OH230608   6.696   3.055  16.311 -1.5128 -0.5157 -0.6887
 2138TIP3    H130609   6.715   3.108  16.234 -0.1887  0.8252  0.4958
 2138TIP3    H230610   6.778   3.010  16.330 -1.2462  0.6262  1.0021
 2139TIP3   OH230611   5.792   1.598  16.680  0.1858  0.4542  0.2693
 2139TIP3    H130612   5.743   1.664  16.729  0.4530  0.9817 -0.1625
 2139TIP3    H230613   5.874   1.642  16.656  0.0839  0.1861 -0.6014
 2140TIP3   OH230614   2.943   3.639  17.108 -0.3539  0.1541  0.0313
 2140TIP3    H130615   2.942   3.719  17.056  1.4621 -0.0889 -0.4417
 2140TIP3    H230616   2.983   3.665  17.191  0.8703 -0.3647 -0.3703
 2141TIP3   OH230617   2.389   1.390  15.894 -0.4146 -0.1639 -0.0083
 2141TIP3    H130618   2.416   1.479  15.915  0.2183 -0.2440 -0.4397
 2141TIP3    H230619   2.294   1.389  15.907 -0.4015  0.5227  0.1592
 2142TIP3   OH230620   3.977   0.447  17.764 -0.1358 -0.0350  0.3621
 2142TIP3    H130621   4.040   0.517  17.771  1.0392 -0.9876 -0.2645
 2142TIP3    H230622   3.894   0.491  17.744  0.6822  1.1401 -0.6018
 2143TIP3   OH230623   6.702   3.803  14.655 -0.4633  0.2089 -0.3645
 2143TIP3    H130624   6.796   3.818  14.663 -0.0632 -1.2516 -1.7536
 2143TIP3    H230625   6.661   3.879  14.696  1.3262  1.9679 -1.6951
 2144TIP3   OH230626   3.179   1.176  15.053  0.4033  0.7903  0.1237
 2144TIP3    H130627   3.208   1.266  15.068  1.2970  1.1730 -3.0268
 2144TIP3    H230628   3.108   1.184  14.989  0.1306 -0.7270  0.2003
 2145TIP3   OH230629   2.938   3.360  16.527  0.1782  0.3259  0.1888
 2145TIP3    H130630   2.910   3.450  16.542 -0.0101  0.5002 -1.1022
 2145TIP3    H230631   3.027   3.368  16.493  1.0340 -0.1155  2.1791
 2146TIP3   OH230632   5.194   4.273  17.327 -0.6297  0.2241 -0.1966
 2146TIP3    H130633   5.212   4.291  17.235  1.0615 -0.7994 -0.1095
 2146TIP3    H230634   5.187   4.359  17.368  1.0823  0.7189 -0.8627
 2147TIP3   OH230635   0.529   4.996  14.782 -0.1052 -0.8635 -0.2709
 2147TIP3    H130636   0.500   5.086  14.800  1.8219  0.4222 -2.7959
 2147TIP3    H230637   0.535   4.955  14.867 -0.4691  1.6307  1.0583
 2148TIP3   OH230638   2.038   4.294  17.237  0.2476 -0.1800  0.0319
 2148TIP3    H130639   2.109   4.344  17.277 -0.4292  1.1202 -0.3435
 2148TIP3    H230640   1.959   4.320  17.284 -0.2033 -0.4543 -0.5454
 2149TIP3   OH230641   6.712   6.568  17.228 -0.1612  0.3220 -0.6828
 2149TIP3    H130642   6.623   6.565  17.194 -0.4640  0.4874  0.0682
 2149TIP3    H230643   6.765   6.601  17.155 -0.4938 -0.9755 -1.5449
 2150TIP3   OH230644   4.185   2.263  17.432  0.0644  0.2088  0.1143
 2150TIP3    H130645   4.189   2.321  17.508 -0.3819 -0.1453  0.4101
 2150TIP3    H230646   4.117   2.199  17.454  1.0909 -0.8938  0.1148
 2151TIP3   OH230647   4.132   4.661  14.703 -0.3903  0.1082  0.1517
 2151TIP3    H130648   4.169   4.684  14.788 -0.3457  0.2998  0.0822
 2151TIP3    H230649   4.093   4.742  14.671  0.9369  0.4485 -0.6894
 2152TIP3   OH230650   0.599   1.819  15.858 -0.0890  0.5588  0.3920
 2152TIP3    H130651   0.657   1.892  15.836 -1.3918  1.3472 -0.6142
 2152TIP3    H230652   0.618   1.801  15.950  0.9383  1.5451  0.3994
 2153TIP3   OH230653   3.381   3.783  17.158  0.3478  0.4897 -0.6328
 2153TIP3    H130654   3.390   3.750  17.069 -0.7624 -0.5316 -0.3994
 2153TIP3    H230655   3.465   3.765  17.200  0.5347  0.0670 -1.1907
 2154TIP3   OH230656   3.593   3.999  17.296  0.3707  0.2027 -0.1414
 2154TIP3    H130657   3.658   4.027  17.360 -0.2124  0.9323  0.1497
 2154TIP3    H230658   3.608   3.905  17.286  1.7470  0.4347 -0.4228
 2155TIP3   OH230659   5.101   2.566  17.548  0.1084 -0.0125  0.0375
 2155TIP3    H130660   5.161   2.613  17.607  0.5058  0.3084 -0.6096
 2155TIP3    H230661   5.111   2.474  17.573  1.1388 -0.0044 -0.2778
 2156TIP3   OH230662   1.194   1.555  14.894 -0.4673 -0.7510  0.1628
 2156TIP3    H130663   1.142   1.510  14.828 -1.4490  0.8211 -0.1810
 2156TIP3    H230664   1.242   1.622  14.845 -1.4351  0.6441  1.0353
 2157TIP3   OH230665   0.328   5.759  16.515  0.4577  0.4462 -0.3602
 2157TIP3    H130666   0.392   5.699  16.475 -1.1721 -0.6993 -1.3902
 2157TIP3    H230667   0.302   5.714  16.596 -1.4809 -0.8281 -1.6031
 2158TIP3   OH230668   1.079   5.162  15.362 -0.2843  0.1638  0.1768
 2158TIP3    H130669   1.085   5.132  15.271 -0.0796 -2.2789  0.9416
 2158TIP3    H230670   1.169   5.187  15.384  0.1394 -1.4154  0.3668
 2159TIP3   OH230671   5.629   4.146  16.187 -0.2071  0.0085 -0.5229
 2159TIP3    H130672   5.628   4.179  16.277  0.2117 -0.5307 -0.3154
 2159TIP3    H230673   5.656   4.054  16.195 -2.1737 -0.6496 -1.0212
 2160TIP3   OH230674   5.254   2.475  15.755  0.3662  0.3985 -0.1457
 2160TIP3    H130675   5.262   2.489  15.661 -0.1007 -0.0898 -0.2664
 2160TIP3    H230676   5.176   2.420  15.764  1.1146 -0.6023  0.4200
 2161TIP3   OH230677   4.654   4.015  15.681  0.1875 -0.3689  0.5123
 2161TIP3    H130678   4.596   4.048  15.749 -0.0030  0.9419 -0.2429
 2161TIP3    H230679   4.602   3.952  15.632  0.1196 -0.8337  1.1812
 2162TIP3   OH230680   2.751   1.889  17.424 -0.0845 -0.4901 -0.4829
 2162TIP3    H130681   2.781   1.799  17.436  2.4569  0.2937 -0.4493
 2162TIP3    H230682   2.756   1.904  17.330  0.3457 -0.1181 -0.4021
 2163TIP3   OH230683   0.532   1.453  14.927  0.0103  0.0042  0.2119
 2163TIP3    H130684   0.520   1.390  14.998 -0.1486 -0.8875 -0.5788
 2163TIP3    H230685   0.508   1.405  14.848 -0.3890  1.1547 -0.3926
 2164TIP3   OH230686   1.724   4.448  15.810  0.3824 -0.3276 -0.9871
 2164TIP3    H130687   1.753   4.357  15.813  2.1030  0.1922 -0.1902
 2164TIP3    H230688   1.728   4.478  15.900  1.5941  1.0126 -1.4411
 2165TIP3   OH230689   3.413   5.463  18.190 -0.2682  0.0669  0.2405
 2165TIP3    H130690   3.411   5.407  18.268 -0.7532 -0.1211  0.0966
 2165TIP3    H230691   3.365   5.541  18.215 -0.0716  0.1841  0.2575
 2166TIP3   OH230692   0.767   3.735  16.523 -0.2461 -0.1432  0.6547
 2166TIP3    H130693   0.775   3.716  16.616 -1.1208 -1.0189  0.5682
 2166TIP3    H230694   0.857   3.753  16.494  0.4581 -2.4541  1.1506
 2167TIP3   OH230695   4.985   1.381  15.519 -0.2449  0.1740 -0.6944
 2167TIP3    H130696   5.044   1.435  15.466 -0.7970  0.8317 -0.6525
 2167TIP3    H230697   4.944   1.321  15.456  0.2900 -0.1320 -0.7590
 2168TIP3   OH230698   5.156   0.102  14.906  0.2825 -0.2753 -0.6195
 2168TIP3    H130699   5.117   0.147  14.831  1.7755  0.4876 -0.9811
 2168TIP3    H230700   5.204   0.171  14.953  0.6938 -1.0603  0.1387
 2169TIP3   OH230701   5.787   1.993  14.736  0.5077  0.7045 -0.4756
 2169TIP3    H130702   5.881   2.012  14.737 -0.0282  3.7607  0.0487
 2169TIP3    H230703   5.761   2.005  14.645  0.4632  0.6388 -0.4723
 2170TIP3   OH230704   1.423   4.621  15.380  0.2077  0.1111 -0.5409
 2170TIP3    H130705   1.516   4.636  15.400 -0.0387  0.9070  0.0647
 2170TIP3    H230706   1.400   4.692  15.320 -0.2868  0.5838  0.1932
 2171TIP3   OH230707   3.657   5.110  17.897 -0.7926  0.4810  0.7363
 2171TIP3    H130708   3.648   5.205  17.894  1.0437  0.6729 -0.8941
 2171TIP3    H230709   3.568   5.077  17.888 -1.6332  2.0038  2.8192
 2172TIP3   OH230710   0.826   6.654  14.957 -0.6423  0.6798 -0.0042
 2172TIP3    H130711   0.824   6.701  14.873  1.6734  2.0595  0.6473
 2172TIP3    H230712   0.902   6.596  14.951 -0.0078  1.3335  1.4035
 2173TIP3   OH230713   3.282   4.554  16.673  0.4614 -0.0009 -0.0849
 2173TIP3    H130714   3.365   4.518  16.642  1.1625  1.5466 -0.1131
 2173TIP3    H230715   3.266   4.512  16.757  0.1309 -1.9283 -1.0624
 2174TIP3   OH230716   4.110   4.397  16.282 -0.1735  0.4813  0.4240
 2174TIP3    H130717   4.118   4.426  16.373 -0.8611  1.2873  0.2379
 2174TIP3    H230718   4.200   4.392  16.251 -0.0030  2.9003  0.3349
 2175TIP3   OH230719   4.745   2.490  15.819  0.2933 -0.0234 -0.2328
 2175TIP3    H130720   4.710   2.484  15.908 -0.9290 -1.6856 -0.7786
 2175TIP3    H230721   4.681   2.443  15.765  1.0813  0.8262 -1.9832
 2176TIP3   OH230722   6.537   5.117  17.666  0.1100 -0.0845 -0.6136
 2176TIP3    H130723   6.445   5.128  17.642 -0.6415 -0.8634  1.7059
 2176TIP3    H230724   6.548   5.023  17.675  0.4840  0.1191  1.3690
 2177TIP3   OH230725   4.332   6.125  18.072  0.6712  0.1542  0.0510
 2177TIP3    H130726   4.248   6.085  18.051 -0.1752  1.8964 -0.0901
 2177TIP3    H230727   4.341   6.115  18.166  0.5115 -0.4248  0.0035
 2178TIP3   OH230728   2.462   0.405  17.101  0.1326 -0.1380  0.3229
 2178TIP3    H130729   2.377   0.443  17.120  0.3501  0.7131 -0.3619
 2178TIP3    H230730   2.504   0.395  17.187  0.0941  1.2402  0.5188
 2179TIP3   OH230731   4.614   1.583  15.031 -0.5263 -0.6428  0.0096
 2179TIP3    H130732   4.535   1.561  14.981  0.1286  1.0348 -1.8936
 2179TIP3    H230733   4.674   1.618  14.966  0.6782  0.9457  1.8822
 2180TIP3   OH230734   0.004   2.909  17.521 -0.7528  0.6687  0.1845
 2180TIP3    H130735  -0.082   2.886  17.485 -2.4747  0.1771  4.0443
 2180TIP3    H230736   0.045   2.825  17.540 -0.0865  0.9094 -0.1472
 2181TIP3   OH230737   3.437   6.281  15.339  0.1731 -0.4996 -0.3385
 2181TIP3    H130738   3.523   6.322  15.334 -0.1237  0.3706  1.1734
 2181TIP3    H230739   3.388   6.321  15.267  0.4872  0.3796 -0.0751
 2182TIP3   OH230740   6.620   1.948  16.637  0.2540 -0.2875 -0.6203
 2182TIP3    H130741   6.668   2.029  16.620 -1.1808  1.0670  1.3803
 2182TIP3    H230742   6.542   1.954  16.582  0.1591 -0.3482 -0.4921
 2183TIP3   OH230743   5.357   2.010  16.106 -0.2318  0.0536 -0.2073
 2183TIP3    H130744   5.359   2.103  16.083 -0.7445  0.0721 -0.1990
 2183TIP3    H230745   5.311   2.007  16.190  0.4921 -0.1345  0.1821
 2184TIP3   OH230746   1.263   4.364  15.969 -0.1383 -0.2266 -0.6767
 2184TIP3    H130747   1.329   4.420  15.928 -1.0626  1.5959  0.1738
 2184TIP3    H230748   1.271   4.384  16.063 -0.3059 -1.7787 -0.3100
 2185TIP3   OH230749   3.028   1.954  16.433  0.1240 -0.3285  0.4718
 2185TIP3    H130750   3.024   2.002  16.515 -0.5186  0.3796  0.0365
 2185TIP3    H230751   2.948   1.978  16.387  0.4451 -0.7654 -0.3394
 2186TIP3   OH230752   4.689   5.946  15.077  0.0465  0.1491  0.3852
 2186TIP3    H130753   4.695   5.977  14.987 -1.5517  0.6654  0.4267
 2186TIP3    H230754   4.662   5.854  15.069 -2.1697  0.7488  0.3102
 2187TIP3   OH230755   2.828   3.653  15.285  0.1822 -0.1098  0.3267
 2187TIP3    H130756   2.769   3.599  15.232 -1.0251  0.4054  1.1000
 2187TIP3    H230757   2.909   3.658  15.233  0.5495 -3.0407  0.4414
 2188TIP3   OH230758   1.976   4.439  15.588 -0.5916  0.2360 -0.3263
 2188TIP3    H130759   2.050   4.462  15.644 -0.1951 -0.8074 -0.4026
 2188TIP3    H230760   1.959   4.346  15.606 -0.8229  0.0239 -1.5072
 2189TIP3   OH230761   4.218   2.492  17.635 -0.1013  0.0032 -0.2939
 2189TIP3    H130762   4.307   2.473  17.665 -0.0488 -1.3015 -1.2243
 2189TIP3    H230763   4.165   2.486  17.714  0.6372  1.0104  0.3169
 2190TIP3   OH230764   3.674   5.265  16.667 -0.1768  0.4249 -0.3801
 2190TIP3    H130765   3.702   5.251  16.758 -0.9044 -1.6286 -0.4224
 2190TIP3    H230766   3.756   5.273  16.618  0.2321  2.5282  0.5305
 2191TIP3   OH230767   3.561   3.380  16.975 -0.7017  0.6067  0.0481
 2191TIP3    H130768   3.502   3.320  17.021 -0.9216  0.9597  0.2320
 2191TIP3    H230769   3.643   3.375  17.024 -0.9641  1.0562  0.5515
 2192TIP3   OH230770   4.696   2.074  16.295 -0.0754  0.0232  0.0020
 2192TIP3    H130771   4.764   2.132  16.330  1.7693 -1.7984 -0.3754
 2192TIP3    H230772   4.680   2.106  16.206 -0.1673  0.8455  0.3097
 2193TIP3   OH230773   4.127   6.359  17.005  0.6044  0.0267  0.3635
 2193TIP3    H130774   4.189   6.387  16.937 -2.3959  0.5874 -2.3676
 2193TIP3    H230775   4.112   6.438  17.058 -0.3003  0.8842 -1.1122
 2194TIP3   OH230776   3.663   0.622  15.291 -0.2268 -0.2355  0.2374
 2194TIP3    H130777   3.617   0.683  15.349 -1.1777 -0.8921  0.1935
 2194TIP3    H230778   3.607   0.618  15.213  1.5479  1.4576 -1.2219
 2195TIP3   OH230779   6.638   3.560  17.251 -0.8700  0.0469  0.5011
 2195TIP3    H130780   6.691   3.530  17.324 -2.3732 -1.2100  1.1348
 2195TIP3    H230781   6.672   3.513  17.175  0.2061  0.7899  0.4985
 2196TIP3   OH230782   1.367   1.455  16.553  0.0666 -0.0840  0.0706
 2196TIP3    H130783   1.343   1.407  16.632 -1.9666 -0.7129 -0.8904
 2196TIP3    H230784   1.405   1.390  16.494 -1.1191 -0.2072 -0.5779
 2197TIP3   OH230785   0.026   4.812  17.802  0.1726  0.2804 -0.0770
 2197TIP3    H130786   0.076   4.893  17.807 -1.2667  1.1292  1.4183
 2197TIP3    H230787   0.089   4.743  17.822  1.3051  1.0433 -0.8783
 2198TIP3   OH230788   6.436   4.567  15.885 -0.2994 -0.0006 -0.0100
 2198TIP3    H130789   6.357   4.589  15.836  0.6901  1.0497 -1.2069
 2198TIP3    H230790   6.431   4.622  15.963 -0.1753  0.9535 -0.6647
 2199TIP3   OH230791   4.129   6.086  16.489 -0.3055  0.3277  0.7742
 2199TIP3    H130792   4.116   5.991  16.496  1.5286 -0.2303 -1.8083
 2199TIP3    H230793   4.185   6.109  16.563  0.6107 -0.9413  0.5043
 2200TIP3   OH230794   1.142   3.669  15.866  0.2702  0.0295  0.1930
 2200TIP3    H130795   1.219   3.726  15.871  1.2442 -1.1297 -0.9599
 2200TIP3    H230796   1.160   3.600  15.930 -0.2706  0.2755  0.6130
 2201TIP3   OH230797   6.042   2.010  15.682  0.1079 -0.1271 -0.2992
 2201TIP3    H130798   6.002   2.070  15.744  0.4168 -0.9085  0.6848
 2201TIP3    H230799   6.064   2.065  15.607 -0.6539  0.7565  0.1038
 2202TIP3   OH230800   0.211   1.085  17.061  0.0009 -0.2724  0.1413
 2202TIP3    H130801   0.237   1.037  16.982  0.8379  1.0323 -0.4253
 2202TIP3    H230802   0.264   1.046  17.130  1.0884  0.1708 -0.4094
 2203TIP3   OH230803   0.448   5.616  15.549 -0.2331 -0.3062 -0.3979
 2203TIP3    H130804   0.459   5.711  15.562 -1.5777 -0.1165 -0.4634
 2203TIP3    H230805   0.378   5.610  15.483 -0.4845 -1.3521 -0.0439
 2204TIP3   OH230806   1.179   4.281  16.582 -0.2875  0.0329 -0.0036
 2204TIP3    H130807   1.161   4.375  16.579  0.3263  0.1444 -0.3293
 2204TIP3    H230808   1.272   4.275  16.604 -0.8699 -0.5443  2.6464
 2205TIP3   OH230809   0.686   3.483  17.341 -0.0225 -0.3022 -0.3004
 2205TIP3    H130810   0.628   3.526  17.278 -1.5302 -0.8203  0.6888
 2205TIP3    H230811   0.746   3.553  17.369 -2.0701  1.0731  0.8728
 2206TIP3   OH230812   3.796   0.130  17.099 -0.2126  0.1285 -0.0528
 2206TIP3    H130813   3.867   0.127  17.163 -1.3448  0.6674  1.3053
 2206TIP3    H230814   3.834   0.172  17.022  0.7027  1.2911  0.9828
 2207TIP3   OH230815   3.443   4.227  17.367 -0.3579 -0.4167  0.0273
 2207TIP3    H130816   3.486   4.286  17.305 -1.6049 -0.3469 -0.8013
 2207TIP3    H230817   3.479   4.141  17.347 -0.4941 -0.3389 -0.5452
 2208TIP3   OH230818   5.468   5.449  15.468 -0.0780  0.2154 -0.1247
 2208TIP3    H130819   5.407   5.483  15.403 -1.7684 -1.9396  0.2472
 2208TIP3    H230820   5.419   5.451  15.550  1.0700  0.2791  0.5856
 2209TIP3   OH230821   2.486   3.001  16.909  0.7314  0.0305  0.3944
 2209TIP3    H130822   2.475   3.042  16.995  0.4456 -1.0957  0.9142
 2209TIP3    H230823   2.581   2.997  16.897  0.7662  1.1892  0.1467
 2210TIP3   OH230824   2.468   3.189  15.353  0.0291 -0.1699  0.0956
 2210TIP3    H130825   2.511   3.191  15.267  1.0052  1.2404  0.5666
 2210TIP3    H230826   2.494   3.105  15.391  2.9367  0.8227  0.5609
 2211TIP3   OH230827   6.468   6.124  15.237 -0.2592  0.1728  0.2455
 2211TIP3    H130828   6.454   6.034  15.208  0.9594  0.0722 -0.0710
 2211TIP3    H230829   6.435   6.126  15.326 -2.0238 -0.0870 -0.3556
 2212TIP3   OH230830   1.931   1.689  17.253 -0.1976  0.6071 -0.3353
 2212TIP3    H130831   1.961   1.678  17.163 -0.9669  0.7172 -0.6127
 2212TIP3    H230832   1.995   1.642  17.306 -0.1669 -0.1046 -0.9997
 2213TIP3   OH230833   5.892   0.700  14.490  0.4067  0.0428  0.0857
 2213TIP3    H130834   5.866   0.738  14.406 -0.8683  0.0954  0.4885
 2213TIP3    H230835   5.933   0.773  14.537 -1.2670  0.7418  0.5249
 2214TIP3   OH230836   2.082   6.333  15.756 -0.1295 -0.0904 -0.3808
 2214TIP3    H130837   2.064   6.308  15.665 -1.6064 -1.0684  0.1409
 2214TIP3    H230838   2.024   6.407  15.773  0.8158  0.6999 -0.4869
 2215TIP3   OH230839   4.882   0.729  14.842 -0.3008  0.3101  0.0473
 2215TIP3    H130840   4.925   0.644  14.834  0.5958  0.5998  1.3998
 2215TIP3    H230841   4.921   0.782  14.773 -0.1207 -0.0888 -0.1601
 2216TIP3   OH230842   1.304   6.137  15.631  0.2569 -0.4099  0.2596
 2216TIP3    H130843   1.249   6.083  15.687  1.3806 -2.2711 -0.3468
 2216TIP3    H230844   1.382   6.155  15.682  1.5976 -2.6994 -0.8278
 2217TIP3   OH230845   3.741   4.009  17.896  0.4291 -0.2880 -0.6662
 2217TIP3    H130846   3.761   3.920  17.923  0.4169  0.1945  1.0216
 2217TIP3    H230847   3.662   4.032  17.944  0.8617  0.8985 -0.4890
 2218TIP3   OH230848   0.958   2.833  17.136 -0.2494  0.0701  0.0765
 2218TIP3    H130849   0.931   2.905  17.192  0.3431  0.6699 -0.4009
 2218TIP3    H230850   1.053   2.840  17.130 -0.3107  0.0955 -1.0948
 2219TIP3   OH230851   1.514   0.374  16.234 -0.2465 -0.3036  0.6001
 2219TIP3    H130852   1.545   0.440  16.295  0.1622 -0.7779  0.9198
 2219TIP3    H230853   1.420   0.365  16.252 -0.2135 -0.1278  0.8576
 2220TIP3   OH230854   2.020   5.397  16.675 -0.4829  0.5536  0.1521
 2220TIP3    H130855   2.081   5.333  16.638 -1.6306 -0.2856 -0.3518
 2220TIP3    H230856   2.050   5.409  16.766  0.4727  0.2357 -0.1093
 2221TIP3   OH230857   5.070   0.359  15.005 -0.0296  0.5773 -0.9383
 2221TIP3    H130858   4.981   0.340  15.035 -0.2507  1.2526 -1.1427
 2221TIP3    H230859   5.113   0.397  15.082  0.2202 -0.1483 -0.7130
 2222TIP3   OH230860   4.221   2.466  16.861  0.0681  0.5928  0.2253
 2222TIP3    H130861   4.309   2.498  16.841  0.2455 -1.1288 -2.3163
 2222TIP3    H230862   4.163   2.519  16.806 -0.2428  0.2967  0.2623
 2223TIP3   OH230863   2.437   1.312  16.999 -0.2810  0.1003  0.0400
 2223TIP3    H130864   2.422   1.406  17.010 -0.1060 -0.0614  1.9285
 2223TIP3    H230865   2.457   1.280  17.087 -1.0616 -1.8385 -0.4299
 2224TIP3   OH230866   1.038   3.770  16.361 -0.9527  0.1289  0.0508
 2224TIP3    H130867   1.054   3.799  16.271  0.4429  0.3403  0.3404
 2224TIP3    H230868   1.112   3.714  16.381 -1.1657  0.2206  1.1270
 2225TIP3   OH230869   4.420   0.591  17.266  0.7523 -0.7354  0.2521
 2225TIP3    H130870   4.428   0.628  17.355 -1.1846 -0.9737  0.5701
 2225TIP3    H230871   4.449   0.662  17.209 -0.5831  0.4630  0.9727
 2226TIP3   OH230872   3.045   0.878  16.389  0.6754  0.0743 -0.3418
 2226TIP3    H130873   3.124   0.841  16.348  1.4262  1.1918  0.0420
 2226TIP3    H230874   3.062   0.972  16.392 -0.0842  0.1898  0.9932
 2227TIP3   OH230875   4.160   6.666  17.057  0.2665  0.0250 -0.0835
 2227TIP3    H130876   4.208   6.676  17.139  0.4492  0.7288 -0.2702
 2227TIP3    H230877   4.113   6.749  17.046  0.2735 -0.0465 -0.7046
 2228TIP3   OH230878   3.261   1.895  16.093 -0.5813 -0.3688 -0.2462
 2228TIP3    H130879   3.195   1.965  16.095 -0.1343  0.0383  0.5126
 2228TIP3    H230880   3.340   1.935  16.128  0.1099 -0.8295 -1.2177
 2229TIP3   OH230881   2.676   5.072  17.807 -0.2399 -0.5041  0.3483
 2229TIP3    H130882   2.580   5.073  17.806 -0.2413  0.0432  0.8565
 2229TIP3    H230883   2.702   5.136  17.741 -0.2139 -1.4031 -0.5312
 2230TIP3   OH230884   4.318   0.765  16.914 -0.5437 -0.4518  0.7388
 2230TIP3    H130885   4.340   0.854  16.885  0.5857 -0.2438  2.1583
 2230TIP3    H230886   4.266   0.729  16.842  0.1768  0.8611 -0.4934
 2231TIP3   OH230887   5.692   3.244  17.931 -0.2234  0.0252  0.4007
 2231TIP3    H130888   5.604   3.211  17.914  0.1529 -0.4838 -0.6827
 2231TIP3    H230889   5.687   3.337  17.909 -0.4213 -0.0688  0.0283
 2232TIP3   OH230890   4.682   5.922  17.076  0.3161  0.2563 -0.4281
 2232TIP3    H130891   4.651   5.861  17.009  1.5717 -1.3139  0.3736
 2232TIP3    H230892   4.743   5.979  17.030  0.1211  0.0728 -0.9194
 2233TIP3   OH230893   0.735   3.991  17.353 -0.0474  0.0179  0.0102
 2233TIP3    H130894   0.656   3.985  17.407  1.2445 -0.6334  1.9320
 2233TIP3    H230895   0.791   4.054  17.398  0.4936  0.5979 -1.4162
 2234TIP3   OH230896   4.170   5.088  16.434 -0.1185  0.2577  0.9768
 2234TIP3    H130897   4.162   4.993  16.420  0.4673  0.3573 -0.2142
 2234TIP3    H230898   4.253   5.099  16.481 -0.2951  0.1563  1.3063
 2235TIP3   OH230899   3.751   1.168  16.217 -0.3734 -0.4829 -0.0710
 2235TIP3    H130900   3.740   1.192  16.125  1.8157  1.5184  0.0993
 2235TIP3    H230901   3.795   1.083  16.215  0.3619 -0.0949 -0.9004
 2236TIP3   OH230902   2.741   1.595  15.052  0.3312 -0.3343 -0.3289
 2236TIP3    H130903   2.722   1.627  14.964 -0.7218 -1.1662 -0.4247
 2236TIP3    H230904   2.700   1.658  15.110 -1.4413 -1.2537 -0.5101
 2237TIP3   OH230905   3.838   4.932  15.325  0.3010  0.0080 -0.0192
 2237TIP3    H130906   3.837   5.027  15.313 -3.9882  0.4966  2.1868
 2237TIP3    H230907   3.846   4.896  15.237 -1.8247  2.5729 -1.3987
 2238TIP3   OH230908   0.899   6.189  14.966 -0.0131 -0.1058  0.1302
 2238TIP3    H130909   0.840   6.126  14.926 -0.4676  0.4989 -0.1688
 2238TIP3    H230910   0.984   6.173  14.925  0.4770 -2.1315  1.7813
 2239TIP3   OH230911   0.060   5.308  16.101 -0.2680 -0.0230 -0.0157
 2239TIP3    H130912   0.006   5.363  16.046 -2.7598  0.6568  2.8334
 2239TIP3    H230913   0.003   5.235  16.126  0.4197  0.0906  2.1523
 2240TIP3   OH230914   1.350   4.034  14.329  0.6501 -0.1024  0.5319
 2240TIP3    H130915   1.400   4.044  14.410  0.1029  0.2922  0.8238
 2240TIP3    H230916   1.307   4.119  14.316  1.2214  0.0556 -0.5097
 2241TIP3   OH230917   3.102   5.075  15.189  0.3974  0.1565  0.3210
 2241TIP3    H130918   3.102   5.031  15.104 -1.9877  0.3322  0.1644
 2241TIP3    H230919   3.129   5.164  15.170 -1.4896  0.6007 -0.5751
 2242TIP3   OH230920   5.171   3.964  17.179  0.3137  0.3299 -0.4334
 2242TIP3    H130921   5.174   3.869  17.177 -0.2113  0.3274 -1.3153
 2242TIP3    H230922   5.224   3.988  17.255  0.9338 -0.6409 -0.5489
 2243TIP3   OH230923   6.758   0.164  15.461 -0.2505  0.1557  0.4863
 2243TIP3    H130924   6.788   0.084  15.419 -0.4384  0.7832 -0.8820
 2243TIP3    H230925   6.752   0.141  15.554 -1.8323 -1.9061 -0.0432
 2244TIP3   OH230926   2.601   3.785  16.586  0.6019 -0.0113  0.2242
 2244TIP3    H130927   2.555   3.778  16.670 -1.2814  1.7629 -0.5864
 2244TIP3    H230928   2.686   3.824  16.610  0.1395  0.3764  1.3181
 2245TIP3   OH230929   6.194   4.851  14.836  0.0349  0.3303 -0.7403
 2245TIP3    H130930   6.246   4.825  14.759 -1.5866 -0.8872 -1.4975
 2245TIP3    H230931   6.150   4.770  14.863  0.5118  0.7575  1.4629
 2246TIP3   OH230932   6.297   2.622  16.318  0.7141  0.2251 -0.0793
 2246TIP3    H130933   6.265   2.650  16.232  1.2863 -1.1398 -0.7723
 2246TIP3    H230934   6.228   2.648  16.378  0.3736  1.3509 -0.9296
 2247TIP3   OH230935   4.121   4.715  17.310  0.7694  0.1556  0.0342
 2247TIP3    H130936   4.210   4.685  17.328  1.4325  2.3528  0.7409
 2247TIP3    H230937   4.106   4.785  17.373 -1.5223 -0.2150 -0.0138
 2248TIP3   OH230938   1.439   5.918  16.164 -0.4692  0.0783 -0.1050
 2248TIP3    H130939   1.420   5.990  16.223 -0.5906  0.5760 -0.7346
 2248TIP3    H230940   1.355   5.873  16.152 -0.1613 -0.9107  1.2191
 2249TIP3   OH230941   5.558   0.954  15.255 -0.8994 -0.4124  0.1997
 2249TIP3    H130942   5.623   0.885  15.265 -0.9216 -0.6473 -1.0591
 2249TIP3    H230943   5.550   0.992  15.342  1.3937  0.0459  0.2799
 2250TIP3   OH230944   4.546   4.688  16.769  0.2906 -0.4429  0.0983
 2250TIP3    H130945   4.584   4.678  16.682  1.7136 -0.8314  0.7159
 2250TIP3    H230946   4.545   4.782  16.785 -0.9605 -0.2930 -0.7188
 2251TIP3   OH230947   0.005   6.307  16.895  0.1863  0.0589 -0.0268
 2251TIP3    H130948   0.016   6.377  16.831 -0.0549 -0.5423 -0.7327
 2251TIP3    H230949   0.026   6.227  16.847  1.1861 -0.3074  0.9642
 2252TIP3   OH230950   5.963   4.173  16.139 -0.5112  0.6418  0.8815
 2252TIP3    H130951   5.923   4.245  16.091 -1.3521 -0.5758 -0.3389
 2252TIP3    H230952   6.004   4.119  16.072 -0.2927 -0.2445  1.7044
 2253TIP3   OH230953   0.283   1.410  15.620  0.0697 -0.1578  0.4272
 2253TIP3    H130954   0.190   1.387  15.622  0.4297 -1.9007 -0.2838
 2253TIP3    H230955   0.320   1.365  15.695  0.6479 -1.2005 -0.4470
 2254TIP3   OH230956   3.084   1.733  15.662 -0.0389 -0.3584  0.2108
 2254TIP3    H130957   3.123   1.723  15.748 -1.3216  0.2020  0.8773
 2254TIP3    H230958   2.993   1.756  15.679 -0.8362 -2.1737 -1.2852
 2255TIP3   OH230959   6.171   0.709  16.259  0.4122  0.2571  0.9064
 2255TIP3    H130960   6.116   0.641  16.220 -0.0530  1.5322 -0.8090
 2255TIP3    H230961   6.241   0.722  16.195 -0.4221  2.4841  0.3453
 2256TIP3   OH230962   6.083   5.225  17.326 -0.8384 -0.0357 -0.6326
 2256TIP3    H130963   6.018   5.285  17.360 -0.6194 -0.0944 -0.0920
 2256TIP3    H230964   6.154   5.281  17.295 -0.8720  0.0062 -0.6340
 2257TIP3   OH230965   0.276   5.717  15.196  0.6007 -0.6916  0.1191
 2257TIP3    H130966   0.350   5.771  15.224 -1.2354  1.3621  1.2998
 2257TIP3    H230967   0.239   5.683  15.277 -0.3187 -0.8698 -0.3659
 2258TIP3   OH230968   6.222   4.877  16.018  0.1078 -0.2023  0.0268
 2258TIP3    H130969   6.246   4.886  16.111  0.9138 -1.1036 -0.0775
 2258TIP3    H230970   6.205   4.783  16.007  3.3630 -0.7832 -1.4556
 2259TIP3   OH230971   3.990   5.824  17.646  0.2749  0.1826 -0.0108
 2259TIP3    H130972   3.899   5.795  17.659  0.1922 -0.2475 -1.3802
 2259TIP3    H230973   3.984   5.920  17.649  0.0166  0.1420  1.2893
 2260TIP3   OH230974   2.593   1.487  18.023  0.4152 -0.4577 -0.1836
 2260TIP3    H130975   2.595   1.452  18.113 -2.4493  1.1803  0.6295
 2260TIP3    H230976   2.646   1.567  18.028 -0.3458  0.0366  0.2998
 2261TIP3   OH230977   1.616   2.501  17.185 -0.5921  0.2658  0.5722
 2261TIP3    H130978   1.654   2.513  17.098 -1.4424 -1.9009 -0.1753
 2261TIP3    H230979   1.684   2.455  17.234 -0.8415 -0.2771  0.4147
 2262TIP3   OH230980   2.200   2.148  17.676  0.2519  0.0345  0.0192
 2262TIP3    H130981   2.295   2.160  17.687  0.0250  1.9684  0.2996
 2262TIP3    H230982   2.181   2.185  17.590 -0.4632  1.2849  0.6823
 2263TIP3   OH230983   2.066   4.074  16.282 -0.4824 -0.0609 -0.1304
 2263TIP3    H130984   2.129   4.045  16.349 -1.0405  0.0527  0.4572
 2263TIP3    H230985   1.981   4.068  16.326 -1.2450 -2.9055 -1.7430
 2264TIP3   OH230986   4.916   3.554  15.687  0.5188 -0.2907 -0.0487
 2264TIP3    H130987   5.000   3.528  15.649 -0.1178 -0.7753 -1.1659
 2264TIP3    H230988   4.915   3.649  15.680  1.5039 -0.1632  1.1560
 2265TIP3   OH230989   0.890   0.567  17.510  0.1669 -0.4353  0.4266
 2265TIP3    H130990   0.839   0.642  17.479  0.1532 -0.7888 -0.4572
 2265TIP3    H230991   0.852   0.492  17.464  1.4179 -0.7213 -0.1866
 2266TIP3   OH230992   0.140   4.098  17.376 -0.2299 -0.4024  0.3867
 2266TIP3    H130993   0.175   4.177  17.335 -1.8852  0.3811  0.4328
 2266TIP3    H230994   0.056   4.083  17.333 -1.1837 -0.5812  2.2276
 2267TIP3   OH230995   3.442   4.342  15.948  0.3644  0.0333 -0.2680
 2267TIP3    H130996   3.487   4.422  15.977 -0.6774  0.9764 -1.1387
 2267TIP3    H230997   3.353   4.351  15.984  0.4983 -1.2068  0.4138
 2268TIP3   OH230998   4.498   3.396  15.987  0.2905 -0.5715 -0.3009
 2268TIP3    H130999   4.579   3.409  16.036 -1.2775 -0.5531  2.4379
 2268TIP3    H231000   4.509   3.310  15.946  1.6713 -0.5765  0.0324
 2269TIP3   OH231001   5.231   4.598  15.352 -0.6446  0.1681 -0.1169
 2269TIP3    H131002   5.292   4.632  15.287 -0.8046 -0.0641 -0.3955
 2269TIP3    H231003   5.213   4.509  15.323 -0.6548  0.0345  0.2953
 2270TIP3   OH231004   4.468   0.875  17.997  0.8061  0.3437 -0.4994
 2270TIP3    H131005   4.406   0.803  18.008 -0.4105  1.2047 -1.3955
 2270TIP3    H231006   4.550   0.842  18.034 -0.1120 -0.9228  0.5057
 2271TIP3   OH231007   1.431   3.892  14.601 -0.3183  0.1316 -0.1978
 2271TIP3    H131008   1.357   3.835  14.623 -0.7040 -0.1328 -2.0059
 2271TIP3    H231009   1.509   3.839  14.621 -0.6394 -0.1193  0.3951
 2272TIP3   OH231010   4.071   6.419  16.345 -0.2738  0.1583 -0.3236
 2272TIP3    H131011   4.081   6.412  16.440  0.5172  0.9821 -0.3239
 2272TIP3    H231012   4.016   6.345  16.321 -0.2547 -0.2247  0.7428
 2273TIP3   OH231013   5.730   0.776  15.540 -0.1862  0.3992  0.1880
 2273TIP3    H131014   5.705   0.763  15.449  1.8115 -0.7461 -0.2518
 2273TIP3    H231015   5.735   0.688  15.576  1.0498  0.7079  0.8211
 2274TIP3   OH231016   3.534   1.899  17.074 -0.3582 -0.0067 -0.1451
 2274TIP3    H131017   3.496   1.963  17.134 -1.0853 -0.2094 -0.3858
 2274TIP3    H231018   3.615   1.940  17.044 -0.9810  0.9559 -0.5618
 2275TIP3   OH231019   4.109   4.510  17.761 -0.1888  0.3159  0.2117
 2275TIP3    H131020   4.172   4.439  17.768 -0.1788  0.4268  1.5931
 2275TIP3    H231021   4.075   4.504  17.672  0.6169 -0.7197 -0.0439
 2276TIP3   OH231022   6.413   1.954  17.274  0.3217 -0.5224 -0.1529
 2276TIP3    H131023   6.432   2.010  17.199 -0.2462 -0.7789 -0.4995
 2276TIP3    H231024   6.444   2.003  17.349 -0.5381  0.4589 -0.4103
 2277TIP3   OH231025   0.970   6.568  16.189  0.1966 -0.1286 -0.3671
 2277TIP3    H131026   1.004   6.657  16.181 -1.2457  0.4253 -0.7600
 2277TIP3    H231027   0.894   6.577  16.247  0.0258 -1.1108 -0.4186
 2278TIP3   OH231028   3.311   3.614  15.903  0.5079 -0.6960 -0.1413
 2278TIP3    H131029   3.352   3.684  15.852 -0.6169 -0.3153 -0.5656
 2278TIP3    H231030   3.348   3.623  15.991  1.4793 -0.5171 -0.5609
 2279TIP3   OH231031   3.731   2.754  17.846 -0.1039  0.3696  0.2919
 2279TIP3    H131032   3.818   2.739  17.883  0.0566  0.5475 -0.0085
 2279TIP3    H231033   3.742   2.832  17.791 -0.0102 -0.6594 -1.2008
 2280TIP3   OH231034   3.984   2.120  17.557 -0.5840 -0.0447 -0.0380
 2280TIP3    H131035   3.936   2.078  17.628 -1.5530  0.7455 -0.2030
 2280TIP3    H231036   3.933   2.198  17.536  0.0383  0.0875 -1.1595
 2281TIP3   OH231037   3.890   1.110  17.296  0.6876 -0.0991  0.3246
 2281TIP3    H131038   3.904   1.093  17.203 -1.0986 -0.6631  0.1089
 2281TIP3    H231039   3.850   1.030  17.329 -0.9421  0.9289  1.0107
 2282TIP3   OH231040   4.713   0.190  15.437  0.0813  0.2027 -0.6167
 2282TIP3    H131041   4.759   0.108  15.456 -0.1569 -0.2298 -1.8047
 2282TIP3    H231042   4.639   0.191  15.498 -0.2957 -0.8070 -1.0419
 2283TIP3   OH231043   6.150   4.627  15.420  0.6706 -0.3715  0.9017
 2283TIP3    H131044   6.098   4.623  15.501  0.8416  0.6618  1.0855
 2283TIP3    H231045   6.205   4.705  15.432  1.9966 -1.2293  0.5467
 2284TIP3   OH231046   5.039   0.865  17.332 -0.1088  0.7016 -0.2242
 2284TIP3    H131047   5.099   0.883  17.404 -0.3391 -0.7482  0.3557
 2284TIP3    H231048   5.058   0.776  17.306 -0.3666  1.0443 -1.6578
 2285TIP3   OH231049   5.666   3.563  15.450 -0.3149  0.0333  0.0868
 2285TIP3    H131050   5.684   3.470  15.435  2.0052  0.0174  2.2333
 2285TIP3    H231051   5.753   3.604  15.453 -1.2554  2.1593 -0.1433
 2286TIP3   OH231052   6.104   6.367  16.485  0.2302 -0.3717  0.2211
 2286TIP3    H131053   6.119   6.293  16.426  1.4165  1.0309 -1.3339
 2286TIP3    H231054   6.189   6.411  16.490  0.2630 -0.5797  3.2760
 2287TIP3   OH231055   5.160   3.572  14.628  0.6681 -0.4673 -0.3562
 2287TIP3    H131056   5.243   3.604  14.592  1.1692  0.8468  1.7652
 2287TIP3    H231057   5.096   3.638  14.604  1.2009  0.9529  1.8501
 2288TIP3   OH231058   0.373   0.286  14.416 -0.2701  0.0532  0.4381
 2288TIP3    H131059   0.386   0.192  14.399 -1.5235 -0.4298  1.9037
 2288TIP3    H231060   0.284   0.303  14.385  0.4078  1.1124 -1.0356
 2289TIP3   OH231061   6.342   5.041  14.997 -0.3123 -0.3731  0.1253
 2289TIP3    H131062   6.354   4.965  15.054 -1.1524 -0.8077 -0.2426
 2289TIP3    H231063   6.287   5.008  14.925 -1.6317  0.8422  0.5138
 2290TIP3   OH231064   4.333   1.386  14.408 -0.0134  0.1202 -0.1947
 2290TIP3    H131065   4.253   1.333  14.414  0.3318 -0.2541  1.7059
 2290TIP3    H231066   4.384   1.361  14.485  0.9854  1.8942 -0.2353
 2291TIP3   OH231067   2.225   2.899  15.573 -0.0932 -0.3159 -0.2023
 2291TIP3    H131068   2.220   2.994  15.561  0.3597 -0.2807 -0.1411
 2291TIP3    H231069   2.167   2.863  15.506 -1.6996  0.0648  0.9266
 2292TIP3   OH231070   0.378   4.392  15.785 -0.3681  0.8352  0.0001
 2292TIP3    H131071   0.309   4.411  15.848 -0.7665 -0.7930  0.1215
 2292TIP3    H231072   0.438   4.334  15.832 -0.0858  0.4984 -0.7610
 2293TIP3   OH231073   5.466   3.929  15.553 -0.2158 -0.5556  0.2050
 2293TIP3    H131074   5.417   3.970  15.624  1.1601 -0.3157  1.0571
 2293TIP3    H231075   5.468   3.994  15.483  2.6444  1.2975  1.8428
 2294TIP3   OH231076   0.027   1.410  15.681 -0.2281 -0.3829  0.4932
 2294TIP3    H131077   0.018   1.504  15.666 -2.3991 -0.9373 -2.5600
 2294TIP3    H231078  -0.062   1.376  15.677  0.5928 -2.7102  0.5622
 2295TIP3   OH231079   4.663   1.615  18.072  0.2960 -0.4004 -0.3131
 2295TIP3    H131080   4.701   1.551  18.012 -0.5576 -0.1578 -1.1487
 2295TIP3    H231081   4.735   1.674  18.094  0.9596 -1.3091  0.0304
 2296TIP3   OH231082   4.265   2.900  16.498  0.0422 -0.6895 -0.1722
 2296TIP3    H131083   4.351   2.898  16.456  0.7031  0.4427  1.0648
 2296TIP3    H231084   4.273   2.965  16.567 -2.9443  2.4468 -2.4386
 2297TIP3   OH231085   1.433   6.387  14.554  0.4861  0.3065 -0.1019
 2297TIP3    H131086   1.339   6.399  14.542  0.3735 -0.2432  0.2286
 2297TIP3    H231087   1.441   6.310  14.609  1.1735 -0.5757 -1.3851
 2298TIP3   OH231088   6.499   6.769  16.058 -0.4057  0.4800  0.2869
 2298TIP3    H131089   6.550   6.850  16.058 -0.5634  0.7261 -3.3156
 2298TIP3    H231090   6.565   6.699  16.061  0.0018  0.7847 -1.1811
 2299TIP3   OH231091   0.284   4.646  17.242  0.9446 -0.5738 -0.0063
 2299TIP3    H131092   0.253   4.694  17.319  1.2867 -0.9505  0.3725
 2299TIP3    H231093   0.285   4.555  17.270 -0.7861 -0.9630 -1.0674
 2300TIP3   OH231094   2.531   0.760  15.623  0.0267 -0.2538  0.0914
 2300TIP3    H131095   2.582   0.778  15.702  1.2605  0.6656 -0.8750
 2300TIP3    H231096   2.455   0.819  15.629 -1.9838 -2.7980  2.3612
 2301TIP3   OH231097   0.908   2.337  17.675 -0.4322 -0.0138 -0.5738
 2301TIP3    H131098   0.862   2.414  17.641 -1.0696 -0.0359  0.2344
 2301TIP3    H231099   0.863   2.315  17.756  0.8279 -0.2048  0.1025
 2302TIP3   OH231100   5.468   6.334  15.834  0.3171 -0.1067  0.4376
 2302TIP3    H131101   5.495   6.267  15.897 -0.3059  1.2881  2.2751
 2302TIP3    H231102   5.547   6.353  15.783  1.2952 -0.1224  1.9068
 2303TIP3   OH231103   3.001   0.580  17.071 -0.6429 -0.4755  0.4452
 2303TIP3    H131104   2.956   0.578  16.987 -1.3590 -1.8770  0.8372
 2303TIP3    H231105   3.091   0.554  17.050 -0.6269 -0.0800  0.0086
 2304TIP3   OH231106   0.394   4.748  16.125  0.0874 -0.3986  0.1428
 2304TIP3    H131107   0.424   4.799  16.200 -0.3368 -0.9249  0.6816
 2304TIP3    H231108   0.346   4.812  16.071  1.2808  0.2202 -0.2355
 2305TIP3   OH231109   5.331   4.883  17.892 -0.0367  0.1062  0.0068
 2305TIP3    H131110   5.396   4.922  17.833 -0.6863  1.9650  0.4236
 2305TIP3    H231111   5.382   4.853  17.967  0.4663  0.5503 -0.1459
 2306TIP3   OH231112   4.627   3.850  16.381 -0.2667 -0.2456 -0.1025
 2306TIP3    H131113   4.700   3.878  16.326 -1.3812  0.8648 -1.0940
 2306TIP3    H231114   4.634   3.904  16.460 -0.4691  0.4625 -0.5574
 2307TIP3   OH231115   4.473   1.891  14.958  0.1085  0.0976 -0.8490
 2307TIP3    H131116   4.436   1.905  14.871 -0.2276  1.9915 -0.4579
 2307TIP3    H231117   4.567   1.901  14.947  0.1623 -0.7156 -1.1627
 2308TIP3   OH231118   1.378   4.412  15.568 -0.3307 -0.0169 -0.1116
 2308TIP3    H131119   1.390   4.488  15.511  0.8515  0.0328  0.1692
 2308TIP3    H231120   1.392   4.446  15.657 -0.0677 -0.5031  0.0371
 2309TIP3   OH231121   1.362   1.079  16.016  0.2754 -0.1389  0.6717
 2309TIP3    H131122   1.277   1.062  16.057 -0.3542 -1.9747 -1.2121
 2309TIP3    H231123   1.341   1.096  15.924  1.9121 -0.0561  0.2848
 2310TIP3   OH231124   3.495   4.164  17.629 -0.4099 -1.0088 -0.4358
 2310TIP3    H131125   3.575   4.111  17.637 -0.2907 -0.7631  0.0562
 2310TIP3    H231126   3.497   4.197  17.539  0.7380  0.0701 -0.0399
 2311TIP3   OH231127   0.837   3.224  16.534 -0.0188 -0.1197 -0.2955
 2311TIP3    H131128   0.802   3.174  16.460  0.2309  1.1980 -1.3388
 2311TIP3    H231129   0.911   3.272  16.498  0.1897  0.4633  0.8529
 2312TIP3   OH231130   4.510   3.637  16.265  0.0133 -0.0180  0.1117
 2312TIP3    H131131   4.445   3.704  16.245  0.3870  1.1424  2.4539
 2312TIP3    H231132   4.589   3.686  16.287  1.2590 -1.3583 -1.1607
 2313TIP3   OH231133   3.625   5.603  15.460 -0.0764 -0.0609  0.2700
 2313TIP3    H131134   3.553   5.598  15.397  1.6316 -1.4023 -1.7192
 2313TIP3    H231135   3.598   5.548  15.533 -1.4907  0.3313  0.0784
 2314TIP3   OH231136   4.591   5.356  15.661  0.2011 -0.0315  0.5186
 2314TIP3    H131137   4.650   5.431  15.657 -0.5995  0.6109  0.4254
 2314TIP3    H231138   4.629   5.292  15.601  1.9034 -0.4643  1.9657
 2315TIP3   OH231139   1.681   5.729  16.276  0.4666  0.1194  0.2797
 2315TIP3    H131140   1.746   5.667  16.310  1.0651  0.4809 -0.1942
 2315TIP3    H231141   1.613   5.731  16.343  0.4698 -1.0039  0.3315
 2316TIP3   OH231142   2.809   0.812  14.823 -0.0153  0.1764  0.3909
 2316TIP3    H131143   2.892   0.852  14.850 -0.4697  1.2090  0.3344
 2316TIP3    H231144   2.753   0.887  14.803  0.1747 -0.4516 -3.1360
 2317TIP3   OH231145   1.576   6.286  15.347 -0.0964  0.0263 -0.1855
 2317TIP3    H131146   1.617   6.203  15.322  0.6580  0.0775  0.8097
 2317TIP3    H231147   1.554   6.328  15.264  1.0242 -0.4329 -0.7370
 2318TIP3   OH231148   5.830   3.284  16.242 -0.4154 -0.1531 -0.0028
 2318TIP3    H131149   5.743   3.258  16.272 -1.1136  1.6124 -0.3625
 2318TIP3    H231150   5.890   3.247  16.306 -1.3334 -2.1371 -0.2215
 2319TIP3   OH231151   5.088   4.698  16.238  0.4066 -0.1395  0.8958
 2319TIP3    H131152   5.097   4.628  16.303 -0.2339 -0.2720  0.8517
 2319TIP3    H231153   5.150   4.675  16.169  2.5133  0.9873  2.2750
 2320TIP3   OH231154   2.573   5.478  14.854  0.1666 -0.1216  0.1374
 2320TIP3    H131155   2.566   5.573  14.858  0.2428 -0.0055 -1.6536
 2320TIP3    H231156   2.495   5.450  14.807  1.0096 -0.7657 -0.9282
 2321TIP3   OH231157   3.727   6.321  17.505 -0.6122 -0.0524  0.1427
 2321TIP3    H131158   3.673   6.400  17.495 -0.7627 -0.2158 -0.3445
 2321TIP3    H231159   3.779   6.317  17.425  0.1526  0.1222  0.6240
 2322TIP3   OH231160   2.931   6.670  17.262  0.1863  0.1801  0.3639
 2322TIP3    H131161   2.886   6.747  17.226  0.5459 -0.3060 -1.2348
 2322TIP3    H231162   2.950   6.693  17.353 -2.0225  0.9558  0.6981
 2323TIP3   OH231163   4.080   0.611  16.781 -0.0274  0.1866  0.3103
 2323TIP3    H131164   4.037   0.640  16.862 -1.3634 -1.3075  0.1722
 2323TIP3    H231165   4.032   0.656  16.712  0.2006  0.3595  0.2615
 2324TIP3   OH231166   3.963   6.135  17.678  0.3548  0.1946 -0.4390
 2324TIP3    H131167   3.889   6.145  17.737 -0.2561 -0.4839 -1.0783
 2324TIP3    H231168   4.003   6.222  17.675 -0.4503  0.5842 -0.1544
 2325TIP3   OH231169   1.324   3.476  14.933 -0.1554 -0.2178 -1.0264
 2325TIP3    H131170   1.232   3.451  14.929 -0.5781  1.3530 -1.5909
 2325TIP3    H231171   1.362   3.415  14.997 -1.7983 -0.2293 -0.0002
 2326TIP3   OH231172   2.669   5.437  15.778 -0.4154 -0.2554 -0.4106
 2326TIP3    H131173   2.645   5.530  15.780 -1.3510 -0.4976  0.7490
 2326TIP3    H231174   2.743   5.430  15.839 -0.4659 -0.3053 -0.3554
 2327TIP3   OH231175   2.890   1.415  15.185  0.6592 -0.2789  0.0955
 2327TIP3    H131176   2.919   1.470  15.258 -2.8565  0.3701  1.1963
 2327TIP3    H231177   2.833   1.472  15.134 -0.9535 -2.1193 -0.2628
 2328TIP3   OH231178   5.810   5.670  16.976 -0.2790 -0.0245 -0.0915
 2328TIP3    H131179   5.762   5.661  17.058 -0.5580  0.5607 -0.1824
 2328TIP3    H231180   5.901   5.652  16.999 -0.3169  0.3871  0.4052
 2329TIP3   OH231181   4.947   4.871  15.011 -0.2875  0.0774  0.3414
 2329TIP3    H131182   4.934   4.955  15.056 -0.7261 -0.6368  1.6192
 2329TIP3    H231183   5.021   4.831  15.057 -0.5690 -0.5555  0.2555
 2330TIP3   OH231184   0.148   1.272  15.139 -0.2843 -0.5636  0.6648
 2330TIP3    H131185   0.174   1.314  15.057 -0.6252 -1.0417  0.3017
 2330TIP3    H231186   0.055   1.293  15.148 -0.2238 -0.4287  0.9811
 2331TIP3   OH231187   2.112   4.054  17.167 -0.1332 -0.3536  0.0061
 2331TIP3    H131188   2.095   4.007  17.248  1.0866 -0.7154  0.0656
 2331TIP3    H231189   2.095   4.146  17.189  2.9425 -0.0293  1.5758
 2332TIP3   OH231190   0.075   5.137  14.946 -0.3350  0.2903 -0.0385
 2332TIP3    H131191   0.112   5.202  15.006  1.7524 -0.3897 -0.4719
 2332TIP3    H231192   0.094   5.053  14.989 -1.9464 -0.0957 -0.0331
 2333TIP3   OH231193   5.499   4.220  17.500 -0.2910 -0.3610  0.4541
 2333TIP3    H131194   5.426   4.179  17.546 -1.5423 -0.2853 -1.3624
 2333TIP3    H231195   5.502   4.176  17.415  0.6238  0.8369 -0.1732
 2334TIP3   OH231196   1.917   1.883  15.720  0.1524  0.4547 -0.0736
 2334TIP3    H131197   1.908   1.943  15.794 -0.6974 -1.3647  1.3584
 2334TIP3    H231198   2.005   1.848  15.729 -0.1225 -0.1304  0.3766
 2335TIP3   OH231199   0.210   4.877  16.508  0.1794 -0.0147 -0.4570
 2335TIP3    H131200   0.195   4.941  16.577 -1.2297 -0.8685  0.0720
 2335TIP3    H231201   0.209   4.792  16.553  0.3900 -0.5186 -1.3708
 2336TIP3   OH231202   3.692   4.292  16.799  0.2584 -0.1179 -0.5969
 2336TIP3    H131203   3.780   4.314  16.830  0.9456 -1.1920 -1.6666
 2336TIP3    H231204   3.707   4.226  16.731 -1.3671 -0.1159 -0.9947
 2337TIP3   OH231205   3.612   0.219  18.148  0.1406 -0.1285 -0.6458
 2337TIP3    H131206   3.529   0.258  18.177 -0.3382 -1.4891 -0.0433
 2337TIP3    H231207   3.680   0.278  18.180 -0.5701  0.5757 -0.4077
 2338TIP3   OH231208   1.055   5.770  14.427 -0.2031 -0.3437  0.3432
 2338TIP3    H131209   1.065   5.675  14.423 -1.6119 -0.4804 -1.9341
 2338TIP3    H231210   1.073   5.792  14.518 -0.8196 -2.9106  1.1809
 2339TIP3   OH231211   4.049   0.139  14.794 -0.0337  0.3207 -0.1854
 2339TIP3    H131212   4.039   0.161  14.887 -2.2709 -1.4368  0.0443
 2339TIP3    H231213   4.040   0.223  14.749 -2.3228  0.7901  1.0099
 2340TIP3   OH231214   3.303   4.218  16.728 -0.1375  0.5245 -0.3607
 2340TIP3    H131215   3.382   4.247  16.774  0.6574 -2.1223  0.0692
 2340TIP3    H231216   3.336   4.161  16.659 -1.6426  0.1798 -0.8125
 2341TIP3   OH231217   2.717   2.314  15.623 -0.0628 -0.1374 -0.3113
 2341TIP3    H131218   2.641   2.302  15.565  0.2885 -0.7493 -0.6666
 2341TIP3    H231219   2.696   2.390  15.676 -0.7974 -0.1219 -0.6154
 2342TIP3   OH231220   0.798   1.448  15.030  0.0153  0.2290  0.3335
 2342TIP3    H131221   0.706   1.421  15.027  0.4394 -1.2811 -0.1835
 2342TIP3    H231222   0.801   1.528  14.978 -0.9287  0.0525 -0.0211
 2343TIP3   OH231223   5.652   2.205  17.407  0.1473  0.3976 -0.4522
 2343TIP3    H131224   5.651   2.153  17.327  0.6380  0.4369 -0.4891
 2343TIP3    H231225   5.605   2.152  17.471  0.4272  0.0120 -0.5572
 2344TIP3   OH231226   6.506   4.819  17.341 -0.4971  0.1498 -0.2507
 2344TIP3    H131227   6.477   4.768  17.265  2.5334  1.9026 -2.8591
 2344TIP3    H231228   6.471   4.907  17.325  1.8312  1.0504 -0.8718
 2345TIP3   OH231229   3.571   1.554  15.796  0.1670  0.4246  0.2794
 2345TIP3    H131230   3.565   1.649  15.788 -2.2719  0.4316  1.2069
 2345TIP3    H231231   3.489   1.529  15.838  0.7949 -2.0995  0.1442
 2346TIP3   OH231232   0.986   4.022  17.528 -0.0380 -0.1927 -0.0536
 2346TIP3    H131233   0.908   4.002  17.579  0.0787 -0.5163  0.0012
 2346TIP3    H231234   1.059   4.001  17.586  0.0899 -0.0757 -0.1712
 2347TIP3   OH231235   4.468   4.202  14.929 -0.0991 -0.2243  0.5566
 2347TIP3    H131236   4.400   4.225  14.865  2.1972  1.5653 -1.4360
 2347TIP3    H231237   4.510   4.124  14.892  0.1183 -0.2253  0.8030
 2348TIP3   OH231238   0.783   2.836  17.661 -0.2575 -0.0373  0.0859
 2348TIP3    H131239   0.779   2.884  17.578 -0.1052 -2.2763 -1.3014
 2348TIP3    H231240   0.819   2.899  17.723  0.9965  1.3217 -1.8767
 2349TIP3   OH231241   2.355   1.192  14.555  0.0605  0.2225 -0.1139
 2349TIP3    H131242   2.348   1.104  14.520  3.1658 -0.5436  0.8776
 2349TIP3    H231243   2.446   1.217  14.540 -0.2488  2.5144  1.3127
 2350TIP3   OH231244   5.080   6.551  15.666  0.2153 -0.2828  0.1199
 2350TIP3    H131245   5.000   6.543  15.718  0.3535 -1.0402  0.2301
 2350TIP3    H231246   5.148   6.575  15.730 -0.1779  1.8345 -0.1927
 2351TIP3   OH231247   6.386   5.603  17.612 -0.4374  0.1937 -0.2735
 2351TIP3    H131248   6.412   5.604  17.704  0.1571 -0.5657 -0.4196
 2351TIP3    H231249   6.400   5.512  17.584  1.5441  0.8555 -1.7000
 2352TIP3   OH231250   4.777   3.417  16.082 -0.2579 -0.0910 -0.5773
 2352TIP3    H131251   4.872   3.401  16.086 -0.1177  0.8874  0.5718
 2352TIP3    H231252   4.740   3.347  16.135  0.0088  0.6859  0.6891
 2353TIP3   OH231253   0.074   2.088  16.623  0.5778  0.1299  0.0976
 2353TIP3    H131254   0.126   2.065  16.701  0.9786  2.2641  0.5397
 2353TIP3    H231255   0.095   2.020  16.559  1.9790 -0.4574  1.1263
 2354TIP3   OH231256   2.653   3.573  16.171  0.0370 -0.3274 -0.7205
 2354TIP3    H131257   2.639   3.656  16.216 -2.5573 -1.6419  1.1296
 2354TIP3    H231258   2.663   3.508  16.241  2.2862 -1.6207 -2.1010
 2355TIP3   OH231259   0.777   1.550  14.224 -0.1459 -0.3712 -0.1799
 2355TIP3    H131260   0.739   1.635  14.246 -0.6943 -0.2704 -1.4194
 2355TIP3    H231261   0.847   1.570  14.161 -0.4643 -0.8454 -0.6983
 2356TIP3   OH231262   3.841   3.403  16.774 -0.3615  0.0136  0.0621
 2356TIP3    H131263   3.858   3.428  16.865  1.0493 -1.0226  0.1142
 2356TIP3    H231264   3.919   3.432  16.726  0.7695 -2.9499 -0.0966
 2357TIP3   OH231265   3.858   0.387  16.068  1.1668 -0.1260 -0.3224
 2357TIP3    H131266   3.877   0.391  15.974  2.4981 -0.3077 -0.0750
 2357TIP3    H231267   3.944   0.389  16.110  0.5689  1.6100  0.9628
 2358TIP3   OH231268   5.211   6.596  16.569 -0.4740  0.0775 -0.3857
 2358TIP3    H131269   5.205   6.646  16.488  1.8072 -0.7902 -1.1919
 2358TIP3    H231270   5.216   6.505  16.541  1.1405 -0.1968  0.6329
 2359TIP3   OH231271   5.297   2.724  17.999 -0.2145 -0.6259 -0.4379
 2359TIP3    H131272   5.206   2.698  18.013 -0.4344 -1.2203 -2.6073
 2359TIP3    H231273   5.302   2.813  18.033 -1.8469 -0.2653 -1.0403
 2360TIP3   OH231274   5.975   4.317  15.581 -0.0558  0.2706  0.4795
 2360TIP3    H131275   5.902   4.265  15.616  0.0829  0.4998  1.1329
 2360TIP3    H231276   5.959   4.321  15.487 -0.0661 -0.9449  0.4217
 2361TIP3   OH231277   5.252   4.903  17.368 -0.3435 -0.4632  0.3009
 2361TIP3    H131278   5.330   4.954  17.343  0.0123 -2.0117 -2.0503
 2361TIP3    H231279   5.245   4.916  17.463  1.8316  1.0268  0.3427
 2362TIP3   OH231280   4.589   3.438  15.319 -0.0596  0.3813  0.2601
 2362TIP3    H131281   4.497   3.429  15.297  0.2934 -0.8910 -0.8516
 2362TIP3    H231282   4.634   3.443  15.235  0.8510  1.6226  0.7846
 2363TIP3   OH231283   3.486   0.494  17.812  0.5570  0.3970  0.2624
 2363TIP3    H131284   3.479   0.421  17.750  0.1955 -1.0920  1.9898
 2363TIP3    H231285   3.415   0.552  17.788 -1.7116 -1.7832  1.2792
 2364TIP3   OH231286   0.038   4.282  18.021  0.1108  0.6704 -0.0558
 2364TIP3    H131287   0.086   4.357  17.986  0.5163  0.1684 -0.5950
 2364TIP3    H231288   0.086   4.258  18.101  0.2760  0.6724 -0.1538
 2365TIP3   OH231289   0.584   1.068  14.753 -0.3963  0.1515  0.1420
 2365TIP3    H131290   0.510   1.083  14.812 -1.4940  0.6484 -1.3031
 2365TIP3    H231291   0.568   1.126  14.679  0.8546 -0.5710 -0.7338
 2366TIP3   OH231292   5.075   5.087  15.197  0.3137 -0.1262  0.1897
 2366TIP3    H131293   5.038   5.007  15.234  0.8010 -0.5425 -0.2088
 2366TIP3    H231294   5.016   5.111  15.126 -0.6804  0.7303  1.2736
 2367TIP3   OH231295   4.246   6.675  16.362 -0.2927  0.3936 -0.1615
 2367TIP3    H131296   4.213   6.592  16.328 -0.7237  0.3180  0.4158
 2367TIP3    H231297   4.326   6.692  16.313  0.4001 -0.9201  0.4696
 2368TIP3   OH231298   6.457   6.264  17.004  0.5552 -0.3967  0.4648
 2368TIP3    H131299   6.411   6.222  16.932 -0.4281 -0.5613  1.1713
 2368TIP3    H231300   6.546   6.276  16.971 -0.1609  0.6273 -1.2017
 2369TIP3   OH231301   1.307   3.208  16.833 -0.2685 -0.7019 -0.4853
 2369TIP3    H131302   1.249   3.209  16.757  2.2907  1.3643 -2.6260
 2369TIP3    H231303   1.265   3.266  16.896 -0.6131  0.7402 -1.9676
 2370TIP3   OH231304   4.229   1.805  15.757 -0.4286 -0.0339 -0.0392
 2370TIP3    H131305   4.297   1.742  15.779  0.9285  1.6822  1.0099
 2370TIP3    H231306   4.227   1.807  15.661  1.1841  0.0226 -0.0921
 2371TIP3   OH231307   3.068   2.054  15.164 -0.1419  0.5521 -0.0113
 2371TIP3    H131308   3.119   2.062  15.083  0.1916  0.6081  0.2065
 2371TIP3    H231309   2.994   1.999  15.139  0.2835  0.0628 -0.1995
 2372TIP3   OH231310   6.037   6.682  15.047 -0.2859  0.0391  0.1145
 2372TIP3    H131311   6.073   6.605  15.091  0.2014  0.5686  0.6666
 2372TIP3    H231312   6.104   6.706  14.982 -0.1346  0.3828  0.3951
 2373TIP3   OH231313   0.693   4.633  17.189  0.0930 -0.1539 -0.6767
 2373TIP3    H131314   0.733   4.702  17.242  1.0985  1.4789 -3.3914
 2373TIP3    H231315   0.756   4.561  17.192  0.6580  0.3391 -0.5644
 2374TIP3   OH231316   2.895   4.159  15.337 -0.0263  0.0110 -0.0408
 2374TIP3    H131317   2.832   4.181  15.406  0.9250  1.6024  0.3808
 2374TIP3    H231318   2.863   4.078  15.300 -1.8299  0.3192  0.7547
 2375TIP3   OH231319   0.331   6.124  17.222  0.3166  0.2357  0.0689
 2375TIP3    H131320   0.255   6.181  17.234 -0.8882 -0.5992 -2.7869
 2375TIP3    H231321   0.307   6.042  17.264  0.4207  0.5528  0.7576
 2376TIP3   OH231322   1.431   3.381  16.208  0.2593 -0.0289  0.1733
 2376TIP3    H131323   1.429   3.291  16.175  1.5735 -0.0443  0.1062
 2376TIP3    H231324   1.522   3.408  16.199 -0.1406  1.3494  0.1063
 2377TIP3   OH231325   4.393   1.435  15.254  0.6748 -0.3154  0.1082
 2377TIP3    H131326   4.332   1.471  15.188  0.6844 -0.5173 -0.0114
 2377TIP3    H231327   4.468   1.405  15.203  1.0880  0.3705  0.3011
 2378TIP3   OH231328   3.706   3.943  17.637 -0.2114 -0.2359 -0.4504
 2378TIP3    H131329   3.718   3.960  17.730 -0.7223 -0.9453 -0.2503
 2378TIP3    H231330   3.760   3.866  17.619  0.2257  0.1516 -0.8442
 2379TIP3   OH231331   6.238   5.939  15.141  0.2405  0.1723  0.9512
 2379TIP3    H131332   6.199   5.929  15.054 -1.1148  0.4525  1.5040
 2379TIP3    H231333   6.183   6.004  15.185 -1.0173 -2.1635  3.0921
 2380TIP3   OH231334   1.205   3.134  14.951  0.1131 -0.6600  0.0066
 2380TIP3    H131335   1.175   3.051  14.916  1.5113 -0.9793 -0.4973
 2380TIP3    H231336   1.154   3.200  14.903 -0.6201 -1.1944  0.0325
 2381TIP3   OH231337   5.715   6.632  18.105 -0.2116 -0.3276  0.1050
 2381TIP3    H131338   5.782   6.667  18.047 -1.7963 -0.5383 -1.9572
 2381TIP3    H231339   5.713   6.538  18.086 -1.6550 -0.2002 -0.5288
 2382TIP3   OH231340   6.418   5.735  15.155 -0.1832  0.2571 -0.0707
 2382TIP3    H131341   6.484   5.782  15.103 -0.9366  3.6370  1.7139
 2382TIP3    H231342   6.335   5.756  15.114 -0.4075 -1.8602 -0.7980
 2383TIP3   OH231343   2.865   2.952  17.504  0.2709 -0.6511  0.3554
 2383TIP3    H131344   2.824   3.005  17.436  0.5347  1.1524  1.5187
 2383TIP3    H231345   2.952   2.990  17.515  0.6910 -1.7036  0.8625
 2384TIP3   OH231346   0.521   5.566  16.537 -0.0023 -0.0448 -0.4187
 2384TIP3    H131347   0.576   5.605  16.469  1.0480 -1.6774 -0.5681
 2384TIP3    H231348   0.567   5.485  16.561 -1.3748 -0.4959  0.8277
 2385TIP3   OH231349   1.796   5.471  17.430 -0.0857 -0.4044  0.0206
 2385TIP3    H131350   1.751   5.456  17.346 -0.6283  0.0531  0.2253
 2385TIP3    H231351   1.752   5.412  17.491 -0.7433  0.3781  0.3271
 2386TIP3   OH231352   6.315   5.581  14.410  0.3892 -0.4946 -0.0008
 2386TIP3    H131353   6.318   5.667  14.452  1.6269 -1.5060  2.1467
 2386TIP3    H231354   6.262   5.595  14.331 -1.4258  1.6996  1.4774
 2387TIP3   OH231355   6.202   2.349  16.111  0.1271 -0.3444 -0.9141
 2387TIP3    H131356   6.197   2.442  16.089 -1.4040  0.0842  0.8790
 2387TIP3    H231357   6.295   2.330  16.116  0.4885  1.3082 -0.6089
 2388TIP3   OH231358   6.386   0.016  17.581  0.9504 -0.2784  0.2756
 2388TIP3    H131359   6.367   0.110  17.572  1.7278  0.1295  2.3313
 2388TIP3    H231360   6.419  -0.010  17.495  0.6744  1.3240 -0.3529
 2389TIP3   OH231361   1.888   4.687  17.087  0.3440 -0.5848  0.5017
 2389TIP3    H131362   1.944   4.756  17.124 -0.6767 -0.3511  1.6777
 2389TIP3    H231363   1.936   4.656  17.011  2.0037 -0.2842  1.3702
 2390TIP3   OH231364   3.585   0.154  15.344 -0.0109  0.2992  0.2218
 2390TIP3    H131365   3.614   0.188  15.429  0.9018 -1.9780  0.8816
 2390TIP3    H231366   3.510   0.210  15.321 -1.1858  0.1499  3.1821
 2391TIP3   OH231367   4.498   3.567  17.475  0.2327  0.1484  0.0270
 2391TIP3    H131368   4.417   3.606  17.506  1.1675  1.2282  1.2115
 2391TIP3    H231369   4.566   3.628  17.502  1.7965 -2.3268  2.1303
 2392TIP3   OH231370   4.311   6.308  17.232 -0.6489 -0.2427  0.7688
 2392TIP3    H131371   4.343   6.395  17.210  1.8853 -0.9557  1.2640
 2392TIP3    H231372   4.228   6.299  17.184 -1.2118  2.5601  1.0676
 2393TIP3   OH231373   5.818   5.370  17.311  0.0200  0.1123  0.4695
 2393TIP3    H131374   5.728   5.357  17.340 -0.3468 -0.5421 -0.8704
 2393TIP3    H231375   5.815   5.352  17.217  1.5335  0.1825  0.3910
 2394TIP3   OH231376   3.968   5.876  15.136 -0.0069  0.5995  0.3911
 2394TIP3    H131377   3.992   5.821  15.211 -1.6428  0.1471  0.6349
 2394TIP3    H231378   3.996   5.826  15.060 -0.9412 -0.3348  0.6341
 2395TIP3   OH231379   6.278   3.764  17.430 -0.0843 -0.1497  0.6047
 2395TIP3    H131380   6.303   3.718  17.511 -0.9719 -2.2566 -0.2382
 2395TIP3    H231381   6.348   3.744  17.369  0.0866  0.5987  0.5515
 2396TIP3   OH231382   5.023   2.671  17.324 -0.2243 -0.3279  0.3193
 2396TIP3    H131383   5.059   2.630  17.404  1.2994 -0.7946 -0.5663
 2396TIP3    H231384   4.929   2.651  17.328  0.1017 -1.9340  1.0913
 2397TIP3   OH231385   5.558   4.236  15.920 -0.1692 -0.1131  0.9952
 2397TIP3    H131386   5.629   4.211  15.980  0.0016 -0.4412  0.6694
 2397TIP3    H231387   5.509   4.304  15.966 -0.3389 -0.7087  1.7122
 2398TIP3   OH231388   4.385   3.926  17.100  0.6464 -0.1329  0.2403
 2398TIP3    H131389   4.387   3.885  17.013  1.8104  3.1381 -1.4528
 2398TIP3    H231390   4.293   3.947  17.114  0.4491 -0.6705 -0.2047
 2399TIP3   OH231391   6.496   0.723  15.428  0.1752 -0.0920 -0.3807
 2399TIP3    H131392   6.485   0.817  15.433  1.7592  0.1366 -0.5123
 2399TIP3    H231393   6.510   0.696  15.519 -0.5142 -0.2435 -0.3162
 2400TIP3   OH231394   1.602   3.913  15.209 -0.1730 -0.2178  0.2047
 2400TIP3    H131395   1.626   3.965  15.286 -0.5244 -0.7095  0.6577
 2400TIP3    H231396   1.525   3.863  15.237 -0.9872  0.4207 -0.8277
 2401TIP3   OH231397   4.782   1.154  15.740  0.1995 -0.0908 -0.0618
 2401TIP3    H131398   4.692   1.123  15.745 -0.3936  1.0970 -2.1862
 2401TIP3    H231399   4.776   1.248  15.757  1.2525 -0.2253  1.1745
 2402TIP3   OH231400   2.945   0.097  18.089  0.2198  0.3861 -0.1498
 2402TIP3    H131401   2.980   0.092  18.000  0.9667 -0.2342  0.1617
 2402TIP3    H231402   3.022   0.117  18.143 -0.1050  0.1079  0.4266
 2403TIP3   OH231403   5.081   1.859  14.339  0.0465  0.0197 -0.3955
 2403TIP3    H131404   5.169   1.876  14.308  0.0941 -0.2543 -0.4166
 2403TIP3    H231405   5.042   1.804  14.271 -0.8198  1.7615 -1.3778
 2404TIP3   OH231406   1.069   4.825  16.640 -0.2530  0.7623  0.0114
 2404TIP3    H131407   1.055   4.737  16.677 -1.4506  0.7900 -0.3407
 2404TIP3    H231408   1.128   4.868  16.702  1.8808 -0.8904 -0.7356
 2405TIP3   OH231409   6.241   3.910  15.327  0.1674 -0.2234 -0.6528
 2405TIP3    H131410   6.228   3.900  15.421  0.4943 -0.4190 -0.6250
 2405TIP3    H231411   6.262   4.002  15.314 -0.4084 -0.0839 -0.6002
 2406TIP3   OH231412   3.650   4.905  16.855 -0.4002  0.7241 -0.0407
 2406TIP3    H131413   3.610   4.875  16.774  0.4244 -0.7644  0.0672
 2406TIP3    H231414   3.686   4.826  16.895  0.1087  1.5818  1.2721
 2407TIP3   OH231415   2.105   1.278  16.579 -0.5578  0.1541  0.0646
 2407TIP3    H131416   2.082   1.236  16.662 -1.3378 -0.4761 -0.4533
 2407TIP3    H231417   2.021   1.307  16.543 -0.7926 -2.8288 -2.2281
 2408TIP3   OH231418   4.324   5.313  17.482 -0.4440 -0.0972 -0.0699
 2408TIP3    H131419   4.332   5.408  17.476  0.0049 -0.1581 -0.4608
 2408TIP3    H231420   4.393   5.279  17.424  0.6209 -0.6785  1.4755
 2409TIP3   OH231421   4.636   2.210  17.428 -0.2949 -0.2473  0.3822
 2409TIP3    H131422   4.614   2.286  17.375 -0.9488  0.7702  2.0203
 2409TIP3    H231423   4.569   2.145  17.407 -0.9190  0.3766  0.4084
 2410TIP3   OH231424   1.352   3.651  17.694  0.2883  0.6810 -0.2442
 2410TIP3    H131425   1.311   3.577  17.739 -0.2074  0.6971 -0.6636
 2410TIP3    H231426   1.437   3.661  17.737  0.1102  0.2501  0.2182
 2411TIP3   OH231427   6.081   4.913  16.800 -0.0805  0.4719 -0.6462
 2411TIP3    H131428   6.012   4.880  16.858  1.8628 -1.6199  0.6360
 2411TIP3    H231429   6.040   4.985  16.753 -2.3098  1.1617  2.0818
 2412TIP3   OH231430   6.652   5.511  16.882 -1.0656  0.2151 -0.3797
 2412TIP3    H131431   6.609   5.428  16.903  1.2401 -0.8686  0.3500
 2412TIP3    H231432   6.630   5.569  16.955  0.6224 -1.1116  1.2898
 2413TIP3   OH231433   1.504   3.692  15.455  0.5075  0.5803  0.8035
 2413TIP3    H131434   1.511   3.759  15.523 -0.5392  0.7463  0.7646
 2413TIP3    H231435   1.423   3.713  15.409  0.4028 -0.4415  0.4939
 2414TIP3   OH231436   4.952   0.684  15.917  0.1689  0.0127 -0.0120
 2414TIP3    H131437   5.038   0.713  15.948 -0.2379  0.3368  0.8593
 2414TIP3    H231438   4.893   0.755  15.943 -0.8878 -1.5622  2.2892
 2415TIP3   OH231439   2.440   4.201  17.850  0.1224  0.1457  0.4925
 2415TIP3    H131440   2.473   4.190  17.938  0.6756 -0.1248  0.2537
 2415TIP3    H231441   2.350   4.233  17.862  0.7413  1.7329  1.1507
 2416TIP3   OH231442   1.452   4.458  14.891 -0.1332 -0.0940  0.6525
 2416TIP3    H131443   1.483   4.546  14.911  1.1190  0.3422 -2.6526
 2416TIP3    H231444   1.378   4.471  14.831 -0.3147 -1.3029  0.5911
 2417TIP3   OH231445   6.393   0.560  17.371  0.2802 -0.5605 -0.1386
 2417TIP3    H131446   6.421   0.506  17.298 -0.4477 -1.5772  0.3021
 2417TIP3    H231447   6.367   0.643  17.332  1.1615 -0.6218 -0.8638
 2418TIP3   OH231448   2.667   1.913  17.737  0.3262  0.0112  0.2946
 2418TIP3    H131449   2.712   1.879  17.660 -0.9926  0.2596 -0.6155
 2418TIP3    H231450   2.604   1.976  17.702 -0.5333 -0.1156  1.5594
 2419TIP3   OH231451   3.656   3.849  15.693 -0.5811 -0.0110 -0.7888
 2419TIP3    H131452   3.735   3.898  15.669  0.3802 -0.6328  0.9692
 2419TIP3    H231453   3.677   3.758  15.671  0.1202 -0.5189  1.7247
 2420TIP3   OH231454   4.960   6.339  16.722 -0.1105 -0.3306  0.2122
 2420TIP3    H131455   4.937   6.338  16.629 -2.6398 -0.5505  0.7553
 2420TIP3    H231456   4.944   6.249  16.751  2.1904 -0.6807  0.5900
 2421TIP3   OH231457   1.085   1.681  16.142  0.4447 -0.0613  0.0993
 2421TIP3    H131458   1.099   1.746  16.073  0.6259  0.1829  0.3632
 2421TIP3    H231459   1.068   1.599  16.095 -0.9520  0.4014 -0.2416
 2422TIP3   OH231460   5.101   3.239  17.383  0.0857  0.2582 -0.3097
 2422TIP3    H131461   5.129   3.148  17.390  2.8020  0.9146 -1.3305
 2422TIP3    H231462   5.067   3.261  17.470  0.0536 -1.5125  0.1477
 2423TIP3   OH231463   1.843   6.594  14.876  0.1807 -0.3174 -0.1499
 2423TIP3    H131464   1.772   6.620  14.935  1.3157  0.1829  1.0445
 2423TIP3    H231465   1.799   6.572  14.794 -1.1522  2.7158 -0.4018
 2424TIP3   OH231466   5.307   5.722  16.441  0.0671 -0.2628 -0.0362
 2424TIP3    H131467   5.318   5.809  16.479  0.9268  0.2237 -1.3398
 2424TIP3    H231468   5.373   5.668  16.484  1.0835  0.3036 -0.8346
 2425TIP3   OH231469   2.560   6.686  16.143 -0.4600  0.2576 -0.0340
 2425TIP3    H131470   2.610   6.764  16.167  0.6916  0.4613 -2.7693
 2425TIP3    H231471   2.618   6.613  16.161 -0.7312  0.1677  0.5107
 2426TIP3   OH231472   0.393   1.166  14.945  0.0499 -0.3310 -0.1341
 2426TIP3    H131473   0.315   1.112  14.937  0.9032 -1.7066  0.5306
 2426TIP3    H231474   0.442   1.128  15.018  0.7198  1.3020  0.3012
 2427TIP3   OH231475   1.668   4.405  17.437 -0.1599  0.1445 -0.4638
 2427TIP3    H131476   1.706   4.397  17.525  0.3810  0.4050 -0.6688
 2427TIP3    H231477   1.741   4.436  17.383 -0.6902  0.7212 -0.8483
 2428TIP3   OH231478   4.177   1.071  17.166  0.2145  0.0145 -0.1421
 2428TIP3    H131479   4.272   1.073  17.152  0.1330 -1.1637 -0.9774
 2428TIP3    H231480   4.160   0.987  17.207 -0.5222  0.0479 -0.3643
 2429TIP3   OH231481   0.780   4.921  17.603  0.1731  0.1375  0.5740
 2429TIP3    H131482   0.727   4.945  17.679  0.8531  1.1313  0.7585
 2429TIP3    H231483   0.808   4.831  17.621 -2.1777 -0.7832  0.0320
 2430TIP3   OH231484   5.965   1.973  16.502 -0.6352 -0.0406  0.0848
 2430TIP3    H131485   6.001   1.905  16.445  0.1783  1.4321 -1.2367
 2430TIP3    H231486   5.884   2.000  16.459 -1.5259 -0.8905  1.1799
 2431TIP3   OH231487   0.318   4.712  17.798 -0.0537  0.2470  0.5165
 2431TIP3    H131488   0.350   4.789  17.844 -2.2778  2.0525 -0.7554
 2431TIP3    H231489   0.395   4.677  17.752  1.1276  1.2655  1.6502
 2432TIP3   OH231490   5.083   3.297  17.651  0.2844  0.3708  0.2713
 2432TIP3    H131491   5.133   3.230  17.698 -0.1762  0.5833  1.0920
 2432TIP3    H231492   5.116   3.380  17.687  2.5377  0.7591 -2.3881
 2433TIP3   OH231493   6.376   5.254  15.927  0.1614  0.4311 -0.5186
 2433TIP3    H131494   6.306   5.268  15.990  0.6323  1.4554 -0.1985
 2433TIP3    H231495   6.331   5.237  15.844 -0.5022  2.3337 -0.6004
 2434TIP3   OH231496   4.724   0.233  14.742  0.0673  0.1330 -0.5339
 2434TIP3    H131497   4.809   0.252  14.701 -0.0111  0.0282 -0.7465
 2434TIP3    H231498   4.721   0.291  14.818  0.3260  0.1438 -0.5299
 2435TIP3   OH231499   1.118   3.136  16.352  0.0737 -0.2227 -0.0796
 2435TIP3    H131500   1.164   3.061  16.388  1.4627  0.1435 -1.0362
 2435TIP3    H231501   1.158   3.212  16.395 -1.4281 -0.0000  1.0050
 2436TIP3   OH231502   6.447   2.852  18.220  0.0461 -0.3813 -0.4184
 2436TIP3    H131503   6.540   2.874  18.210 -0.0859  0.0003 -0.8272
 2436TIP3    H231504   6.410   2.925  18.269  0.2188 -1.1544  0.9147
 2437TIP3   OH231505   5.993   0.600  17.416 -0.2162 -0.1559  0.0332
 2437TIP3    H131506   5.904   0.635  17.412 -0.3623 -0.4585  0.6291
 2437TIP3    H231507   5.988   0.527  17.477  0.7661  0.8420  1.3691
 2438TIP3   OH231508   6.213   5.345  16.299 -0.3668 -0.1975 -0.1178
 2438TIP3    H131509   6.142   5.402  16.268 -0.6806 -0.8979 -0.7150
 2438TIP3    H231510   6.293   5.390  16.273 -0.6165 -0.7591 -1.9981
 2439TIP3   OH231511   1.065   1.519  15.577 -0.3346 -0.4949  0.5954
 2439TIP3    H131512   1.097   1.443  15.528 -2.3333 -1.3349  0.4890
 2439TIP3    H231513   1.095   1.594  15.526  1.2933 -1.2047  0.4504
 2440TIP3   OH231514   4.548   5.273  16.021  0.7217 -0.2271  0.0995
 2440TIP3    H131515   4.600   5.216  15.964  0.1703 -0.6881  0.0535
 2440TIP3    H231516   4.553   5.359  15.978  0.2232 -0.5890 -0.7103
 2441TIP3   OH231517   3.808   4.133  16.622  0.2260  0.3917  0.3091
 2441TIP3    H131518   3.899   4.124  16.592  0.3229  0.5880  0.5443
 2441TIP3    H231519   3.757   4.083  16.558  0.6004 -0.5166  0.7066
 2442TIP3   OH231520   6.310   2.970  15.940  0.0130  0.5614 -0.1457
 2442TIP3    H131521   6.327   3.008  15.854  2.0824 -0.4596 -0.2550
 2442TIP3    H231522   6.379   3.006  15.996 -0.4047  0.0648  0.7008
 2443TIP3   OH231523   3.675   0.317  17.658 -0.1941 -0.3761  0.3623
 2443TIP3    H131524   3.718   0.343  17.576 -1.1525  0.4608  0.0964
 2443TIP3    H231525   3.744   0.277  17.710  0.9513  1.1011  0.0348
 2444TIP3   OH231526   6.488   4.844  16.601 -0.7040 -0.5062  0.0426
 2444TIP3    H131527   6.530   4.843  16.515  1.5753  0.2217  1.0792
 2444TIP3    H231528   6.398   4.816  16.583 -1.1818  2.3035 -3.0095
 2445TIP3   OH231529   2.983   4.668  17.276  0.0605 -0.1074  0.1536
 2445TIP3    H131530   3.055   4.605  17.264  1.0635  1.0991 -0.4003
 2445TIP3    H231531   3.016   4.728  17.343  1.0542  2.4410 -2.4244
 2446TIP3   OH231532   0.882   2.261  15.986  0.4350 -0.0961  0.0897
 2446TIP3    H131533   0.900   2.304  15.903  3.2992  0.2795  0.8027
 2446TIP3    H231534   0.858   2.333  16.045 -1.8315 -0.3867 -0.3751
 2447TIP3   OH231535   2.639   0.329  15.614  0.8980  0.1393  0.0802
 2447TIP3    H131536   2.689   0.247  15.615 -3.2693 -2.6991  1.2774
 2447TIP3    H231537   2.668   0.376  15.692  1.6495 -1.3604  0.7308
 2448TIP3   OH231538   5.949   3.678  14.652 -0.4879  0.1329 -0.2093
 2448TIP3    H131539   5.946   3.768  14.684  0.4983 -0.5356  1.9521
 2448TIP3    H231540   6.041   3.663  14.630 -0.8742  0.0458 -1.9201
 2449TIP3   OH231541   2.587   1.883  16.956  0.8430  0.3964 -0.5734
 2449TIP3    H131542   2.663   1.825  16.957 -0.3395 -1.2743  1.8511
 2449TIP3    H231543   2.588   1.926  17.042 -0.0883  1.5993 -1.1271
 2450TIP3   OH231544   5.743   5.787  15.284 -0.4142  0.0672  0.2199
 2450TIP3    H131545   5.733   5.723  15.213 -1.8079 -2.3982  2.4551
 2450TIP3    H231546   5.653   5.812  15.306  0.0007  0.9018  0.9978
 2451TIP3   OH231547   3.646   6.134  18.114 -0.2409 -0.2256 -0.4585
 2451TIP3    H131548   3.571   6.191  18.134 -1.1097 -0.1077 -3.4194
 2451TIP3    H231549   3.613   6.045  18.128 -0.4002 -0.1213 -0.1743
 2452TIP3   OH231550   2.456   0.019  16.583  0.1293 -0.3478  0.1525
 2452TIP3    H131551   2.364  -0.002  16.595  0.4593 -1.5564  0.7365
 2452TIP3    H231552   2.456   0.102  16.535 -1.2492 -0.6890 -0.4751
 2453TIP3   OH231553   5.621   2.646  17.411  0.2136  0.2381  0.2431
 2453TIP3    H131554   5.555   2.608  17.469  0.7505  1.4249  1.6935
 2453TIP3    H231555   5.597   2.739  17.405  1.8547  0.7530  1.0245
 2454TIP3   OH231556   6.279   4.856  15.424 -0.2665 -0.0301  0.3027
 2454TIP3    H131557   6.268   4.951  15.423  0.1449  0.0208  0.2182
 2454TIP3    H231558   6.335   4.838  15.348  0.5210 -0.2294  0.9210
 2455TIP3   OH231559   6.004   2.694  14.511 -0.1115 -0.1431 -0.0762
 2455TIP3    H131560   5.967   2.781  14.495  0.5182  0.1223 -0.1453
 2455TIP3    H231561   6.006   2.652  14.425 -1.5223 -0.6925  0.1335
 2456TIP3   OH231562   3.632   3.868  16.010 -0.0731 -0.0155 -0.0652
 2456TIP3    H131563   3.718   3.868  16.053 -0.4227 -2.5616  0.8222
 2456TIP3    H231564   3.650   3.847  15.919  0.2990  0.1963 -0.0413
 2457TIP3   OH231565   1.178   0.949  16.476 -0.1188  0.2206 -0.2870
 2457TIP3    H131566   1.159   1.042  16.489 -0.4739  0.0483  0.4865
 2457TIP3    H231567   1.265   0.937  16.515 -1.2423 -0.3253  2.2713
 2458TIP3   OH231568   1.872   0.249  17.299  0.3498  0.3535  0.3135
 2458TIP3    H131569   1.927   0.324  17.275  0.2240  0.5331  0.5836
 2458TIP3    H231570   1.787   0.287  17.321 -0.4431 -0.0741 -1.8039
 2459TIP3   OH231571   2.793   2.310  14.908  0.0735 -0.0480 -0.4511
 2459TIP3    H131572   2.846   2.329  14.830 -0.7757  0.3850 -0.9412
 2459TIP3    H231573   2.812   2.382  14.968  0.0916  0.0668 -0.5949
 2460TIP3   OH231574   3.238   1.591  16.294  0.1473  0.0567  0.2456
 2460TIP3    H131575   3.300   1.663  16.304 -0.8402  1.1364 -1.0660
 2460TIP3    H231576   3.159   1.621  16.338  0.1557 -0.8204  0.8853
 2461TIP3   OH231577   6.576   5.033  15.364  0.6333 -0.1520 -0.1555
 2461TIP3    H131578   6.572   5.071  15.276  1.7443  0.4768  0.0492
 2461TIP3    H231579   6.645   4.967  15.358 -0.4910 -1.3758 -0.2005
 2462TIP3   OH231580   3.020   0.321  15.891  0.3425 -0.1767  0.0454
 2462TIP3    H131581   3.102   0.332  15.842  0.8568  1.3328  1.1650
 2462TIP3    H231582   3.042   0.345  15.981 -1.4822  0.9495  0.2471
 2463TIP3   OH231583   3.248   4.443  15.595  0.2085 -0.1308  0.2409
 2463TIP3    H131584   3.334   4.484  15.581  0.4977 -0.2962  1.4410
 2463TIP3    H231585   3.257   4.356  15.556  0.2653  0.1872 -0.4803
 2464TIP3   OH231586   4.162   6.711  17.394  0.1026  0.2584  0.3190
 2464TIP3    H131587   4.068   6.695  17.384 -0.0920 -0.1489  2.3817
 2464TIP3    H231588   4.198   6.627  17.424  1.3240  0.1263 -1.3571
 2465TIP3   OH231589   0.493   1.594  16.321  0.0816  0.0726  0.0961
 2465TIP3    H131590   0.573   1.567  16.368  1.7433 -0.5325 -2.8055
 2465TIP3    H231591   0.489   1.688  16.334 -0.1120 -0.1825  2.2160
 2466TIP3   OH231592   0.605   1.729  15.048  0.3323 -0.3728  0.1500
 2466TIP3    H131593   0.538   1.757  15.111  0.2763 -0.3063  0.0624
 2466TIP3    H231594   0.577   1.642  15.020 -0.1024 -0.0663 -0.4090
 2467TIP3   OH231595   5.936   3.905  16.726  0.2183 -0.2312  0.1615
 2467TIP3    H131596   5.844   3.905  16.700 -0.1859  0.9043  1.4897
 2467TIP3    H231597   5.934   3.888  16.820  1.3500  0.1047  0.2578
 2468TIP3   OH231598   5.255   5.060  16.015  0.0070  0.4842 -0.3384
 2468TIP3    H131599   5.343   5.077  15.981  0.2879 -0.6661 -0.2426
 2468TIP3    H231600   5.264   5.070  16.110  0.2238 -0.3359 -0.2631
 2469TIP3   OH231601   3.897   0.314  16.569  0.1717  0.1411 -0.6608
 2469TIP3    H131602   3.978   0.265  16.553  0.1616  0.2270 -0.9794
 2469TIP3    H231603   3.856   0.321  16.483 -0.0241  0.3673 -0.5508
 2470TIP3   OH231604   4.788   2.035  16.617  0.2428 -0.7079  0.6941
 2470TIP3    H131605   4.804   2.114  16.669  0.0105  0.3316 -0.7381
 2470TIP3    H231606   4.875   1.998  16.602  0.3729 -0.6211  1.2148
 2471TIP3   OH231607   2.951   2.015  16.710 -0.3928 -0.0826  0.4343
 2471TIP3    H131608   2.970   1.966  16.790 -0.9059  0.2490  0.7650
 2471TIP3    H231609   2.896   2.088  16.739  0.1589  0.5539 -0.0869
 2472TIP3   OH231610   1.631   3.484  15.552 -0.3130  0.2701  0.8696
 2472TIP3    H131611   1.716   3.522  15.529  0.0937  0.0567  1.9780
 2472TIP3    H231612   1.567   3.552  15.531  0.1462  0.5129  0.2336
 2473TIP3   OH231613   3.142   2.147  16.066 -0.0477  0.4007  0.3316
 2473TIP3    H131614   3.083   2.195  16.124 -0.1778  0.1107  0.4381
 2473TIP3    H231615   3.196   2.216  16.026  0.1816  0.5927  0.9435
 2474TIP3   OH231616   3.563   2.931  16.602  0.2135  0.2942 -0.1127
 2474TIP3    H131617   3.521   2.994  16.660 -0.9836 -0.7178  0.1653
 2474TIP3    H231618   3.599   2.865  16.661 -0.7422 -0.5793 -0.4747
 2475TIP3   OH231619   5.141   0.771  15.555  0.1508  0.3553  0.1772
 2475TIP3    H131620   5.098   0.708  15.499  0.5386  1.3693 -1.3173
 2475TIP3    H231621   5.069   0.824  15.592 -0.0097  1.1690 -1.2324
 2476TIP3   OH231622   0.417   2.612  15.482 -0.1730  0.2730  0.4407
 2476TIP3    H131623   0.378   2.532  15.518  1.7386  0.0852  2.3327
 2476TIP3    H231624   0.459   2.584  15.401  0.0784 -0.5768  0.8493
 2477TIP3   OH231625   2.835   0.708  15.408 -0.2897  0.0515 -0.4597
 2477TIP3    H131626   2.843   0.753  15.492  3.2557  1.2375 -1.2575
 2477TIP3    H231627   2.827   0.615  15.431  0.4233  0.3582  1.2021
 2478TIP3   OH231628   4.111   6.060  17.075 -0.7891 -0.6321 -0.1065
 2478TIP3    H131629   4.096   5.993  17.008 -1.3581  0.0997 -0.7272
 2478TIP3    H231630   4.098   6.143  17.030  0.9989 -0.0436  0.3814
 2479TIP3   OH231631   5.341   3.333  17.106 -0.4258 -0.2752  0.7578
 2479TIP3    H131632   5.385   3.258  17.068 -0.4809  0.0930 -0.0520
 2479TIP3    H231633   5.273   3.296  17.162  1.2538 -0.8777  2.5143
 2480TIP3   OH231634   0.593   2.125  16.147 -0.2782  0.0553 -0.5059
 2480TIP3    H131635   0.545   2.127  16.064 -0.1808  1.5363 -0.5544
 2480TIP3    H231636   0.567   2.205  16.192 -0.8657 -1.0412  1.2404
 2481TIP3   OH231637   5.595   4.761  16.773  0.5579 -0.0318  0.1726
 2481TIP3    H131638   5.618   4.785  16.863 -1.6629 -0.1005  0.8180
 2481TIP3    H231639   5.563   4.672  16.779  0.2802  0.0004 -0.6830
 2482TIP3   OH231640   6.397   1.691  17.541  0.0465 -0.3277  0.4523
 2482TIP3    H131641   6.393   1.721  17.450 -0.9217  0.4721  0.7382
 2482TIP3    H231642   6.306   1.685  17.569  0.3415  1.0175  1.8642
 2483TIP3   OH231643   2.717   4.346  15.236  0.7035  0.2736  0.0460
 2483TIP3    H131644   2.754   4.294  15.307 -0.3795 -0.4083  0.1269
 2483TIP3    H231645   2.673   4.419  15.280 -1.7307 -1.2272  0.2803
 2484TIP3   OH231646   2.896   0.622  15.172 -0.3900 -0.1565  0.0555
 2484TIP3    H131647   2.829   0.623  15.104 -2.0472 -0.3747  1.6192
 2484TIP3    H231648   2.857   0.671  15.245  0.1411 -2.3213  1.9035
 2485TIP3   OH231649   0.160   4.133  17.674 -0.7369 -0.1571  0.4543
 2485TIP3    H131650   0.154   4.157  17.581 -0.5328  0.2464  0.5415
 2485TIP3    H231651   0.145   4.216  17.721  1.7658  0.2247  0.7422
 2486TIP3   OH231652   2.176   4.185  16.005 -0.5014 -0.4014 -0.0928
 2486TIP3    H131653   2.181   4.250  16.075  0.4849 -1.3940  0.7980
 2486TIP3    H231654   2.256   4.133  16.015 -1.3309 -1.8392 -0.6914
 2487TIP3   OH231655   5.794   4.043  14.632  0.4109  0.2552  0.1802
 2487TIP3    H131656   5.701   4.062  14.628  0.0146 -1.2595  1.0724
 2487TIP3    H231657   5.808   4.014  14.723  1.5376 -0.4352 -0.1915
 2488TIP3   OH231658   0.607   6.476  16.633 -0.6037  0.5603 -0.5936
 2488TIP3    H131659   0.514   6.475  16.611 -0.7285  0.0404 -0.0433
 2488TIP3    H231660   0.621   6.399  16.687  0.2761  0.3018 -1.1558
 2489TIP3   OH231661   0.199   5.284  17.202 -0.3357  0.2169  0.1725
 2489TIP3    H131662   0.229   5.200  17.169  1.5278  0.1358  1.8840
 2489TIP3    H231663   0.171   5.266  17.292  0.6266  1.4750  0.7674
 2490TIP3   OH231664   2.832   4.168  16.608  0.7413  0.1156  0.3229
 2490TIP3    H131665   2.779   4.248  16.610  1.1027  0.3983  3.5008
 2490TIP3    H231666   2.920   4.198  16.583  0.6088  0.4996  0.3155
 2491TIP3   OH231667   2.558   0.020  17.482  0.7768  0.1915  0.2120
 2491TIP3    H131668   2.593  -0.064  17.512  0.4506 -1.2565 -3.0594
 2491TIP3    H231669   2.467   0.001  17.459  0.4662  1.6705  0.1474
 2492TIP3   OH231670   1.974   1.143  15.172  0.0355 -0.6726  0.0136
 2492TIP3    H131671   1.996   1.114  15.261 -2.7001 -2.5067  0.2209
 2492TIP3    H231672   2.038   1.097  15.116  0.3638 -1.3134  0.8849
 2493TIP3   OH231673   4.783   2.998  15.801  0.3574  0.1514 -0.4253
 2493TIP3    H131674   4.735   2.947  15.736  0.5577 -2.3896  1.2579
 2493TIP3    H231675   4.871   3.007  15.765  1.3264 -3.6844  0.4506
 2494TIP3   OH231676   3.161   0.589  15.385 -0.5226  0.0501  0.3674
 2494TIP3    H131677   3.115   0.505  15.388  0.4566 -0.5198  0.0682
 2494TIP3    H231678   3.254   0.565  15.380 -0.2024  1.1579  0.6807
 2495TIP3   OH231679   4.401   1.778  16.176  0.5240 -0.2262  0.6625
 2495TIP3    H131680   4.407   1.684  16.192  1.4448 -0.1544  0.8194
 2495TIP3    H231681   4.348   1.786  16.097  0.9833 -0.9217  0.2732
 2496TIP3   OH231682   1.534   2.175  17.038 -0.1796 -0.0145 -0.1557
 2496TIP3    H131683   1.514   2.082  17.044 -1.5787  0.2060 -1.0116
 2496TIP3    H231684   1.504   2.212  17.122  0.1338 -0.2804  0.0764
 2497TIP3   OH231685   5.914   6.318  17.382  0.5368 -0.1151 -0.5411
 2497TIP3    H131686   5.867   6.336  17.301  1.0979 -0.5915 -0.9883
 2497TIP3    H231687   5.987   6.262  17.355  2.0292  1.5087 -0.0467
 2498TIP3   OH231688   5.142   1.684  15.861 -0.1287  0.1374 -0.1347
 2498TIP3    H131689   5.082   1.731  15.803  0.0089 -0.5050 -0.8084
 2498TIP3    H231690   5.153   1.598  15.820 -0.5891 -0.5948  1.2148
 2499TIP3   OH231691   1.982   3.051  15.703  0.1994 -0.1197 -0.0857
 2499TIP3    H131692   2.055   3.094  15.748  1.6032 -1.5320 -0.9029
 2499TIP3    H231693   1.985   2.961  15.734  0.9080 -1.0250 -2.5474
 2500TIP3   OH231694   4.288   3.957  17.404 -0.3636 -0.6937 -0.1794
 2500TIP3    H131695   4.354   3.947  17.473  0.1752  0.6077 -0.4807
 2500TIP3    H231696   4.337   3.985  17.327 -1.0942 -1.1236 -0.8179
 2501TIP3   OH231697   5.958   1.185  17.342 -0.2360  0.7780  0.1506
 2501TIP3    H131698   5.943   1.222  17.429 -2.5024  0.0927  0.1191
 2501TIP3    H231699   5.908   1.242  17.283 -0.4497  0.0157 -0.4137
 2502TIP3   OH231700   3.798   2.500  17.294 -0.7845  0.1457 -0.3837
 2502TIP3    H131701   3.783   2.444  17.370  1.0226  2.0693  1.5297
 2502TIP3    H231702   3.834   2.441  17.228 -0.4697 -1.2349  0.9634
 2503TIP3   OH231703   2.703   5.995  14.964 -0.2271 -0.4914  0.6771
 2503TIP3    H131704   2.642   6.031  14.900 -0.1921 -0.0005  0.9171
 2503TIP3    H231705   2.785   5.984  14.917 -0.2420 -0.2667  0.5997
 2504TIP3   OH231706   4.012   5.811  15.488 -0.3550 -0.2273  0.1047
 2504TIP3    H131707   4.041   5.902  15.492 -0.4548 -0.1724 -0.3292
 2504TIP3    H231708   3.918   5.815  15.504 -0.8300  0.0373 -2.3237
 2505TIP3   OH231709   2.621   5.269  16.079 -0.5300  0.4456 -0.5882
 2505TIP3    H131710   2.586   5.180  16.083 -0.2814  0.3884  0.4319
 2505TIP3    H231711   2.562   5.321  16.133  0.6243  0.4488  0.7061
 2506TIP3   OH231712   5.490   1.896  17.925 -1.0539 -0.7061  0.1049
 2506TIP3    H131713   5.499   1.972  17.982 -1.4552 -0.5946  0.0232
 2506TIP3    H231714   5.573   1.892  17.877 -1.2068 -0.0334 -0.2350
 2507TIP3   OH231715   5.018   1.831  15.621 -0.2824 -0.0690  0.7002
 2507TIP3    H131716   5.054   1.851  15.535 -1.9827 -0.5502 -0.1661
 2507TIP3    H231717   4.976   1.745  15.611  0.1326 -0.4890  2.2226
 2508TIP3   OH231718   1.331   6.053  16.689 -0.0160 -0.3383  0.3163
 2508TIP3    H131719   1.342   6.003  16.770  0.3466 -0.2970  0.2937
 2508TIP3    H231720   1.239   6.043  16.667  0.0821 -1.1124  0.2352
 2509TIP3   OH231721   5.256   1.338  14.842 -0.4435 -0.4234 -0.8412
 2509TIP3    H131722   5.247   1.307  14.751 -0.2482 -2.1113 -0.3235
 2509TIP3    H231723   5.343   1.307  14.869 -0.3466  0.3912 -0.1869
 2510TIP3   OH231724   0.696   6.377  14.908 -0.1687  0.0868  0.2649
 2510TIP3    H131725   0.784   6.343  14.928 -0.0089  0.9095  1.0280
 2510TIP3    H231726   0.706   6.472  14.907 -1.0381  0.1909  0.3039
 2511TIP3   OH231727   2.994   5.398  16.211  0.3456  0.1278  0.1211
 2511TIP3    H131728   2.938   5.339  16.262 -0.2390  1.0232  0.5330
 2511TIP3    H231729   2.970   5.486  16.240  1.1698  0.5851 -0.5217
 2512TIP3   OH231730   0.194   2.244  14.787  0.3257 -0.6852  0.1466
 2512TIP3    H131731   0.132   2.247  14.715  0.7307  0.0196 -0.1831
 2512TIP3    H231732   0.159   2.305  14.852  0.0754 -1.1563  0.4663
 2513TIP3   OH231733   5.193   2.691  15.081  0.5622 -0.4980 -1.3693
 2513TIP3    H131734   5.276   2.711  15.039  1.0002 -0.7586 -0.6585
 2513TIP3    H231735   5.202   2.599  15.109  0.2631 -0.3561 -0.7819
 2514TIP3   OH231736   0.249   6.760  15.920  0.2987  0.5069  0.0130
 2514TIP3    H131737   0.250   6.689  15.857  0.8910  0.8451 -0.3683
 2514TIP3    H231738   0.277   6.837  15.871  0.1618  0.9027  0.5372
 2515TIP3   OH231739   5.336   0.746  16.814 -0.7426 -0.1805 -0.3940
 2515TIP3    H131740   5.340   0.840  16.835  0.4429 -0.7801  2.6439
 2515TIP3    H231741   5.307   0.705  16.896  0.5506 -2.5994 -1.0649
 2516TIP3   OH231742   3.929   1.410  17.242  0.2573 -0.2454  0.1961
 2516TIP3    H131743   4.006   1.406  17.298  0.0926 -0.4470  0.4077
 2516TIP3    H231744   3.934   1.330  17.189  1.1422  0.5897 -1.0390
 2517TIP3   OH231745   4.534   0.669  16.017 -0.4849 -0.1877  0.1879
 2517TIP3    H131746   4.618   0.630  16.039 -0.4657 -0.6382 -0.6403
 2517TIP3    H231747   4.507   0.624  15.937 -1.0635  0.6114 -0.0764
 2518TIP3   OH231748   0.117   1.908  18.273 -0.0488  0.0876 -0.0097
 2518TIP3    H131749   0.066   1.983  18.242 -2.4656 -1.1653  0.6733
 2518TIP3    H231750   0.162   1.940  18.351 -2.2856  0.4754  1.1931
 2519TIP3   OH231751   2.457   2.693  16.927 -0.2422 -0.0564  0.3073
 2519TIP3    H131752   2.419   2.778  16.904 -0.0800 -0.2575 -0.7480
 2519TIP3    H231753   2.500   2.663  16.846  0.9645 -0.4696  1.0761
 2520TIP3   OH231754   3.597   2.480  15.214 -0.2505 -0.0377  0.3570
 2520TIP3    H131755   3.586   2.513  15.124 -0.1649  0.6038  0.5749
 2520TIP3    H231756   3.570   2.554  15.269 -1.1773 -0.7317  0.8606
 2521TIP3   OH231757   1.737   6.545  16.411  0.0876  0.2549 -0.2647
 2521TIP3    H131758   1.823   6.510  16.436  0.2963 -0.0235 -1.3210
 2521TIP3    H231759   1.720   6.614  16.476  1.1432  0.3646 -0.0739
 2522TIP3   OH231760   1.982   2.623  16.755  0.1529  0.7487 -0.4282
 2522TIP3    H131761   1.964   2.592  16.666  2.1561 -0.0757 -0.6026
 2522TIP3    H231762   1.950   2.713  16.756 -2.3018 -0.0207 -1.1311
 2523TIP3   OH231763   0.443   0.429  15.335  0.4546  0.0969  0.4033
 2523TIP3    H131764   0.471   0.394  15.419 -3.8214  0.5380  2.2744
 2523TIP3    H231765   0.379   0.366  15.302 -0.8285  1.7805 -0.5101
 2524TIP3   OH231766   6.132   1.043  15.259 -0.1231  0.3897  0.5473
 2524TIP3    H131767   6.187   1.018  15.334 -1.9549 -0.3590  1.7210
 2524TIP3    H231768   6.194   1.054  15.187  1.4188 -2.3025  1.2986
 2525TIP3   OH231769   6.613   0.768  15.690 -0.0701 -0.5047  0.0420
 2525TIP3    H131770   6.682   0.833  15.703 -0.7456  0.6721 -1.7915
 2525TIP3    H231771   6.591   0.736  15.777  0.3626  1.6587  0.9797
 2526TIP3   OH231772   2.881   6.694  16.763 -0.2988 -0.1337 -0.1253
 2526TIP3    H131773   2.858   6.690  16.670 -0.9979  0.0298  0.0291
 2526TIP3    H231774   2.814   6.751  16.801  0.4199  0.4009  0.3510
 2527TIP3   OH231775   4.143   1.102  16.750  0.3130  0.3345 -0.1959
 2527TIP3    H131776   4.163   1.195  16.756 -0.6793  0.4695  2.9917
 2527TIP3    H231777   4.048   1.096  16.758  0.2759 -0.9222 -1.2051
 2528TIP3   OH231778   4.639   4.003  16.609  0.4806  0.0179  0.7510
 2528TIP3    H131779   4.611   3.958  16.688 -2.5894 -0.9315 -0.7316
 2528TIP3    H231780   4.626   4.096  16.628  0.3713 -0.1536  1.5529
 2529TIP3   OH231781   4.193   0.712  15.496  0.5040 -0.0999 -0.0754
 2529TIP3    H131782   4.225   0.634  15.540 -0.7586 -0.7982 -0.3332
 2529TIP3    H231783   4.173   0.773  15.568  1.1359 -0.1449  0.1457
 2530TIP3   OH231784   4.157   0.016  17.716 -0.3694 -0.2018  0.7671
 2530TIP3    H131785   4.239   0.064  17.708 -1.6481  1.9706 -0.1779
 2530TIP3    H231786   4.149  -0.033  17.635  0.2242 -0.8425  1.0890
 2531TIP3   OH231787   3.620   2.827  16.053  0.2287 -0.7525 -0.1594
 2531TIP3    H131788   3.699   2.827  15.999  0.1505 -2.3757 -0.3046
 2531TIP3    H231789   3.652   2.835  16.143  0.5809 -1.7446 -0.1921
 2532TIP3   OH231790   5.161   4.637  15.620 -0.0046 -0.3995  0.6769
 2532TIP3    H131791   5.225   4.702  15.648  0.0964 -0.4116  0.4790
 2532TIP3    H231792   5.177   4.627  15.526 -1.6513  1.1348  0.1641
 2533TIP3   OH231793   0.614   5.303  15.816  0.6733 -0.4584  0.1160
 2533TIP3    H131794   0.576   5.219  15.790  0.3120 -0.9971  2.2115
 2533TIP3    H231795   0.607   5.304  15.911  3.9147  0.3848  0.4745
 2534TIP3   OH231796   4.833   4.376  15.317 -0.3449 -0.0066 -0.3155
 2534TIP3    H131797   4.778   4.342  15.247 -1.3463  0.7277  0.0980
 2534TIP3    H231798   4.799   4.337  15.397  1.1524 -1.2880 -0.2573
 2535TIP3   OH231799   6.521   4.513  16.167 -0.0150 -0.3534 -0.1397
 2535TIP3    H131800   6.445   4.458  16.188  1.0867 -1.8671  0.0282
 2535TIP3    H231801   6.582   4.453  16.124  0.8139  0.9976 -0.9027
 2536TIP3   OH231802   4.060   0.401  15.344 -0.2370 -0.6152 -0.5680
 2536TIP3    H131803   4.119   0.328  15.362 -1.0795 -1.0318  0.6297
 2536TIP3    H231804   3.973   0.360  15.336 -0.4175 -0.0151 -2.2288
 2537TIP3   OH231805   5.450   3.891  17.865 -0.4978  0.4398 -0.0128
 2537TIP3    H131806   5.508   3.817  17.878 -3.6897 -1.9126  2.6146
 2537TIP3    H231807   5.466   3.948  17.941 -0.5038  0.6211 -0.1470
 2538TIP3   OH231808   3.094   0.173  16.335 -0.6317 -0.0222  0.0500
 2538TIP3    H131809   3.094   0.077  16.340  1.9619 -0.0504  0.8554
 2538TIP3    H231810   3.053   0.201  16.417 -0.3606 -0.4618  0.3406
 2539TIP3   OH231811   3.059   2.780  15.843 -0.6155  0.3176  0.9032
 2539TIP3    H131812   3.146   2.740  15.837 -1.3837 -1.4724  1.2163
 2539TIP3    H231813   3.041   2.810  15.753  1.1702  2.7280  1.2392
 2540TIP3   OH231814   4.710   1.601  16.024  0.4267  0.2877  0.1611
 2540TIP3    H131815   4.769   1.615  16.098  0.3063  0.9339  0.1384
 2540TIP3    H231816   4.678   1.688  16.002 -1.8113 -0.2228  1.1936
 2541TIP3   OH231817   4.844   3.472  17.600  0.3000  0.1499 -0.6578
 2541TIP3    H131818   4.846   3.528  17.523  0.8565 -0.4311 -1.0726
 2541TIP3    H231819   4.931   3.432  17.603  1.0968  1.8451  1.5285
 2542TIP3   OH231820   1.017   4.888  15.776  0.6081  0.2909 -0.3842
 2542TIP3    H131821   1.058   4.809  15.811  0.9033  0.5263 -0.1934
 2542TIP3    H231822   1.000   4.943  15.853  1.1149  0.7434 -0.5857
 2543TIP3   OH231823   2.350   5.711  15.054 -0.6586  0.7491 -0.8502
 2543TIP3    H131824   2.286   5.757  14.999 -1.2944  0.6844 -0.1731
 2543TIP3    H231825   2.314   5.623  15.063 -0.2172  0.5639 -0.8717
 2544TIP3   OH231826   6.450   0.112  15.011  0.0534  0.3403  0.0669
 2544TIP3    H131827   6.530   0.090  15.060  0.1770  0.6328 -0.0022
 2544TIP3    H231828   6.446   0.208  15.014 -0.1530  0.3383 -0.1592
 2545TIP3   OH231829   5.099   2.414  16.056 -0.2469  0.2708 -0.4023
 2545TIP3    H131830   5.072   2.478  16.121 -1.1998  1.1663 -1.6317
 2545TIP3    H231831   5.032   2.418  15.988  0.3618 -1.1073 -1.1412
 2546TIP3   OH231832   2.742   2.283  16.491  0.1865  0.4702  0.1183
 2546TIP3    H131833   2.672   2.305  16.429  0.2392 -0.9843 -0.5049
 2546TIP3    H231834   2.757   2.189  16.476  1.0087  0.3651  1.5327
 2547TIP3   OH231835   3.684   0.661  17.110  0.3326 -0.2720 -0.1340
 2547TIP3    H131836   3.641   0.613  17.181 -0.0260 -0.5529 -0.5407
 2547TIP3    H231837   3.625   0.652  17.035  1.0767 -0.6449 -0.6887
 2548TIP3   OH231838   4.719   3.177  14.990  0.0087 -0.0032 -0.3132
 2548TIP3    H131839   4.736   3.083  14.987 -1.1558 -0.2376 -0.2453
 2548TIP3    H231840   4.751   3.211  14.907  1.9749 -0.1493  0.3166
 2549TIP3   OH231841   4.865   1.037  15.055  0.1552 -0.0908  0.2194
 2549TIP3    H131842   4.956   1.041  15.028 -0.0684 -0.2389 -0.5957
 2549TIP3    H231843   4.827   1.119  15.022 -0.1593 -0.3471 -0.0654
 2550TIP3   OH231844   6.742   0.838  17.470 -0.2294 -0.2332  0.2223
 2550TIP3    H131845   6.838   0.832  17.469 -0.1973 -0.0360  0.9031
 2550TIP3    H231846   6.725   0.932  17.470 -0.4275 -0.2705 -0.0813
 2551TIP3   OH231847   0.498   3.516  14.931  0.8034 -0.2943 -0.2112
 2551TIP3    H131848   0.468   3.600  14.897 -1.9091 -1.2974 -0.5438
 2551TIP3    H231849   0.477   3.453  14.862  0.4149 -1.5865  1.0218
 2552TIP3   OH231850   6.439   3.752  17.215  0.4538 -0.1501 -0.2330
 2552TIP3    H131851   6.437   3.781  17.124 -0.6117  0.9842  0.1312
 2552TIP3    H231852   6.514   3.692  17.219  0.9166  0.2859 -1.6900
 2553TIP3   OH231853   2.415   1.036  17.175 -0.0473 -0.0962  0.3092
 2553TIP3    H131854   2.377   0.948  17.164 -1.7272  0.8772 -2.9856
 2553TIP3    H231855   2.494   1.034  17.122 -2.3138  1.4248 -3.5146
 2554TIP3   OH231856   1.913   5.556  16.322 -0.5964 -0.2879  0.2910
 2554TIP3    H131857   1.963   5.519  16.249  0.4344  0.2639  0.6837
 2554TIP3    H231858   1.875   5.480  16.366 -2.1300 -0.5665 -1.4079
 2555TIP3   OH231859   4.513   5.895  15.520 -0.1020 -0.1787 -0.4862
 2555TIP3    H131860   4.567   5.926  15.447  1.0122  0.2749  0.5124
 2555TIP3    H231861   4.431   5.869  15.478  0.0692  1.1783 -1.7670
 2556TIP3   OH231862   0.160   3.719  17.159 -0.2165  0.7210 -0.2829
 2556TIP3    H131863   0.216   3.771  17.102  0.3092  1.3051  0.7329
 2556TIP3    H231864   0.142   3.639  17.110  0.4278  1.1026 -1.1501
 2557TIP3   OH231865   2.095   2.333  16.867  0.2136 -0.3835 -0.9376
 2557TIP3    H131866   2.174   2.359  16.915 -0.1241  0.2908 -0.7281
 2557TIP3    H231867   2.076   2.408  16.811 -0.6986 -0.2197 -0.4339
 2558TIP3   OH231868   0.766   1.087  17.857  0.0733 -0.0825  0.2965
 2558TIP3    H131869   0.777   0.992  17.868  2.5230  0.0086 -0.6889
 2558TIP3    H231870   0.783   1.101  17.764 -1.2215  1.2469  0.2347
 2559TIP3   OH231871   3.322   3.093  17.410  0.3634 -0.0228  0.4302
 2559TIP3    H131872   3.377   3.169  17.392 -3.0977  2.0802 -2.8939
 2559TIP3    H231873   3.341   3.032  17.338 -1.5158  0.7990 -0.8536
 2560TIP3   OH231874   6.619   3.285  14.768  0.4050  0.3406 -0.0299
 2560TIP3    H131875   6.663   3.360  14.728  1.1267  0.8465  1.6272
 2560TIP3    H231876   6.532   3.316  14.789  0.7377  0.7742  0.7493
 2561TIP3   OH231877   5.342   0.595  17.321 -0.2371  0.3018  0.2601
 2561TIP3    H131878   5.383   0.676  17.291  0.2760 -0.0592 -0.0152
 2561TIP3    H231879   5.399   0.563  17.390 -2.3897  2.1501  3.1493
 2562TIP3   OH231880   0.990   2.586  15.305  0.0194 -0.1678  0.0078
 2562TIP3    H131881   0.956   2.611  15.392  2.3585  0.5420  0.7838
 2562TIP3    H231882   0.982   2.665  15.253  0.6859  0.0854  0.2769
 2563TIP3   OH231883   3.987   2.919  17.452 -0.1815  0.2921  0.2287
 2563TIP3    H131884   4.002   3.008  17.486 -2.3211 -0.1426  2.6372
 2563TIP3    H231885   4.062   2.869  17.483  0.9646  1.1674 -1.0085
 2564TIP3   OH231886   0.548   6.633  17.671  0.0598 -0.0560 -0.1561
 2564TIP3    H131887   0.567   6.725  17.688 -1.3702  0.2868 -0.3064
 2564TIP3    H231888   0.567   6.620  17.579  2.1309 -0.4220  0.2884
 2565TIP3   OH231889   0.222   3.524  15.637  0.0410  0.3917  0.9833
 2565TIP3    H131890   0.290   3.588  15.613  1.5992 -1.2531  0.8070
 2565TIP3    H231891   0.271   3.448  15.669 -1.7697 -0.5551  1.6423
 2566TIP3   OH231892   5.851   3.044  17.456  0.3283  0.8219  0.5183
 2566TIP3    H131893   5.909   3.105  17.409  0.9062  0.2929  0.5355
 2566TIP3    H231894   5.868   2.959  17.415 -0.8840  0.7546  0.1165
 2567TIP3   OH231895   2.086   4.723  15.640  0.6994  0.0430 -0.3170
 2567TIP3    H131896   1.994   4.752  15.639  0.7626  0.2545 -0.1895
 2567TIP3    H231897   2.089   4.650  15.578  0.5330  0.3064 -0.6414
 2568TIP3   OH231898   1.613   2.116  16.697  0.0913 -0.2400  0.4639
 2568TIP3    H131899   1.658   2.171  16.760 -1.8766  0.5559  1.2615
 2568TIP3    H231900   1.604   2.170  16.619  0.7918 -0.5235  0.1795
 2569TIP3   OH231901   5.697   0.500  15.669 -0.1868  0.4055  0.1876
 2569TIP3    H131902   5.663   0.512  15.757  0.3512 -0.9477  0.6094
 2569TIP3    H231903   5.792   0.497  15.680 -0.1722 -2.6420  0.0397
 2570TIP3   OH231904   4.385   1.016  16.831 -0.0734  0.3451 -0.3153
 2570TIP3    H131905   4.300   1.048  16.803 -1.2110  0.4559  2.8732
 2570TIP3    H231906   4.434   1.094  16.856 -0.5108  0.0815  1.4836
 2571TIP3   OH231907   3.022   4.227  15.034  0.1199  0.0456 -0.0261
 2571TIP3    H131908   3.023   4.132  15.042  1.8562 -0.0990 -1.2062
 2571TIP3    H231909   2.932   4.253  15.052 -0.1105 -1.6862  1.5472
 2572TIP3   OH231910   5.098   4.661  16.655  0.3915 -0.5176 -0.3587
 2572TIP3    H131911   5.129   4.749  16.676  1.3513 -0.8824 -0.1857
 2572TIP3    H231912   5.007   4.659  16.684 -0.0373  0.8200 -1.5288
 2573TIP3   OH231913   5.003   5.764  16.749  0.1195  0.1445 -0.0578
 2573TIP3    H131914   5.012   5.731  16.660 -0.2255  0.2887 -0.1496
 2573TIP3    H231915   5.032   5.692  16.805  1.0242  0.3059 -0.3073
 2574TIP3   OH231916   4.385   6.277  16.442  0.0017  0.0596 -0.2843
 2574TIP3    H131917   4.477   6.302  16.434 -0.3406  1.1865 -0.9125
 2574TIP3    H231918   4.376   6.198  16.388  0.5574  0.0591 -0.3760
 2575TIP3   OH231919   2.381   4.022  16.070  0.3418  0.3897  0.0623
 2575TIP3    H131920   2.474   4.010  16.090  0.9905  0.8298 -2.3823
 2575TIP3    H231921   2.341   3.936  16.089  1.5090 -0.2237 -0.1786
 2576TIP3   OH231922   0.397   6.714  14.919  0.4040  0.4196  0.3933
 2576TIP3    H131923   0.414   6.808  14.927  0.5929  0.4773 -0.5776
 2576TIP3    H231924   0.314   6.709  14.873 -0.4780  0.1029  1.9360
 2577TIP3   OH231925   1.521   5.203  15.348  0.1304  0.2272  0.5692
 2577TIP3    H131926   1.573   5.268  15.301  0.6991  0.1596  1.1067
 2577TIP3    H231927   1.462   5.255  15.404 -2.2057  0.4180 -1.8414
 2578TIP3   OH231928   3.643   4.480  14.791 -0.1590 -0.3820  0.0205
 2578TIP3    H131929   3.664   4.390  14.818 -2.4179 -0.9031  0.2319
 2578TIP3    H231930   3.547   4.484  14.791 -0.1534  1.6394 -1.3205
 2579TIP3   OH231931   0.028   6.013  14.228  0.4309 -0.3117 -0.1457
 2579TIP3    H131932  -0.056   6.043  14.263  0.0988 -0.3791 -0.8570
 2579TIP3    H231933   0.083   5.999  14.305 -0.4658 -1.0411  0.3830
 2580TIP3   OH231934   1.963   5.407  15.883  0.0276 -0.1386  0.0182
 2580TIP3    H131935   1.914   5.372  15.959  0.9088 -0.0130  0.6587
 2580TIP3    H231936   1.996   5.329  15.839 -2.3332 -0.3457 -1.5551
 2581TIP3   OH231937   2.396   3.116  16.676 -0.1721  0.3714  0.2374
 2581TIP3    H131938   2.416   3.092  16.766  0.0579 -1.9216 -0.3760
 2581TIP3    H231939   2.301   3.112  16.670 -0.1043 -1.6199 -0.1187
 2582TIP3   OH231940   3.238   0.435  15.752 -0.3036 -0.0789 -0.5354
 2582TIP3    H131941   3.277   0.513  15.713  0.3927  0.9617  2.0708
 2582TIP3    H231942   3.302   0.366  15.736  0.3196  0.4928 -0.5516
 2583TIP3   OH231943   4.511   2.364  17.691  0.0385 -0.3712 -0.2651
 2583TIP3    H131944   4.482   2.284  17.648 -0.6281 -0.0055 -0.5143
 2583TIP3    H231945   4.563   2.334  17.765  0.2654 -1.0242 -0.6839
 2584TIP3   OH231946   1.568   2.665  17.538 -0.1110 -0.3039  0.0778
 2584TIP3    H131947   1.553   2.708  17.453  0.1138  1.1283  0.7399
 2584TIP3    H231948   1.481   2.640  17.568 -0.4184  0.9696  0.3145
 2585TIP3   OH231949   5.508   4.745  15.409 -0.0207 -0.0432  0.1040
 2585TIP3    H131950   5.579   4.710  15.356 -0.6197 -0.9737 -0.1099
 2585TIP3    H231951   5.493   4.833  15.374 -0.0005 -0.4157 -0.8597
 2586TIP3   OH231952   5.162   5.193  15.475  0.2001 -0.6212  0.7034
 2586TIP3    H131953   5.153   5.286  15.453 -0.1116 -0.1896  2.4906
 2586TIP3    H231954   5.145   5.147  15.392  0.0147  0.8944 -0.1367
 2587TIP3   OH231955   5.504   3.741  17.463 -0.2769  0.1084  0.1750
 2587TIP3    H131956   5.559   3.685  17.408 -1.7422  0.8744 -2.2770
 2587TIP3    H231957   5.566   3.789  17.518  1.3496 -0.6186 -0.9237
 2588TIP3   OH231958   4.781   1.637  16.576  0.3934  0.0742  0.3438
 2588TIP3    H131959   4.845   1.673  16.637 -1.1695  0.6846  1.7290
 2588TIP3    H231960   4.723   1.710  16.556  1.6850  0.3124 -3.1971
 2589TIP3   OH231961   1.628   1.884  15.921 -0.0281 -0.5734 -0.1869
 2589TIP3    H131962   1.651   1.813  15.980  0.4419 -0.3514 -0.0922
 2589TIP3    H231963   1.694   1.952  15.938 -1.3093  0.4882  0.7675
 2590TIP3   OH231964   3.336   4.038  17.046 -0.3186  0.6055  0.0637
 2590TIP3    H131965   3.263   4.051  16.986 -2.2159  0.0137  2.0936
 2590TIP3    H231966   3.326   3.948  17.077  2.2535 -0.0544 -0.7239
 2591TIP3   OH231967   1.199   6.626  17.477  0.2191  0.0213  0.1631
 2591TIP3    H131968   1.220   6.664  17.562 -0.8981 -1.3843  1.1315
 2591TIP3    H231969   1.254   6.548  17.472  0.1186 -0.0223 -0.3072
 2592TIP3   OH231970   5.964   3.936  17.518 -0.4488  0.2678  0.3648
 2592TIP3    H131971   5.957   3.864  17.581  0.2936  2.2646  2.9068
 2592TIP3    H231972   5.978   3.893  17.434 -4.5696 -2.6956  0.8867
 2593TIP3   OH231973   3.301   2.112  16.990  0.1736 -0.2226  0.0874
 2593TIP3    H131974   3.240   2.167  16.941  2.0597  1.2130 -0.7678
 2593TIP3    H231975   3.356   2.072  16.923  1.9749  0.7481  0.9282
 2594TIP3   OH231976   0.409   2.102  17.116  0.5190 -0.7888 -0.3475
 2594TIP3    H131977   0.475   2.039  17.147  0.9885  0.6331  1.7687
 2594TIP3    H231978   0.328   2.076  17.160  0.9651  0.6495  1.4625
 2595TIP3   OH231979   0.490   0.106  16.530  0.4740  0.2123  0.2042
 2595TIP3    H131980   0.478   0.076  16.620 -1.5415 -0.0636 -0.1103
 2595TIP3    H231981   0.422   0.171  16.517  0.4179 -0.0964 -1.2629
 2596TIP3   OH231982   2.297   2.136  16.047  0.0340 -0.2553  0.6577
 2596TIP3    H131983   2.372   2.095  16.091 -1.4270 -2.3081  1.3846
 2596TIP3    H231984   2.317   2.130  15.954 -0.3825 -3.3630  0.6776
 2597TIP3   OH231985   0.772   4.900  15.173  0.6757 -0.4188 -0.3985
 2597TIP3    H131986   0.795   4.842  15.245 -0.0918  0.6121  0.7242
 2597TIP3    H231987   0.788   4.988  15.208  1.4075  0.0708 -1.8966
 2598TIP3   OH231988   0.806   1.107  17.582  0.3236 -0.0481 -0.2221
 2598TIP3    H131989   0.740   1.176  17.574  0.3945 -0.1443 -2.0177
 2598TIP3    H231990   0.888   1.154  17.601 -0.2113  0.0666  2.0623
 2599TIP3   OH231991   3.471   1.995  16.790  0.2738 -0.1421  0.0681
 2599TIP3    H131992   3.410   1.949  16.733  0.1500  0.2275 -0.1028
 2599TIP3    H231993   3.554   1.993  16.743  0.0369  0.6723 -0.4075
 2600TIP3   OH231994   4.926   6.005  17.280  0.4334  0.4600  0.4619
 2600TIP3    H131995   4.881   5.997  17.363 -1.8701  1.6706 -0.5749
 2600TIP3    H231996   5.015   5.973  17.297 -0.2881 -0.3609  3.0536
 2601TIP3   OH231997   2.413   4.313  15.314  0.0819  0.6062  0.0364
 2601TIP3    H131998   2.456   4.382  15.366  1.4708  0.3845 -0.7927
 2601TIP3    H231999   2.375   4.360  15.240  1.2734  0.4688 -0.6806
 2602TIP3   OH232000   2.449   0.040  17.799  0.4501  0.1695 -0.0945
 2602TIP3    H132001   2.404  -0.006  17.728  0.8991 -0.3248 -0.0695
 2602TIP3    H232002   2.432   0.133  17.782 -0.3984  0.0035 -0.1972
 2603TIP3   OH232003   6.383   0.338  15.753  0.0393  0.8152 -0.2334
 2603TIP3    H132004   6.397   0.285  15.674  0.6236  1.7196 -0.7510
 2603TIP3    H232005   6.289   0.332  15.769  0.0487 -0.1153 -0.4669
 2604TIP3   OH232006   1.181   1.335  15.784 -0.0816 -0.0571  0.3479
 2604TIP3    H132007   1.256   1.339  15.843  0.0835  1.4731  0.0615
 2604TIP3    H232008   1.191   1.410  15.726 -1.8522  0.2216  0.3343
 2605TIP3   OH232009   6.277   2.593  16.748 -0.4800 -0.1191 -0.0321
 2605TIP3    H132010   6.354   2.569  16.696 -0.9453 -0.6747 -0.4897
 2605TIP3    H232011   6.254   2.512  16.794 -1.1080 -0.1107 -0.3199
 2606TIP3   OH232012   3.114   5.805  17.617 -0.1442 -0.0182  0.1893
 2606TIP3    H132013   3.042   5.867  17.607  0.5207  0.4073 -2.7612
 2606TIP3    H232014   3.184   5.841  17.562  1.7816 -1.2322  1.7394
 2607TIP3   OH232015   4.174   2.008  16.723  0.1264  0.5084 -0.4512
 2607TIP3    H132016   4.117   2.071  16.767 -0.2859 -0.0702 -0.1454
 2607TIP3    H232017   4.115   1.956  16.669  0.2065 -0.7214  0.6019
 2608TIP3   OH232018   5.654   2.582  15.362 -0.1391 -0.0841 -0.5531
 2608TIP3    H132019   5.647   2.490  15.335 -1.6313 -0.5553  1.3066
 2608TIP3    H232020   5.731   2.584  15.419 -0.8960 -0.4822  0.5005
 2609TIP3   OH232021   6.300   5.437  16.532  0.0289 -0.4214 -0.4595
 2609TIP3    H132022   6.277   5.393  16.450 -0.1534 -3.0920  0.9020
 2609TIP3    H232023   6.226   5.420  16.589  1.0954 -0.5246  0.9350
 2610TIP3   OH232024   5.623   6.661  16.607 -0.6482  0.1950 -0.3866
 2610TIP3    H132025   5.543   6.657  16.659 -0.0595 -3.9443  0.5552
 2610TIP3    H232026   5.685   6.603  16.653  2.2031  1.5879 -2.1801
 2611TIP3   OH232027   1.469   4.211  16.756  0.2811 -0.2817 -0.3359
 2611TIP3    H132028   1.434   4.132  16.797  0.3518 -0.4383 -0.5738
 2611TIP3    H232029   1.411   4.281  16.785  0.9433 -0.2071  0.8923
 2612TIP3   OH232030   4.946   0.908  18.120  0.7995  0.7364 -0.2563
 2612TIP3    H132031   5.028   0.940  18.158  0.1240  2.0351  0.1476
 2612TIP3    H232032   4.901   0.986  18.089 -1.1890  0.2790  1.2797
 2613TIP3   OH232033   2.141   1.146  15.687 -0.1109 -0.5304  0.4254
 2613TIP3    H132034   2.098   1.103  15.761 -0.8612  0.1408  0.3982
 2613TIP3    H232035   2.167   1.231  15.721 -0.1561 -0.3515  0.0095
 2614TIP3   OH232036   0.668   4.016  17.062  0.3276 -0.1483  0.4816
 2614TIP3    H132037   0.685   4.008  17.156  0.4610  0.9542  0.5675
 2614TIP3    H232038   0.655   4.110  17.049  0.8381 -0.2333 -0.6905
 2615TIP3   OH232039   0.690   4.132  15.698  0.1415 -0.3107 -0.3078
 2615TIP3    H132040   0.725   4.048  15.670 -0.8229 -0.8220 -0.0116
 2615TIP3    H232041   0.679   4.182  15.617  1.0383 -0.3292 -0.4493
 2616TIP3   OH232042   0.592   0.752  14.978  0.3515 -0.1723  0.3209
 2616TIP3    H132043   0.593   0.841  15.013  0.2053  0.1623 -0.5008
 2616TIP3    H232044   0.502   0.738  14.950 -0.3185 -1.5544  2.8058
 2617TIP3   OH232045   3.150   3.100  17.148 -0.6735  0.0543  0.4656
 2617TIP3    H132046   3.059   3.123  17.166 -1.1771  0.1518 -1.9299
 2617TIP3    H232047   3.190   3.182  17.120 -0.3655 -0.3695 -0.3580
 2618TIP3   OH232048   2.142   2.000  14.859 -0.2575 -0.0622  0.6194
 2618TIP3    H132049   2.224   2.047  14.850 -0.9576  1.0661 -0.1618
 2618TIP3    H232050   2.079   2.066  14.889 -1.1159 -0.6448  0.1740
 2619TIP3   OH232051   2.458   4.839  15.508 -0.3339  0.4136 -0.1557
 2619TIP3    H132052   2.398   4.764  15.512 -0.5042  0.5768  0.6485
 2619TIP3    H232053   2.478   4.858  15.600  0.4803  0.7419 -0.3903
 2620TIP3   OH232054   3.305   4.177  15.529  0.1252  0.4113  0.2549
 2620TIP3    H132055   3.256   4.099  15.554  0.4820  0.6959  1.9900
 2620TIP3    H232056   3.388   4.144  15.495  0.2506  0.0247  0.9284
 2621TIP3   OH232057   4.181   6.265  15.847  0.4512 -0.3443 -0.7800
 2621TIP3    H132058   4.177   6.170  15.830 -1.1009 -0.1707 -1.4746
 2621TIP3    H232059   4.214   6.271  15.936 -3.1887 -1.7254  0.8377
 2622TIP3   OH232060   6.691   0.552  14.412 -0.7676  0.2824 -0.0526
 2622TIP3    H132061   6.636   0.628  14.427  0.7108  1.7236 -1.5465
 2622TIP3    H232062   6.730   0.567  14.327 -0.0930 -1.9734 -0.2096
 2623TIP3   OH232063   0.353   1.147  15.768 -0.4061 -0.0966  0.0631
 2623TIP3    H132064   0.271   1.173  15.811 -1.3060  0.9139 -2.1105
 2623TIP3    H232065   0.362   1.054  15.787 -0.7930  0.2572  2.2641
 2624TIP3   OH232066   4.804   5.488  16.764  0.3226  0.1652  0.4039
 2624TIP3    H132067   4.830   5.435  16.839 -0.0198 -0.8444 -0.1792
 2624TIP3    H232068   4.886   5.503  16.717  0.1218 -1.9758 -0.7633
 2625TIP3   OH232069   4.037   4.506  17.496 -0.4316  1.1510  0.0460
 2625TIP3    H132070   4.056   4.576  17.434 -0.9783 -0.1307 -1.6477
 2625TIP3    H232071   3.941   4.506  17.505 -0.8174 -1.3697 -2.5782
 2626TIP3   OH232072   1.747   6.563  17.535  0.3127  0.0025  0.0227
 2626TIP3    H132073   1.669   6.597  17.578  0.6568 -0.4835  1.0640
 2626TIP3    H232074   1.808   6.637  17.534  0.3576 -0.0217  0.5302
 2627TIP3   OH232075   5.191   5.909  17.364 -0.5514  0.6855 -0.5464
 2627TIP3    H132076   5.264   5.874  17.415 -3.4698 -1.2638  2.7010
 2627TIP3    H232077   5.188   6.001  17.387 -0.4856  0.2904  1.1366
 2628TIP3   OH232078   1.750   3.924  14.965 -0.3006  0.1338  0.7364
 2628TIP3    H132079   1.703   3.921  15.048 -1.5930 -0.7622  0.0108
 2628TIP3    H232080   1.813   3.852  14.971  0.1439  0.5576  1.2302
 2629TIP3   OH232081   2.570   5.074  16.325  0.0408 -0.3484 -0.3495
 2629TIP3    H132082   2.491   5.121  16.298 -0.3306  0.1049  1.3602
 2629TIP3    H232083   2.578   5.002  16.263 -1.3542 -0.0247 -0.9473
 2630TIP3   OH232084   1.729   6.537  14.644 -0.1585  0.1864 -0.7543
 2630TIP3    H132085   1.803   6.477  14.643 -0.9576 -1.0976  2.5689
 2630TIP3    H232086   1.653   6.483  14.622 -0.7743  0.0366  1.4499
 2631TIP3   OH232087   1.612   2.569  16.261  0.0661  0.1633 -0.7207
 2631TIP3    H132088   1.631   2.476  16.278 -0.7635 -0.2443 -1.9237
 2631TIP3    H232089   1.564   2.569  16.178  0.3498  1.7094 -0.9062
 2632TIP3   OH232090   2.074   6.339  16.741 -0.6265  0.4577 -0.3887
 2632TIP3    H132091   2.143   6.276  16.720 -2.7074 -2.1301 -0.0229
 2632TIP3    H232092   2.097   6.373  16.827 -0.2739 -1.0499  0.1294
 2633TIP3   OH232093   6.154   4.337  16.857 -0.3987  0.2049  0.0388
 2633TIP3    H132094   6.183   4.400  16.792 -1.5352  0.6219 -0.0834
 2633TIP3    H232095   6.079   4.292  16.817  0.2655 -1.1022  0.1949
 2634TIP3   OH232096   1.377   2.154  18.002  0.0573  0.5904 -0.3699
 2634TIP3    H132097   1.428   2.185  18.076  2.2670  0.9023 -1.9042
 2634TIP3    H232098   1.424   2.076  17.972 -1.2181  0.0280 -0.9895
 2635TIP3   OH232099   4.491   3.720  15.251  0.4481 -0.2843 -0.4881
 2635TIP3    H132100   4.469   3.633  15.285  0.3076 -0.1575 -0.2530
 2635TIP3    H232101   4.587   3.722  15.250  0.4576 -0.8302 -1.4940
 2636TIP3   OH232102   5.397   5.854  15.584 -0.1572 -0.4514 -0.7098
 2636TIP3    H132103   5.312   5.888  15.556 -1.2101 -2.3745 -0.0867
 2636TIP3    H232104   5.398   5.868  15.679 -0.9030 -2.5773 -0.3349
 2637TIP3   OH232105   3.061   1.191  16.712  0.1627  0.3588  0.5863
 2637TIP3    H132106   3.091   1.123  16.651 -1.2606 -0.0302  0.2913
 2637TIP3    H232107   2.994   1.239  16.664 -0.0663  0.8698  1.4058
 2638TIP3   OH232108   1.492   6.369  17.814 -0.4522 -0.7884  0.0663
 2638TIP3    H132109   1.478   6.276  17.795 -0.8970 -0.7632  0.2608
 2638TIP3    H232110   1.412   6.396  17.859 -0.2868 -0.3311  0.0841
 2639TIP3   OH232111   3.319   2.298  15.896 -0.0575  0.1024 -0.0467
 2639TIP3    H132112   3.280   2.316  15.810 -0.3070  2.5551  0.5195
 2639TIP3    H232113   3.340   2.384  15.931 -1.4828 -0.6818  3.0639
 2640TIP3   OH232114   6.762   5.877  15.950  0.5959  0.0083 -0.3941
 2640TIP3    H132115   6.724   5.878  15.863 -0.3269 -0.9259 -0.0318
 2640TIP3    H232116   6.790   5.786  15.963  1.2315  0.2576  0.0828
 2641TIP3   OH232117   5.329   1.132  17.167  0.6967 -0.4276  0.3090
 2641TIP3    H132118   5.242   1.157  17.198 -0.0569 -0.8699 -1.3810
 2641TIP3    H232119   5.357   1.205  17.112  2.1559  0.4816  2.1149
 2642TIP3   OH232120   0.937   0.048  14.775 -0.0243  0.1746 -0.5052
 2642TIP3    H132121   0.974   0.121  14.824  0.4014  0.8849 -1.8402
 2642TIP3    H232122   0.902   0.087  14.695 -3.8557 -0.3866  0.6663
 2643TIP3   OH232123   1.633   4.436  14.661  0.0482 -0.2630 -0.1799
 2643TIP3    H132124   1.561   4.416  14.721  0.2676 -1.5314 -0.2975
 2643TIP3    H232125   1.638   4.531  14.660 -0.7299 -0.1885  0.8980
 2644TIP3   OH232126   5.960   1.434  15.749 -0.2266 -0.2611 -0.2795
 2644TIP3    H132127   5.871   1.414  15.719  0.3259  1.3892 -3.4356
 2644TIP3    H232128   6.013   1.361  15.717 -0.2055 -0.5161  0.3216
 2645TIP3   OH232129   2.145   3.239  17.808 -0.0816 -0.1877 -0.0080
 2645TIP3    H132130   2.228   3.285  17.796 -0.5845  0.6072 -0.5315
 2645TIP3    H232131   2.085   3.280  17.745 -1.0400 -0.3363  0.7775
 2646TIP3   OH232132   3.540   6.184  17.267  0.2578  0.5178  0.2469
 2646TIP3    H132133   3.595   6.259  17.287 -0.3381  0.8810  0.5460
 2646TIP3    H232134   3.585   6.110  17.308  0.8135  0.7174  0.0013
 2647TIP3   OH232135   4.815   0.082  16.939 -0.0602 -0.2741  0.6308
 2647TIP3    H132136   4.893   0.027  16.930  0.3778  0.0498  2.2065
 2647TIP3    H232137   4.827   0.151  16.874  0.2378 -1.0419 -0.1515
 2648TIP3   OH232138   5.184   6.214  15.932 -0.0021  0.5963  0.2639
 2648TIP3    H132139   5.098   6.209  15.891  0.1814  0.5816 -0.1264
 2648TIP3    H232140   5.238   6.260  15.868  1.2285 -2.5305 -1.1940
 2649TIP3   OH232141   1.068   3.365  14.883 -0.3202  0.3749  0.3704
 2649TIP3    H132142   1.060   3.424  14.808 -3.2868 -1.8412 -1.2603
 2649TIP3    H232143   0.978   3.344  14.907  0.5507 -2.7017  1.4439
 2650TIP3   OH232144   3.008   5.865  15.914  0.1846  0.1818  0.0862
 2650TIP3    H132145   2.928   5.832  15.954 -0.5598  0.6667 -0.9399
 2650TIP3    H232146   3.058   5.902  15.986 -0.7549  0.3280  0.6828
 2651TIP3   OH232147   3.383   5.699  16.130 -0.1092  0.0125  0.0861
 2651TIP3    H132148   3.329   5.648  16.190 -1.0387  0.0693 -0.6806
 2651TIP3    H232149   3.426   5.634  16.075  0.0914 -0.0054  0.2606
 2652TIP3   OH232150   0.323   6.660  15.255 -0.0581 -0.1774 -0.4617
 2652TIP3    H132151   0.370   6.579  15.231  0.9175  0.2604 -0.0864
 2652TIP3    H232152   0.352   6.724  15.190  1.2483  0.5517  0.7712
 2653TIP3   OH232153   2.934   1.338  14.592 -0.1237  0.8002 -0.0111
 2653TIP3    H132154   2.986   1.415  14.571 -0.5988  0.1876 -4.1179
 2653TIP3    H232155   2.846   1.372  14.607 -0.1657  1.1586 -1.0061
 2654TIP3   OH232156   5.040   0.455  16.184  0.0616  0.3932  0.1845
 2654TIP3    H132157   5.111   0.484  16.128 -0.1383 -0.4270 -0.5128
 2654TIP3    H232158   5.080   0.391  16.243 -0.1627 -0.3113 -0.4241
 2655TIP3   OH232159   6.336   0.044  14.435  0.0724  0.8963 -0.1925
 2655TIP3    H132160   6.316   0.006  14.521 -0.7659 -0.3562 -0.9063
 2655TIP3    H232161   6.259   0.025  14.382  1.1160  0.4559 -1.6007
 2656TIP3   OH232162   1.851   5.194  15.145 -0.0129 -0.1006 -0.3695
 2656TIP3    H132163   1.887   5.214  15.058 -1.6381  1.9704 -0.6371
 2656TIP3    H232164   1.760   5.171  15.128 -0.6351  1.3286  0.8306
 2657TIP3   OH232165   0.284   1.861  16.732 -0.3857  0.0154 -0.0810
 2657TIP3    H132166   0.260   1.924  16.801 -0.3087 -0.7500  0.6529
 2657TIP3    H232167   0.372   1.889  16.705 -0.3529  0.2358  0.2343
 2658TIP3   OH232168   0.089   3.287  16.579  0.4120  0.4943  0.0293
 2658TIP3    H132169   0.053   3.367  16.542 -1.0422 -0.1939 -0.1006
 2658TIP3    H232170   0.184   3.300  16.577  0.2144  1.9910 -0.4592
 2659TIP3   OH232171   1.817   4.767  15.628 -0.3665 -0.0157  0.2929
 2659TIP3    H132172   1.754   4.833  15.597  0.3614 -0.3448 -2.1509
 2659TIP3    H232173   1.772   4.684  15.616 -0.0349 -0.1542 -0.0227
 2660TIP3   OH232174   1.056   0.447  17.199  0.0565  0.2877 -0.4137
 2660TIP3    H132175   1.098   0.514  17.254 -2.3823  1.4013  0.2414
 2660TIP3    H232176   1.097   0.365  17.226  0.0685  0.9962  1.9703
 2661TIP3   OH232177   1.461   1.804  17.333 -0.1216  0.2931 -0.1695
 2661TIP3    H132178   1.551   1.784  17.359  1.1527  4.6946 -0.4242
 2661TIP3    H232179   1.408   1.770  17.405  2.2325  1.5218  2.3596
 2662TIP3   OH232180   3.461   0.734  15.468 -0.0442 -0.1972 -0.5775
 2662TIP3    H132181   3.453   0.658  15.524 -0.7747  0.8711  0.8372
 2662TIP3    H232182   3.431   0.807  15.522  0.8452  1.1328 -1.8053
 2663TIP3   OH232183   2.241   0.770  15.451 -0.3572  0.0571  0.8222
 2663TIP3    H132184   2.326   0.741  15.421 -1.0565  0.5360 -1.8467
 2663TIP3    H232185   2.258   0.855  15.492  0.4076  0.3808 -0.1291
 2664TIP3   OH232186   0.182   0.317  17.111 -0.0219  0.3545  0.1562
 2664TIP3    H132187   0.240   0.241  17.111  0.4963  0.7221 -1.4053
 2664TIP3    H232188   0.158   0.329  17.019 -0.6806  1.6578  0.4734
 2665TIP3   OH232189   4.874   4.958  17.387 -0.4198  0.1687  0.2999
 2665TIP3    H132190   4.879   5.009  17.306 -0.4857 -0.4566 -0.0965
 2665TIP3    H232191   4.853   4.869  17.359 -0.5658 -0.0277  1.0123
 2666TIP3   OH232192   0.135   3.838  15.684 -0.6549 -0.3612 -0.0958
 2666TIP3    H132193   0.211   3.829  15.741  0.2222  2.4476 -0.6361
 2666TIP3    H232194   0.088   3.755  15.693  0.5357 -0.8432  3.0335
 2667TIP3   OH232195   5.889   5.773  14.613  0.0061 -0.4795 -0.2932
 2667TIP3    H132196   5.798   5.794  14.594  0.1199  0.5469  0.2792
 2667TIP3    H232197   5.886   5.684  14.650 -0.6978 -0.6460 -0.7288
 2668TIP3   OH232198   1.568   6.578  14.975 -0.3779  0.3716 -0.5563
 2668TIP3    H132199   1.598   6.597  15.064 -1.7512  0.7802 -0.1665
 2668TIP3    H232200   1.514   6.653  14.951 -1.3898 -0.5067 -1.0964
 2669TIP3   OH232201   3.609   0.615  15.898  0.1018 -0.3041 -0.0346
 2669TIP3    H132202   3.679   0.642  15.838 -0.1869  0.1968 -0.1487
 2669TIP3    H232203   3.533   0.666  15.872 -0.0513 -0.1337  0.7109
 2670TIP3   OH232204   0.393   5.251  14.421  0.3353  0.0720 -0.5475
 2670TIP3    H132205   0.485   5.236  14.443  0.8866  2.0473 -1.3721
 2670TIP3    H232206   0.381   5.346  14.427 -0.9228  0.1510 -3.1661
 2671TIP3   OH232207   4.648   2.531  16.822  0.1674 -0.2895 -0.6748
 2671TIP3    H132208   4.627   2.506  16.912 -0.3867 -0.1501 -0.7613
 2671TIP3    H232209   4.633   2.452  16.771 -1.2237  0.0954 -0.8944
 2672TIP3   OH232210   3.979   2.084  14.840  0.3372  0.5694  0.2008
 2672TIP3    H132211   3.906   2.130  14.881  1.0034  2.6332 -0.8034
 2672TIP3    H232212   4.051   2.092  14.902  0.0150 -0.6470  0.7691
 2673TIP3   OH232213   3.790   0.582  16.477  0.3449  0.3834  0.1776
 2673TIP3    H132214   3.748   0.591  16.392  0.4388 -0.1191  0.0774
 2673TIP3    H232215   3.747   0.507  16.517  3.5014 -2.4869 -1.3538
 2674TIP3   OH232216   0.296   2.736  15.863  0.9451 -0.1140  0.2225
 2674TIP3    H132217   0.329   2.757  15.776 -0.9648  1.8330 -0.1311
 2674TIP3    H232218   0.260   2.819  15.896 -1.1186 -1.4321  1.5687
 2675TIP3   OH232219   0.176   3.074  17.930 -0.3182 -0.4783 -0.0231
 2675TIP3    H132220   0.105   3.131  17.961 -0.8203 -0.2803 -1.4705
 2675TIP3    H232221   0.248   3.091  17.991 -1.5648 -0.8747  1.6426
 2676TIP3   OH232222   0.715   6.507  15.706  0.3631  0.1077 -0.4780
 2676TIP3    H132223   0.776   6.506  15.632  0.3992 -0.4240 -0.4458
 2676TIP3    H232224   0.768   6.537  15.781  0.0687  1.7230 -0.8691
 2677TIP3   OH232225   3.973   5.371  16.066  0.1982 -0.0211 -0.5515
 2677TIP3    H132226   4.029   5.421  16.126  0.6077 -0.9591 -0.1372
 2677TIP3    H232227   4.034   5.337  16.000 -0.3041  1.3595 -1.7827
 2678TIP3   OH232228   5.954   0.702  15.157  0.8431 -0.3599 -0.3789
 2678TIP3    H132229   5.927   0.780  15.109  0.2847 -1.3409 -1.6954
 2678TIP3    H232230   5.908   0.630  15.115  1.1822 -1.3978  0.9472
 2679TIP3   OH232231   5.479   3.748  15.945 -0.2673  0.1760 -0.1783
 2679TIP3    H132232   5.513   3.750  15.855  0.0128  0.2784 -0.0726
 2679TIP3    H232233   5.387   3.771  15.937 -0.0205  1.1417 -0.3354
 2680TIP3   OH232234   5.190   1.620  17.297 -0.0896 -0.2342 -0.3583
 2680TIP3    H132235   5.157   1.696  17.249 -2.4086 -0.2885  1.0136
 2680TIP3    H232236   5.279   1.645  17.322 -0.9067  2.2319  0.3970
 2681TIP3   OH232237   1.553   2.088  14.475  0.2896 -0.4806 -0.1267
 2681TIP3    H132238   1.511   2.074  14.390  1.8731 -1.2246 -0.8538
 2681TIP3    H232239   1.507   2.029  14.535 -2.1183  1.4325  0.0540
 2682TIP3   OH232240   4.671   0.397  14.952 -0.2051  0.1452 -0.0175
 2682TIP3    H132241   4.667   0.340  15.029 -0.3575 -0.0751 -0.1889
 2682TIP3    H232242   4.698   0.482  14.987 -0.2473  0.0386  0.2772
 2683TIP3   OH232243   1.964   2.810  17.841  0.0315 -0.0030  0.0872
 2683TIP3    H132244   2.059   2.824  17.840  0.0496 -0.0804 -0.8785
 2683TIP3    H232245   1.953   2.721  17.874  0.1380  0.8237  2.5167
 2684TIP3   OH232246   0.696   3.120  16.304 -0.0458 -0.3485 -0.0306
 2684TIP3    H132247   0.706   3.072  16.221 -0.7776 -0.1173 -0.2632
 2684TIP3    H232248   0.697   3.212  16.279 -2.7613 -0.2547 -0.1610
 2685TIP3   OH232249   0.032   4.440  15.091  0.9674 -0.0699  0.2169
 2685TIP3    H132250   0.025   4.529  15.124 -0.9997  0.3127 -1.0404
 2685TIP3    H232251   0.085   4.448  15.012  1.0790 -0.0680  0.2923
 2686TIP3   OH232252   3.488   6.430  16.134  0.4247 -0.2073  0.2758
 2686TIP3    H132253   3.405   6.467  16.164  0.0801  0.2958 -1.1954
 2686TIP3    H232254   3.542   6.422  16.213  0.0577  2.2498  0.8350
 2687TIP3   OH232255   1.590   3.563  17.795 -0.4682  0.1942  0.2432
 2687TIP3    H132256   1.682   3.582  17.812 -0.2339  0.4417 -1.2204
 2687TIP3    H232257   1.578   3.473  17.824  0.3000  0.0758  0.1966
 2688TIP3   OH232258   5.548   6.141  16.779  0.0257 -0.5175 -0.5543
 2688TIP3    H132259   5.565   6.065  16.724  1.2999 -0.4257 -0.3157
 2688TIP3    H232260   5.453   6.154  16.773 -0.0066 -1.1815 -1.8238
 2689TIP3   OH232261   4.519   1.916  15.401  0.1965  0.3328  0.3990
 2689TIP3    H132262   4.521   1.821  15.392 -2.5339  0.2734 -0.4085
 2689TIP3    H232263   4.556   1.949  15.319  0.7313 -0.0158  0.4938
 2690TIP3   OH232264   5.118   1.863  15.031 -0.7047 -0.3570  0.1459
 2690TIP3    H132265   5.194   1.819  15.070 -1.8804 -2.1988  0.5110
 2690TIP3    H232266   5.125   1.954  15.061  1.4385 -0.4232 -0.0059
 2691TIP3   OH232267   2.401   3.367  16.264  0.6497 -0.4760  0.6451
 2691TIP3    H132268   2.450   3.320  16.332  2.8759 -0.6939 -1.0140
 2691TIP3    H232269   2.374   3.299  16.203 -1.3516 -0.2777  1.2384
 2692TIP3   OH232270   1.698   3.303  16.375  0.2443 -0.3208  0.5338
 2692TIP3    H132271   1.783   3.293  16.419  0.0802 -0.0766  0.9116
 2692TIP3    H232272   1.719   3.297  16.281  0.6059 -0.7838  0.6375
 2693TIP3   OH232273   5.594   4.611  16.428  0.1640 -0.1387 -0.2074
 2693TIP3    H132274   5.649   4.627  16.504 -0.2721 -2.7324  0.7414
 2693TIP3    H232275   5.532   4.544  16.456 -0.8525 -0.2587 -2.4726
 2694TIP3   OH232276   0.672   0.951  16.713  0.6181  0.5115 -0.2146
 2694TIP3    H132277   0.633   0.960  16.626 -0.9780 -0.6158  0.3341
 2694TIP3    H232278   0.603   0.981  16.773  0.7912 -0.9657  0.7644
 2695TIP3   OH232279   4.308   6.062  16.263 -0.1260  0.1050 -0.0409
 2695TIP3    H132280   4.297   5.976  16.223 -1.0291  0.9067 -1.6370
 2695TIP3    H232281   4.227   6.077  16.313 -0.0250  0.0711  0.1323
 2696TIP3   OH232282   1.337   6.591  16.684  0.2287 -0.5916  0.8331
 2696TIP3    H132283   1.334   6.498  16.663 -1.4203 -0.3118 -0.4001
 2696TIP3    H232284   1.251   6.609  16.723  0.1172  0.6037  0.0719
 2697TIP3   OH232285   3.438   4.437  15.072  0.6390  0.0748  0.1681
 2697TIP3    H132286   3.421   4.463  14.982  1.1857  0.8763  0.2875
 2697TIP3    H232287   3.423   4.342  15.073 -0.0638  0.1664 -0.5882
 2698TIP3   OH232288   5.337   2.478  15.504  0.3429 -0.2311  0.6230
 2698TIP3    H132289   5.350   2.439  15.418 -0.5010  0.9629 -0.0770
 2698TIP3    H232290   5.424   2.510  15.529  0.2888  0.9790 -0.5989
 2699TIP3   OH232291   1.629   6.562  15.952 -0.4599 -0.1010 -0.0652
 2699TIP3    H132292   1.700   6.573  16.015  0.4969  0.0935 -1.1378
 2699TIP3    H232293   1.629   6.644  15.902 -1.6888  0.0444  0.1578
 2700TIP3   OH232294   6.166   3.672  16.136 -0.2036 -0.6231 -0.1149
 2700TIP3    H132295   6.185   3.593  16.086 -1.2714 -0.3011 -1.0733
 2700TIP3    H232296   6.147   3.739  16.070 -0.1761  0.2104  0.6972
 2701TIP3   OH232297   1.829   2.263  16.817  0.0672 -0.2912 -0.2287
 2701TIP3    H132298   1.921   2.263  16.845  0.7713  2.5888 -2.1318
 2701TIP3    H232299   1.783   2.313  16.884  0.2024 -0.3013 -0.1283
 2702TIP3   OH232300   5.296   2.056  15.119  0.0932 -0.2075  0.1308
 2702TIP3    H132301   5.309   2.094  15.032 -1.3769 -0.7752 -0.3708
 2702TIP3    H232302   5.379   2.072  15.164  0.5654  0.9360 -1.0463
 2703TIP3   OH232303   4.689   0.090  14.066  0.1361 -0.1345 -0.3240
 2703TIP3    H132304   4.768   0.044  14.093 -0.0453  0.3734  1.1674
 2703TIP3    H232305   4.628   0.021  14.042  0.2518 -0.6383  0.7797
 2704TIP3   OH232306   5.246   0.843  14.124 -0.0969 -1.2225  0.2169
 2704TIP3    H132307   5.192   0.900  14.180  1.3849  2.5004 -1.7653
 2704TIP3    H232308   5.204   0.847  14.038  2.9483  1.7154 -1.3649
 2705TIP3   OH232309   4.357   5.080  17.837 -0.2581 -0.1539  0.2550
 2705TIP3    H132310   4.268   5.068  17.803 -0.1959 -2.9521  0.8045
 2705TIP3    H232311   4.374   5.174  17.827 -3.8727  0.8368  1.6759
 2706TIP3   OH232312   3.374   2.311  16.753  0.0028 -0.0071 -0.2604
 2706TIP3    H132313   3.367   2.264  16.670 -1.7035  0.3181 -0.3505
 2706TIP3    H232314   3.283   2.323  16.781  0.4377 -3.0604  3.3640
 2707TIP3   OH232315   0.030   3.627  17.673 -0.1767 -0.0052  0.0659
 2707TIP3    H132316   0.032   3.693  17.604 -0.1101 -1.0548 -0.9735
 2707TIP3    H232317  -0.040   3.656  17.732  0.8736  1.7956  0.5067
 2708TIP3   OH232318   3.295   1.549  17.722 -0.1520  0.0221  0.2120
 2708TIP3    H132319   3.256   1.475  17.676 -1.0556  0.4736  0.2288
 2708TIP3    H232320   3.296   1.522  17.814 -1.1806  0.3221  0.3175
 2709TIP3   OH232321   4.642   2.299  15.670  0.3907  0.9912  0.3498
 2709TIP3    H132322   4.646   2.209  15.636  2.9643  0.5552  1.5893
 2709TIP3    H232323   4.559   2.302  15.717 -0.8932  0.0794 -1.6899
 2710TIP3   OH232324   5.058   1.258  15.942 -0.2730  0.3120  0.3054
 2710TIP3    H132325   5.046   1.333  16.001 -2.0157  0.2958  0.0297
 2710TIP3    H232326   4.983   1.202  15.960  0.9195 -1.3342  0.3963
 2711TIP3   OH232327   1.512   4.243  17.735  1.0000 -0.1475  0.2781
 2711TIP3    H132328   1.543   4.156  17.712  0.8102 -0.0698 -0.2818
 2711TIP3    H232329   1.590   4.299  17.731  0.9352 -0.1004 -0.3521
 2712TIP3   OH232330   5.778   0.030  14.567  0.6464  0.3049  0.5231
 2712TIP3    H132331   5.825  -0.006  14.492  0.5788  0.2719  0.4964
 2712TIP3    H232332   5.729   0.105  14.531 -0.1020 -0.2539  0.3402
 2713TIP3   OH232333   4.841   6.544  16.020 -0.2494 -0.1593  0.1070
 2713TIP3    H132334   4.934   6.565  16.019 -0.1796 -0.4231  0.5728
 2713TIP3    H232335   4.836   6.458  16.064 -0.6475 -0.4517 -0.4987
 2714TIP3   OH232336   5.507   0.888  14.995 -0.0836 -0.0296  0.2131
 2714TIP3    H132337   5.431   0.916  14.943  0.9746  1.9224 -0.4066
 2714TIP3    H232338   5.490   0.924  15.082  0.4830  1.1900 -0.1500
 2715TIP3   OH232339   2.935   3.353  17.009  0.0865  0.2964 -0.0154
 2715TIP3    H132340   2.902   3.286  17.068 -1.5339  0.4491 -0.7168
 2715TIP3    H232341   2.970   3.421  17.068 -1.4472  0.4255  0.7880
 2716TIP3   OH232342   0.301   5.517  14.665 -0.0614  0.3070  0.4130
 2716TIP3    H132343   0.265   5.509  14.576 -0.7843 -0.9350  0.7834
 2716TIP3    H232344   0.262   5.443  14.712  0.0852  1.1250  1.8443
 2717TIP3   OH232345   6.498   0.418  14.983 -0.0887  0.7257  0.2671
 2717TIP3    H132346   6.586   0.429  14.949  0.0735 -0.2029  0.3576
 2717TIP3    H232347   6.446   0.392  14.907 -0.1880  0.8175  0.3032
 2718TIP3   OH232348   2.574   3.533  14.782  0.0358  0.1432 -0.2690
 2718TIP3    H132349   2.489   3.578  14.782 -0.3796 -0.6282 -0.1503
 2718TIP3    H232350   2.632   3.592  14.830 -1.0868 -0.5245  2.0641
 2719TIP3   OH232351   5.344   5.936  14.590  0.0530 -0.4588  0.3304
 2719TIP3    H132352   5.330   6.028  14.566 -0.3544 -0.8202 -0.8826
 2719TIP3    H232353   5.261   5.909  14.628  0.0202 -0.4402  0.2737
 2720TIP3   OH232354   5.962   2.865  15.340 -0.4126  0.4221 -0.0716
 2720TIP3    H132355   5.995   2.797  15.399 -1.9434 -0.7595 -0.5157
 2720TIP3    H232356   5.980   2.947  15.386 -0.3220 -0.3906  1.4182
 2721TIP3   OH232357   6.490   1.222  16.708  0.4646 -0.9088  0.0779
 2721TIP3    H132358   6.565   1.254  16.757  1.1437 -0.6134 -1.1168
 2721TIP3    H232359   6.442   1.167  16.770  3.0297 -3.2254  0.1802
 2722TIP3   OH232360   1.782   5.384  16.492  0.2160 -0.6656 -0.1755
 2722TIP3    H132361   1.833   5.398  16.572  1.8466 -0.5197 -1.2119
 2722TIP3    H232362   1.800   5.294  16.467  0.2327 -0.5111 -0.7345
 2723TIP3   OH232363   1.576   6.299  15.649 -0.0245  0.0406 -0.5660
 2723TIP3    H132364   1.494   6.349  15.651  0.7520  1.3710  0.2618
 2723TIP3    H232365   1.592   6.281  15.556 -1.2133 -0.1946 -0.7358
 2724TIP3   OH232366   1.760   2.367  15.929  0.0191 -0.8738 -0.6846
 2724TIP3    H132367   1.722   2.404  16.008  0.4477 -0.2197 -0.7740
 2724TIP3    H232368   1.854   2.385  15.937  0.1366 -1.2700 -1.0919
 2725TIP3   OH232369   6.323   4.557  15.079  0.3246 -0.0272  0.1789
 2725TIP3    H132370   6.245   4.575  15.026  1.2175  1.4684 -0.7007
 2725TIP3    H232371   6.376   4.499  15.024 -0.1887 -1.1563  0.8335
 2726TIP3   OH232372   0.923   3.825  16.030 -0.6306  0.0881  0.2449
 2726TIP3    H132373   0.989   3.786  15.972 -0.6205  1.1448 -0.4722
 2726TIP3    H232374   0.969   3.895  16.076 -1.3643  1.2290 -0.6961
 2727TIP3   OH232375   0.556   2.624  14.435  0.0455  0.1197 -0.1962
 2727TIP3    H132376   0.502   2.623  14.356 -1.2076  1.9054  0.5647
 2727TIP3    H232377   0.634   2.674  14.410 -0.9002  1.7436 -0.0285
 2728TIP3   OH232378   1.796   1.339  16.165  0.8920  0.8497 -0.9028
 2728TIP3    H132379   1.766   1.248  16.158  0.3208  0.7937  1.3556
 2728TIP3    H232380   1.778   1.377  16.079 -3.1387  0.0007 -0.6411
 2729TIP3   OH232381   0.892   2.693  15.567  0.6409 -0.4363  0.4518
 2729TIP3    H132382   0.950   2.769  15.576 -0.0155 -0.0739  1.8998
 2729TIP3    H232383   0.875   2.665  15.657 -0.2601 -1.4410 -0.0099
 2730TIP3   OH232384   1.259   4.137  16.278 -0.2104  1.1884  0.1550
 2730TIP3    H132385   1.315   4.209  16.248  0.8860 -0.1934 -1.2658
 2730TIP3    H232386   1.258   4.146  16.373  2.0171  1.6032  0.2010
 2731TIP3   OH232387   0.987   5.729  16.068  0.1724 -0.1354  0.5802
 2731TIP3    H132388   1.059   5.749  16.008 -0.0095 -0.1367  0.3584
 2731TIP3    H232389   0.934   5.664  16.021  0.9086 -1.3668  1.3948
 2732TIP3   OH232390   0.299   3.948  17.051  0.4313 -0.1784 -0.3189
 2732TIP3    H132391   0.309   3.947  17.146  0.0076 -1.0133 -0.2719
 2732TIP3    H232392   0.308   4.040  17.026 -0.8339  0.2386  0.6693
 2733TIP3   OH232393   4.716   0.479  17.044 -0.2354 -0.0969  0.4389
 2733TIP3    H132394   4.638   0.424  17.057  0.5142 -1.8653 -1.8050
 2733TIP3    H232395   4.685   0.550  16.988 -0.4118 -0.4115  0.1272
 2734TIP3   OH232396   1.056   5.112  15.081  0.7816  0.0723  0.1358
 2734TIP3    H132397   1.093   5.183  15.029 -0.4209  0.1757 -0.6299
 2734TIP3    H232398   0.961   5.123  15.073  0.5720 -1.0953  0.7252
 2735TIP3   OH232399   1.905   0.683  17.902 -0.0336 -0.4576 -0.5348
 2735TIP3    H132400   1.923   0.769  17.940  0.0381  1.3621 -4.2896
 2735TIP3    H232401   1.991   0.640  17.899 -0.0378 -0.6590  1.1679
 2736TIP3   OH232402   4.877   1.078  16.022  0.7965  0.0354 -0.1622
 2736TIP3    H132403   4.853   0.986  16.007  0.1991  0.0525  0.6617
 2736TIP3    H232404   4.795   1.126  16.012  1.0604  0.4571 -0.3322
 2737TIP3   OH232405   4.444   0.581  15.283  0.0088  0.5648  0.4296
 2737TIP3    H132406   4.411   0.558  15.370  1.2548 -0.6478  0.6227
 2737TIP3    H232407   4.518   0.522  15.269  2.1047  3.1004  0.0180
 2738TIP3   OH232408   1.778   1.466  17.119  0.2758  0.8528 -0.0474
 2738TIP3    H132409   1.795   1.413  17.042 -1.4310  2.2714 -1.4987
 2738TIP3    H232410   1.828   1.547  17.104  0.6283  0.7981  0.7723
 2739TIP3   OH232411   0.412   0.842  16.221 -0.0723  0.7280 -0.1222
 2739TIP3    H132412   0.320   0.868  16.213  0.2286  1.2368 -3.2292
 2739TIP3    H232413   0.415   0.754  16.183  0.6308  0.4933  0.4670
 2740TIP3   OH232414   2.796   0.795  16.481  0.1201 -0.0126 -0.5071
 2740TIP3    H132415   2.876   0.819  16.434 -0.5300 -1.2992 -2.3854
 2740TIP3    H232416   2.819   0.806  16.574  2.7894 -1.2847 -0.9182
 2741TIP3   OH232417   2.566   5.747  14.804  0.1147 -0.1637  0.2015
 2741TIP3    H132418   2.522   5.728  14.721  1.1242 -0.6840 -0.2305
 2741TIP3    H232419   2.512   5.815  14.845 -1.6164 -1.4025  0.1298
 2742TIP3   OH232420   6.142   4.721  17.622  0.9819 -0.0955 -0.3751
 2742TIP3    H132421   6.112   4.637  17.657  0.2356  0.8533  1.3844
 2742TIP3    H232422   6.169   4.771  17.699 -0.0738  1.8630 -1.2057
 2743TIP3   OH232423   1.643   2.569  15.776  0.2627 -0.6023  0.3628
 2743TIP3    H132424   1.669   2.560  15.685  0.5625  0.6220  0.3132
 2743TIP3    H232425   1.675   2.490  15.819 -1.0199 -1.8246 -0.8242
 2744TIP3   OH232426   2.514   2.570  15.960 -0.2750  0.1309  0.0851
 2744TIP3    H132427   2.567   2.622  16.020 -1.3596  0.5404  0.7218
 2744TIP3    H232428   2.486   2.495  16.012 -0.1870 -0.1639 -0.2907
 2745TIP3   OH232429   2.110   6.636  14.848  0.6926 -0.0717 -0.2276
 2745TIP3    H132430   2.016   6.642  14.867  0.8438  2.5220  0.0548
 2745TIP3    H232431   2.116   6.627  14.753  0.1843 -2.0511 -0.1261
 2746TIP3   OH232432   4.935   4.887  17.648  0.0303  0.1099 -0.6033
 2746TIP3    H132433   4.906   4.937  17.572  0.7900 -1.5429 -2.0510
 2746TIP3    H232434   5.012   4.936  17.680 -1.4354  1.8937  0.3770
 2747TIP3   OH232435   0.931   6.225  15.873  0.8363  0.2824  0.2721
 2747TIP3    H132436   0.884   6.296  15.917  2.3570  2.5656 -1.5527
 2747TIP3    H232437   0.863   6.170  15.837 -0.4570  1.9661  0.0240
 2748TIP3   OH232438   4.029   3.661  16.217 -0.3656 -0.2099  0.2818
 2748TIP3    H132439   4.085   3.714  16.273  1.2178  0.2022 -1.5881
 2748TIP3    H232440   4.057   3.571  16.233  0.2825 -0.0720 -0.0329
 2749TIP3   OH232441   2.854   4.685  15.314  0.1003  0.7872 -0.4904
 2749TIP3    H132442   2.915   4.643  15.375 -0.1152  0.1852 -0.6840
 2749TIP3    H232443   2.891   4.773  15.300  1.6420  0.0305 -1.5706
 2750TIP3   OH232444   4.090   5.677  15.269  0.5669  0.0262  0.4496
 2750TIP3    H132445   4.063   5.717  15.352 -0.5878 -2.4475  1.3473
 2750TIP3    H232446   4.106   5.586  15.290  1.6575 -0.3713 -1.8058
 2751TIP3   OH232447   5.305   2.187  17.936  0.1419  0.2579 -0.3895
 2751TIP3    H132448   5.278   2.121  17.872  1.0335 -0.4609 -0.0518
 2751TIP3    H232449   5.378   2.146  17.982  0.7115  1.4924 -0.1729
 2752TIP3   OH232450   1.075   6.748  17.996 -0.6818  0.0531  0.7127
 2752TIP3    H132451   1.006   6.810  17.972  0.7530  1.3551 -0.2217
 2752TIP3    H232452   1.128   6.795  18.061  0.6185 -0.0217 -0.2453
 2753TIP3   OH232453   3.492   0.005  17.620 -0.4619 -0.2119  0.4549
 2753TIP3    H132454   3.569   0.012  17.676 -0.8405 -0.5172  1.0214
 2753TIP3    H232455   3.521   0.038  17.535  0.8572 -2.0693  0.1089
 2754TIP3   OH232456   3.074   1.374  18.077  0.3664 -0.1953 -0.6088
 2754TIP3    H132457   2.995   1.416  18.042 -1.3557 -1.5535  1.3772
 2754TIP3    H232458   3.047   1.340  18.163  3.5161  0.4501  0.7866
 2755TIP3   OH232459   3.863   3.992  16.851  0.2119 -0.1089 -0.2672
 2755TIP3    H132460   3.852   4.066  16.793  0.0452  0.7217  0.7892
 2755TIP3    H232461   3.785   3.993  16.907 -0.2989 -1.7022 -0.8895
 2756TIP3   OH232462   5.807   0.225  17.590  0.6738  0.0536 -0.4133
 2756TIP3    H132463   5.880   0.281  17.615  1.4561 -1.3644  0.5615
 2756TIP3    H232464   5.733   0.258  17.641  1.0496  0.3719 -0.0697
 2757TIP3   OH232465   4.905   4.293  16.975 -0.2023 -0.7027  0.8045
 2757TIP3    H132466   4.823   4.340  16.958  0.1382 -0.5810 -0.5928
 2757TIP3    H232467   4.887   4.203  16.948 -0.6259 -1.2644  2.8097
 2758TIP3   OH232468   6.144   0.925  15.872 -0.3275  0.0043  0.3593
 2758TIP3    H132469   6.117   1.013  15.846 -2.2124 -0.7366 -0.3679
 2758TIP3    H232470   6.196   0.893  15.799 -0.6531  0.0742  0.0972
 2759TIP3   OH232471   0.637   0.814  14.633 -0.3797  0.0644 -0.2938
 2759TIP3    H132472   0.623   0.894  14.683  1.1946 -0.3328  0.8687
 2759TIP3    H232473   0.557   0.802  14.582 -1.0340  1.8212  0.2757
 2760TIP3   OH232474   5.249   0.491  13.928 -0.2284 -0.2806  0.5045
 2760TIP3    H132475   5.204   0.456  14.005 -0.2399 -1.4561 -0.0191
 2760TIP3    H232476   5.311   0.422  13.903  0.1263  0.2958 -0.2468
 2761TIP3   OH232477   1.638   3.950  17.527  1.0445 -0.5039  0.2797
 2761TIP3    H132478   1.631   3.858  17.499  0.6466 -0.1898 -0.6824
 2761TIP3    H232479   1.725   3.977  17.497  0.2450  0.1235 -1.6235
 2762TIP3   OH232480   2.185   4.296  17.886  0.5065  0.2162 -0.0741
 2762TIP3    H132481   2.218   4.334  17.967  5.1787 -0.7716 -1.2482
 2762TIP3    H232482   2.188   4.367  17.822  0.9709 -0.0496 -0.3484
 2763TIP3   OH232483   5.949   6.595  16.662 -0.4728  0.2721  0.1126
 2763TIP3    H132484   5.890   6.644  16.605 -0.5299 -1.0772 -1.0571
 2763TIP3    H232485   6.020   6.566  16.604  1.0437  1.3249  1.3541
 2764TIP3   OH232486   4.355   3.974  15.282  0.5037 -0.1228 -0.2376
 2764TIP3    H132487   4.302   3.895  15.274  0.0656  0.1370  0.0741
 2764TIP3    H232488   4.440   3.950  15.243 -0.0153 -0.3716 -1.2421
 2765TIP3   OH232489   1.474   0.624  14.868 -0.3999 -0.0032  0.5304
 2765TIP3    H132490   1.502   0.670  14.789 -1.0637 -2.0810 -1.0187
 2765TIP3    H232491   1.546   0.636  14.929  0.8428  0.4012 -0.9290
 2766TIP3   OH232492   6.343   4.294  17.622  0.1069 -0.1583  0.4283
 2766TIP3    H132493   6.337   4.210  17.668 -0.4820 -0.9444 -1.0127
 2766TIP3    H232494   6.395   4.275  17.545  1.6001  1.2797  1.0255
 2767TIP3   OH232495   5.734   3.307  15.414  0.1310  0.4342  0.2798
 2767TIP3    H132496   5.818   3.330  15.373  1.0033 -0.3235  1.5343
 2767TIP3    H232497   5.759   3.279  15.502 -1.6340  1.7640  1.2525
 2768TIP3   OH232498   1.988   2.481  17.182  0.0975 -0.1148 -0.1460
 2768TIP3    H132499   1.939   2.410  17.141 -1.9157  2.0626 -1.7691
 2768TIP3    H232500   1.934   2.508  17.257 -0.7588  1.6195 -1.3315
 2769TIP3   OH232501   0.198   1.184  17.526 -0.4690  0.3226  0.9102
 2769TIP3    H132502   0.228   1.223  17.443  0.0480 -0.6334  0.6333
 2769TIP3    H232503   0.122   1.236  17.551  0.9799  2.3881  1.2586
 2770TIP3   OH232504   4.330   4.158  16.093  0.0228 -0.2600 -0.0124
 2770TIP3    H132505   4.320   4.253  16.091 -1.8638 -0.4158  0.2571
 2770TIP3    H232506   4.362   4.139  16.181 -3.1617 -0.0944  1.3070
 2771TIP3   OH232507   2.448   1.885  15.792 -0.5968  0.1803  0.2007
 2771TIP3    H132508   2.468   1.967  15.838 -1.4795  1.6721 -1.8764
 2771TIP3    H232509   2.526   1.867  15.740 -1.2056  1.0799 -1.1162
 2772TIP3   OH232510   1.819   2.055  15.343  0.5242  0.0258 -0.2178
 2772TIP3    H132511   1.904   2.035  15.383  1.1063 -1.1351 -1.9079
 2772TIP3    H232512   1.836   2.051  15.249 -1.5347 -0.9034 -0.6048
 2773TIP3   OH232513   0.538   0.342  17.358  0.2064  0.1292 -0.0018
 2773TIP3    H132514   0.485   0.299  17.292  0.7511  0.2794 -0.5504
 2773TIP3    H232515   0.625   0.301  17.349  0.2443  0.0407  0.7221
 2774TIP3   OH232516   5.540   5.127  16.117  0.1855 -0.3165 -0.0671
 2774TIP3    H132517   5.600   5.054  16.101  1.3023 -0.0279  2.3641
 2774TIP3    H232518   5.475   5.091  16.178  0.6716  0.6629  1.0545
 2775TIP3   OH232519   3.550   1.401  17.493  0.2427 -0.0174 -0.3142
 2775TIP3    H132520   3.547   1.311  17.459  1.1336 -0.3348  0.4064
 2775TIP3    H232521   3.468   1.440  17.463  0.1182 -0.8764 -1.1673
 2776TIP3   OH232522   1.467   1.302  15.594 -0.0022 -0.3993 -0.1316
 2776TIP3    H132523   1.544   1.289  15.649 -0.6583  1.3610  1.3245
 2776TIP3    H232524   1.430   1.385  15.624 -2.1668 -0.9250 -1.1324
 2777TIP3   OH232525   5.930   4.982  15.982  0.0040 -0.3448  0.5692
 2777TIP3    H132526   6.018   4.954  15.955  0.5305  2.3937 -0.9349
 2777TIP3    H232527   5.895   5.027  15.905 -1.6915  0.8778  1.9939
 2778TIP3   OH232528   3.686   0.870  16.224  0.3536  0.0632 -0.4605
 2778TIP3    H132529   3.722   0.789  16.189 -1.0189 -1.0565  0.5646
 2778TIP3    H232530   3.648   0.914  16.149  1.9281  0.2382 -1.1901
 2779TIP3   OH232531   2.357   6.412  17.678 -0.7778  0.1145 -0.1599
 2779TIP3    H132532   2.299   6.412  17.603  0.7048 -0.3401 -1.3682
 2779TIP3    H232533   2.437   6.454  17.647  0.6541 -1.9523  0.4655
 2780TIP3   OH232534   5.889   2.794  16.086  0.0620 -0.2020 -0.7019
 2780TIP3    H132535   5.936   2.839  16.157  0.0761 -2.7895  1.0377
 2780TIP3    H232536   5.942   2.812  16.008  1.5714  0.4782  0.4229
 2781TIP3   OH232537   2.267   1.582  14.596  0.4656  0.6561 -0.1439
 2781TIP3    H132538   2.204   1.650  14.619  0.7736  0.7416  0.4519
 2781TIP3    H232539   2.344   1.601  14.649  0.8812  0.3645 -0.6344
 2782TIP3   OH232540   2.463   4.873  16.731 -0.0053  0.0439 -0.4239
 2782TIP3    H132541   2.516   4.836  16.801  1.9675  1.8648 -0.8586
 2782TIP3    H232542   2.420   4.798  16.690  0.4198 -1.2487  1.3976
 2783TIP3   OH232543   0.542   6.757  16.798  0.0785 -0.0567  0.0174
 2783TIP3    H132544   0.509   6.667  16.789 -0.1649  0.0837 -0.5064
 2783TIP3    H232545   0.553   6.768  16.893  0.9744 -0.9361  0.0308
 2784TIP3   OH232546   5.007   6.116  16.521  0.3443 -0.1846  0.3651
 2784TIP3    H132547   4.950   6.108  16.597  0.9708  0.8020  0.9709
 2784TIP3    H232548   4.950   6.097  16.446 -0.8421  0.9347  0.9361
 2785TIP3   OH232549   3.533   6.552  15.690  0.3018 -0.5923 -0.3365
 2785TIP3    H132550   3.565   6.583  15.774 -0.3651 -0.5805 -0.0829
 2785TIP3    H232551   3.612   6.535  15.639  0.7477  2.6276 -0.9192
 2786TIP3   OH232552   6.575   1.154  16.183  0.2169 -0.0323 -0.1572
 2786TIP3    H132553   6.513   1.154  16.256 -0.7857  0.0274 -0.9963
 2786TIP3    H232554   6.644   1.214  16.211  0.9028 -1.5681  1.6074
 2787TIP3   OH232555   0.721   5.242  18.155 -0.0383  0.1468  0.4425
 2787TIP3    H132556   0.682   5.237  18.242 -1.8526 -0.7186 -0.3803
 2787TIP3    H232557   0.667   5.305  18.108 -0.5345 -1.1321 -0.7547
 2788TIP3   OH232558   4.500   6.281  15.937 -0.6240  0.4460  0.3522
 2788TIP3    H132559   4.432   6.309  15.999 -0.4697  1.7164 -0.0108
 2788TIP3    H232560   4.482   6.188  15.922 -0.8480  0.1896  2.0479
 2789TIP3   OH232561   5.158   3.140  15.902 -0.5874 -0.2603 -0.3188
 2789TIP3    H132562   5.067   3.156  15.878 -0.4229 -1.2114 -1.6746
 2789TIP3    H232563   5.204   3.222  15.881 -0.4016 -1.0996 -3.6924
 2790TIP3   OH232564   4.689   2.025  17.012  0.3700 -0.1347  0.0416
 2790TIP3    H132565   4.676   1.930  17.008 -3.1938  0.2141 -0.7193
 2790TIP3    H232566   4.639   2.053  17.089  0.3969  1.2260 -0.4038
 2791TIP3   OH232567   4.409   6.687  15.177  0.6304  0.4987  0.2631
 2791TIP3    H132568   4.325   6.660  15.140  0.4418  2.0294 -0.5257
 2791TIP3    H232569   4.469   6.689  15.103  0.7293  1.7817  0.3569
 2792TIP3   OH232570   3.566   1.984  15.321 -0.2162  0.3523  0.2162
 2792TIP3    H132571   3.610   1.900  15.340  0.3314  1.0806  2.5502
 2792TIP3    H232572   3.548   2.021  15.408  0.7906  3.3053 -0.7343
 2793TIP3   OH232573   1.533   5.498  16.523 -0.1568  0.7813 -0.0486
 2793TIP3    H132574   1.494   5.430  16.468 -0.2497  0.3344  0.5686
 2793TIP3    H232575   1.628   5.485  16.513 -0.1688  0.1171  0.5978
 2794TIP3   OH232576   3.729   3.502  17.426  0.0775 -0.0694  0.3055
 2794TIP3    H132577   3.723   3.461  17.513 -0.4214 -0.1666  0.2269
 2794TIP3    H232578   3.817   3.480  17.396  0.2478 -0.0567  0.7778
 2795TIP3   OH232579   6.485   0.634  17.982  0.4820  0.7459 -0.2422
 2795TIP3    H132580   6.443   0.630  18.068  0.0396 -0.2618 -0.4934
 2795TIP3    H232581   6.534   0.716  17.983 -0.3047  1.2167  0.6057
 2796TIP3   OH232582   3.514   1.462  15.274 -0.4880 -0.7953  0.2541
 2796TIP3    H132583   3.543   1.454  15.364 -2.0962 -0.5689  0.8342
 2796TIP3    H232584   3.587   1.429  15.222 -0.1296 -2.4792  1.7100
 2797TIP3   OH232585   5.342   1.703  15.174 -0.4144 -0.4415 -1.1422
 2797TIP3    H132586   5.405   1.639  15.140 -1.2727 -2.1427  0.2904
 2797TIP3    H232587   5.361   1.707  15.268 -1.6340 -0.0521 -0.9006
 2798TIP3   OH232588   6.664   3.275  15.315  0.0727 -0.4015  0.2850
 2798TIP3    H132589   6.717   3.333  15.370  0.4367 -0.4870  0.0214
 2798TIP3    H232590   6.689   3.296  15.225 -2.2249  1.4533 -0.0186
 2799TIP3   OH232591   5.400   4.087  15.757  0.1553 -0.9807  0.6946
 2799TIP3    H132592   5.315   4.104  15.795  0.5125  1.9882  0.3702
 2799TIP3    H232593   5.463   4.126  15.818  1.1695 -1.6747  0.1339
 2800TIP3   OH232594   4.336   0.602  16.497 -0.1817  0.1472 -0.5928
 2800TIP3    H132595   4.317   0.696  16.499 -0.9525 -0.0070  0.1091
 2800TIP3    H232596   4.261   0.562  16.541  1.4581 -0.5655  1.7130
 2801TIP3   OH232597   1.258   4.168  15.547  0.2760  0.7101 -0.0612
 2801TIP3    H132598   1.293   4.253  15.520  1.5565  0.8167  1.7721
 2801TIP3    H232599   1.211   4.186  15.629 -0.6399 -0.1331 -0.3748
 2802TIP3   OH232600   1.219   3.404  17.775 -0.2988 -0.2942 -0.7493
 2802TIP3    H132601   1.302   3.358  17.773  0.8222  1.5867 -0.3662
 2802TIP3    H232602   1.181   3.381  17.860 -0.3655 -1.4416 -1.0748
 2803TIP3   OH232603   3.172   1.534  16.992  0.4642  0.1822 -0.7212
 2803TIP3    H132604   3.219   1.616  16.976  1.3305 -0.1311  0.1062
 2803TIP3    H232605   3.223   1.468  16.945 -0.4717  0.1609 -1.7428
 2804TIP3   OH232606   2.818   3.092  16.476 -0.4636  0.0564  0.0354
 2804TIP3    H132607   2.849   3.007  16.446 -1.1780 -0.2567  0.1678
 2804TIP3    H232608   2.898   3.143  16.490 -0.0188 -0.6634  0.1757
 2805TIP3   OH232609   0.505   6.098  17.013  0.2235  0.0061  0.3908
 2805TIP3    H132610   0.461   6.120  17.095  1.5454 -0.1246  1.1667
 2805TIP3    H232611   0.436   6.101  16.947 -0.9091 -0.0487  1.5283
 2806TIP3   OH232612   6.113   1.593  15.922 -0.0006 -0.1414  0.0101
 2806TIP3    H132613   6.198   1.551  15.917  0.0154 -0.4417  1.8484
 2806TIP3    H232614   6.059   1.547  15.858  1.0530 -0.3496 -0.7448
 2807TIP3   OH232615   4.197   6.667  14.973 -0.3875 -0.2760  0.4561
 2807TIP3    H132616   4.181   6.573  14.985 -1.1575 -0.1386  0.5199
 2807TIP3    H232617   4.246   6.672  14.890  1.3958 -0.8818  1.4207
 2808TIP3   OH232618   0.851   5.952  17.127 -0.1571  0.2929 -0.1348
 2808TIP3    H132619   0.827   6.025  17.184  2.4982  0.8872  0.3583
 2808TIP3    H232620   0.769   5.902  17.116 -1.3018  1.4699  2.2280
 2809TIP3   OH232621   5.382   2.975  15.650 -0.2206 -0.0923  0.4662
 2809TIP3    H132622   5.380   3.070  15.667 -2.5882  0.2615 -1.2371
 2809TIP3    H232623   5.374   2.935  15.736 -0.3665  1.2934  1.1327
 2810TIP3   OH232624   5.412   2.451  14.904 -0.3410 -0.3926  0.0597
 2810TIP3    H132625   5.369   2.439  14.819  0.1325  0.8964 -0.3924
 2810TIP3    H232626   5.416   2.546  14.915 -1.6621 -0.5252  2.1911
 2811TIP3   OH232627   2.132   0.202  15.369  0.6244  0.2890  0.3835
 2811TIP3    H132628   2.210   0.235  15.413  0.6656  0.3885  0.2376
 2811TIP3    H232629   2.155   0.113  15.344  0.6505  0.2791  0.4426
 2812TIP3   OH232630   4.589   6.087  16.193  0.5641 -0.0575 -0.0889
 2812TIP3    H132631   4.594   6.004  16.144  1.6858 -0.9442  1.4301
 2812TIP3    H232632   4.495   6.101  16.207  0.3468 -1.0135 -0.4916
 2813TIP3   OH232633   2.015   0.463  16.221 -0.3498 -0.4071  0.0326
 2813TIP3    H132634   1.960   0.426  16.289 -0.1938 -0.8487 -0.0773
 2813TIP3    H232635   2.069   0.389  16.190  0.7760  0.1519  0.5948
 2814TIP3   OH232636   1.999   5.848  15.135  0.0605 -0.1126 -0.1413
 2814TIP3    H132637   2.029   5.783  15.071  0.6706  1.6552 -1.7564
 2814TIP3    H232638   1.907   5.827  15.150 -0.1333 -0.4898 -1.7221
 2815TIP3   OH232639   0.040   6.025  15.499  0.3130  0.2568 -0.0574
 2815TIP3    H132640   0.082   6.019  15.585 -0.6611 -0.5142  0.3736
 2815TIP3    H232641  -0.015   5.948  15.493 -1.1268  1.2799 -0.5733
 2816TIP3   OH232642   5.119   1.385  17.443  0.3127  0.2721  0.3920
 2816TIP3    H132643   5.075   1.323  17.384 -0.7299  0.2171  1.2069
 2816TIP3    H232644   5.131   1.464  17.390  0.5402 -0.1949 -0.2720
 2817TIP3   OH232645   6.624   2.129  17.351  0.0179  0.0956  0.1361
 2817TIP3    H132646   6.666   2.053  17.391 -1.0424 -0.3895  0.3720
 2817TIP3    H232647   6.571   2.167  17.420 -0.7820  0.0374 -0.4227
 2818TIP3   OH232648   1.487   0.472  16.817 -0.2578  0.7347 -0.1738
 2818TIP3    H132649   1.537   0.393  16.836  0.5093  1.3071  0.2132
 2818TIP3    H232650   1.414   0.441  16.763  0.7650 -0.0461 -1.1666
 2819TIP3   OH232651   1.120   4.402  17.298  0.4585 -0.4239 -0.2806
 2819TIP3    H132652   1.095   4.486  17.259  3.0629 -0.0836 -1.4325
 2819TIP3    H232653   1.091   4.408  17.389 -1.7967  0.5895 -0.9873
 2820TIP3   OH232654   5.529   1.273  17.597 -0.1272 -0.0981 -0.3826
 2820TIP3    H132655   5.507   1.220  17.521  0.6240 -1.1902  0.1505
 2820TIP3    H232656   5.571   1.213  17.658 -2.1720  0.3521  1.6153
 2821TIP3   OH232657   6.570   1.708  16.200  0.0175  0.1359  0.6353
 2821TIP3    H132658   6.653   1.718  16.247  0.4284  0.9951 -0.2523
 2821TIP3    H232659   6.587   1.637  16.138  0.7106  1.4918 -0.8022
 2822TIP3   OH232660   2.699   1.215  14.215 -0.2745  0.0481  0.0764
 2822TIP3    H132661   2.727   1.227  14.125  0.5266  1.5408  0.4871
 2822TIP3    H232662   2.758   1.147  14.249  1.7994  1.8809  0.4000
 2823TIP3   OH232663   3.934   6.562  14.222  0.0754  0.4622 -0.3679
 2823TIP3    H132664   4.026   6.558  14.245 -0.4991  0.7833  2.3076
 2823TIP3    H232665   3.916   6.476  14.183  1.3851  0.1969 -0.4343
 2824TIP3   OH232666   4.671   0.716  17.780  0.0488 -0.6633  0.2202
 2824TIP3    H132667   4.724   0.796  17.780 -2.6109  1.2405 -0.6446
 2824TIP3    H232668   4.648   0.702  17.872  0.1463 -0.1668  0.3220
 2825TIP3   OH232669   3.626   0.006  16.231 -0.7331  0.2463 -0.0961
 2825TIP3    H132670   3.564   0.019  16.160 -3.1204  0.7516  1.9240
 2825TIP3    H232671   3.585   0.048  16.307  1.2212 -1.0447  1.8112
 2826TIP3   OH232672   1.093   6.662  16.779  0.3687 -0.0417 -0.5360
 2826TIP3    H132673   1.005   6.637  16.804  0.2258 -0.6116 -1.5383
 2826TIP3    H232674   1.103   6.752  16.809  0.1395 -0.5969  1.2812
 2827TIP3   OH232675   5.653   2.808  16.395  0.1822 -0.2796  0.4544
 2827TIP3    H132676   5.606   2.800  16.478  0.0554  0.5998  0.4783
 2827TIP3    H232677   5.727   2.747  16.403 -1.1448 -1.9922  0.2538
 2828TIP3   OH232678   4.747   2.700  18.131  0.5331  0.5067 -0.4229
 2828TIP3    H132679   4.663   2.654  18.127 -0.0723  1.4603  0.7983
 2828TIP3    H232680   4.724   2.792  18.117  1.4812  0.6975 -0.7958
 2829TIP3   OH232681   3.017   4.967  17.720  0.0854  0.1893  0.9241
 2829TIP3    H132682   2.971   4.886  17.742  0.3248  0.1343  1.2179
 2829TIP3    H232683   2.998   5.027  17.792 -0.5186  0.5767  0.4614
 2830TIP3   OH232684   2.122   1.974  15.186 -0.0870  0.1414 -0.1023
 2830TIP3    H132685   2.105   2.042  15.120  0.6688 -0.1169 -0.5752
 2830TIP3    H232686   2.147   2.023  15.264  1.8142  0.4148 -0.8328
 2831TIP3   OH232687   2.656   0.707  17.143  0.1361  0.5568  0.2451
 2831TIP3    H132688   2.631   0.675  17.057 -0.7281  1.2805  0.2157
 2831TIP3    H232689   2.603   0.657  17.204  0.7830  0.0101  0.3700
 2832TIP3   OH232690   0.109   1.026  14.893 -0.0490 -0.1798 -0.3129
 2832TIP3    H132691   0.110   0.931  14.900  1.4317 -0.3108 -1.6255
 2832TIP3    H232692   0.017   1.050  14.891 -0.4363 -1.6390 -0.3832
 2833TIP3   OH232693   2.372   0.505  18.046  0.5146  0.2508  0.2077
 2833TIP3    H132694   2.462   0.523  18.020  0.8185  1.3773  1.9533
 2833TIP3    H232695   2.376   0.418  18.087  0.5309 -0.2770 -0.8541
 2834TIP3   OH232696   2.777   0.582  14.942  0.5294 -0.3191 -0.3190
 2834TIP3    H132697   2.691   0.559  14.906 -0.0423  0.4949  0.4818
 2834TIP3    H232698   2.804   0.660  14.894  0.1305  0.2963  0.4279
 2835TIP3   OH232699   4.049   0.195  17.281 -0.1531 -0.4761 -0.3707
 2835TIP3    H132700   4.099   0.162  17.356  0.0012  0.5635  0.0019
 2835TIP3    H232701   4.115   0.218  17.216 -0.1522  0.4289 -0.0679
 2836TIP3   OH232702   0.598   1.927  17.217  0.3103 -0.2936  0.0951
 2836TIP3    H132703   0.654   1.989  17.263  0.8373 -0.3542 -0.4505
 2836TIP3    H232704   0.654   1.850  17.204 -0.6141 -1.2607  1.5801
 2837TIP3   OH232705   5.150   1.576  15.385 -0.1285  0.3530 -0.5481
 2837TIP3    H132706   5.134   1.668  15.366  0.0163  0.2857 -1.0150
 2837TIP3    H232707   5.243   1.571  15.404 -0.2539  0.4029  0.1100
 2838TIP3   OH232708   0.616   5.094  16.531 -0.2206  0.3142 -0.1599
 2838TIP3    H132709   0.701   5.054  16.549 -0.7572 -1.6945 -1.7377
 2838TIP3    H232710   0.571   5.093  16.616  0.2397 -1.3858  0.1087
 2839TIP3   OH232711   1.982   1.289  14.927 -0.6601  0.2124 -0.0638
 2839TIP3    H132712   1.961   1.217  14.986 -1.0053 -0.9070 -1.5218
 2839TIP3    H232713   2.033   1.250  14.857  0.9750  1.7777  0.1700
 2840TIP3   OH232714   5.037   2.356  17.897 -0.4991  0.0937 -0.0884
 2840TIP3    H132715   5.045   2.338  17.803 -2.7262 -2.6583  0.1175
 2840TIP3    H232716   5.094   2.290  17.938 -0.7178  0.2852  0.5248
 2841TIP3   OH232717   1.343   4.785  17.349 -0.1278  0.0724  0.0749
 2841TIP3    H132718   1.390   4.704  17.369 -1.0503 -0.4288  0.3240
 2841TIP3    H232719   1.267   4.783  17.407 -1.5812 -0.2277 -1.7371
 2842TIP3   OH232720   5.435   0.984  16.964 -0.5230  0.2032  0.2526
 2842TIP3    H132721   5.516   0.939  16.988 -2.7842 -5.5368 -1.3292
 2842TIP3    H232722   5.392   1.001  17.047  0.3709 -0.7908  0.9472
 2843TIP3   OH232723   2.188   4.673  17.015  0.4155  0.3068  0.0820
 2843TIP3    H132724   2.158   4.750  17.065  1.7302  0.5675  0.5004
 2843TIP3    H232725   2.282   4.684  17.008  0.6539 -1.3616  0.2880
 2844TIP3   OH232726   0.283   4.977  15.942 -0.0979 -0.2571 -0.8716
 2844TIP3    H132727   0.190   4.993  15.961  0.5686  1.8393  1.0544
 2844TIP3    H232728   0.283   4.942  15.852 -2.7659 -0.9649 -0.6892
 2845TIP3   OH232729   4.878   5.270  16.223  0.1158 -0.5519  0.2493
 2845TIP3    H132730   4.847   5.181  16.208  1.3921 -1.0191  0.3030
 2845TIP3    H232731   4.961   5.275  16.176  0.8989  0.0660  1.6232
 2846TIP3   OH232732   6.283   6.474  16.234  0.4873 -0.1694 -0.0996
 2846TIP3    H132733   6.319   6.441  16.316 -1.1523 -1.5987  0.1083
 2846TIP3    H232734   6.316   6.414  16.167 -0.0235 -0.3917 -0.1554
 2847TIP3   OH232735   0.289   3.557  16.061  0.7757  1.2331 -0.2829
 2847TIP3    H132736   0.296   3.604  16.144  1.3082 -1.0070  1.0388
 2847TIP3    H232737   0.201   3.521  16.061  1.0266  0.5906 -0.2829
 2848TIP3   OH232738   0.536   5.378  17.978  0.0463  0.1425  0.8371
 2848TIP3    H132739   0.446   5.372  17.947  0.9958 -1.9529 -1.8477
 2848TIP3    H232740   0.574   5.450  17.928  0.4822 -0.5412  0.1736
 2849TIP3   OH232741   1.913   2.836  17.192  0.1627  0.2321  0.3665
 2849TIP3    H132742   1.961   2.761  17.158  1.4016  0.9410  0.4847
 2849TIP3    H232743   1.889   2.886  17.114 -0.9580 -0.4461  0.2643
 2850TIP3   OH232744   1.598   1.181  17.125  0.3042 -0.0176 -0.2774
 2850TIP3    H132745   1.504   1.195  17.128  0.2341  0.0190 -1.8646
 2850TIP3    H232746   1.625   1.178  17.217 -1.3382 -0.7650  0.2133
 2851TIP3   OH232747   4.208   0.822  17.312  0.4752 -0.5098  0.6648
 2851TIP3    H132748   4.168   0.857  17.392 -0.4848 -2.7203  1.2230
 2851TIP3    H232749   4.302   0.838  17.324  0.1151  1.9403  0.7724
 2852TIP3   OH232750   1.609   5.983  16.810  0.1137 -0.0329 -1.1262
 2852TIP3    H132751   1.679   6.042  16.781 -0.5889  0.0883 -2.6972
 2852TIP3    H232752   1.601   5.920  16.738  0.9331 -2.1688  0.5458
 2853TIP3   OH232753   6.736   4.659  17.132  0.4574  0.0515 -0.0102
 2853TIP3    H132754   6.731   4.623  17.221  1.2720 -3.0149 -1.0958
 2853TIP3    H232755   6.728   4.753  17.144 -1.3562 -0.3757  3.1389
 2854TIP3   OH232756   4.885   2.403  16.582 -0.3249  0.6495 -0.6982
 2854TIP3    H132757   4.887   2.403  16.486 -1.4503 -0.3138 -0.7589
 2854TIP3    H232758   4.885   2.495  16.606  0.6944  0.9065 -1.5883
 2855TIP3   OH232759   3.904   5.861  17.190 -0.3176  0.2227 -0.2464
 2855TIP3    H132760   3.870   5.895  17.107 -0.3443 -0.6937 -0.6302
 2855TIP3    H232761   3.942   5.937  17.234  0.7970  0.5206 -1.6440
 2856TIP3   OH232762   3.023   0.094  17.827  0.5887 -0.1506 -0.0594
 2856TIP3    H132763   3.088   0.061  17.765 -0.2589 -0.6250 -0.7294
 2856TIP3    H232764   2.968   0.153  17.774  0.3239  0.0399  0.4259
 2857TIP3   OH232765   1.513   6.059  17.113 -0.6349 -0.1980 -0.4040
 2857TIP3    H132766   1.548   6.006  17.041  0.2075 -1.6234  0.9754
 2857TIP3    H232767   1.591   6.094  17.157 -1.0320 -0.8714  0.8920
 2858TIP3   OH232768   0.140   2.899  16.318 -0.1089  0.1943  0.6003
 2858TIP3    H132769   0.215   2.958  16.318 -0.9799  1.4485 -1.6778
 2858TIP3    H232770   0.176   2.814  16.292  1.0361 -0.2047  3.1702
 2859TIP3   OH232771   3.203   2.524  16.251  0.0393  0.1683 -0.3853
 2859TIP3    H132772   3.153   2.554  16.175  0.0138  1.7588  0.2209
 2859TIP3    H232773   3.137   2.509  16.319  0.2664  1.1327  0.0585
 2860TIP3   OH232774   1.144   1.112  15.544 -0.5296  0.9223  0.1371
 2860TIP3    H132775   1.209   1.080  15.606 -3.2647 -0.6246  2.4303
 2860TIP3    H232776   1.187   1.187  15.502  2.2791  0.7210  2.3115
 2861TIP3   OH232777   6.597   3.593  16.208 -0.0587  0.6366 -0.9230
 2861TIP3    H132778   6.558   3.675  16.179 -1.4085  0.1696 -0.5073
 2861TIP3    H232779   6.564   3.528  16.145 -0.7418  0.0777 -0.0147
 2862TIP3   OH232780   5.443   2.479  16.551  0.0051 -0.0905  0.5016
 2862TIP3    H132781   5.459   2.386  16.570 -2.0560 -0.3849  1.1577
 2862TIP3    H232782   5.395   2.478  16.468  0.9381  0.5051 -0.0631
 2863TIP3   OH232783   4.383   4.236  15.198  0.0642  0.1441  0.0444
 2863TIP3    H132784   4.421   4.213  15.114  1.3268  2.1882 -0.0093
 2863TIP3    H232785   4.366   4.152  15.241  1.7855 -0.8949 -1.1879
 2864TIP3   OH232786   0.502   4.308  17.473  0.5124 -0.3927  0.1177
 2864TIP3    H132787   0.580   4.284  17.523 -0.3747 -2.5992  0.5732
 2864TIP3    H232788   0.446   4.354  17.535  1.3649  1.0835 -0.1768
 2865TIP3   OH232789   6.660   2.213  14.968  0.1880 -0.9628 -0.1339
 2865TIP3    H132790   6.578   2.220  15.016  0.9792  1.0100  1.0315
 2865TIP3    H232791   6.636   2.232  14.877 -0.6855 -0.6457  0.1547
 2866TIP3   OH232792   3.779   0.339  15.299  0.5222  0.0484 -0.5606
 2866TIP3    H132793   3.708   0.274  15.298  0.7563 -0.2261 -2.3396
 2866TIP3    H232794   3.736   0.421  15.273  0.8229 -0.0789 -1.4586
 2867TIP3   OH232795   2.723   0.085  17.261  0.0027  1.0267 -0.2393
 2867TIP3    H132796   2.663   0.061  17.332 -0.8765  1.6349 -0.7620
 2867TIP3    H232797   2.702   0.177  17.242  1.1258  1.2566 -0.4114
 2868TIP3   OH232798   3.097   2.279  16.865  0.3233 -0.1364  0.2677
 2868TIP3    H132799   3.074   2.365  16.900  1.2106  0.0617  0.3875
 2868TIP3    H232800   3.021   2.253  16.813  0.3556  1.0916 -0.4399
 2869TIP3   OH232801   3.630   5.581  18.128  0.0368  0.0411  0.3790
 2869TIP3    H132802   3.541   5.546  18.137  0.0653  0.3247  2.2561
 2869TIP3    H232803   3.687   5.507  18.144  0.1791 -0.2252 -1.2018
 2870TIP3   OH232804   2.138   1.962  16.223  0.3000 -0.2515  0.3306
 2870TIP3    H132805   2.212   1.995  16.172  2.1015 -1.5350  1.9733
 2870TIP3    H232806   2.084   2.039  16.239  1.9656  1.0023  0.1696
 2871TIP3   OH232807   3.432   5.125  16.927 -0.5715  0.5499  0.1599
 2871TIP3    H132808   3.391   5.059  16.984  0.5904  0.1126  0.5050
 2871TIP3    H232809   3.428   5.087  16.840  1.0157 -0.4698  0.4941
 2872TIP3   OH232810   6.336   0.441  16.098  0.0556 -0.2857  0.7608
 2872TIP3    H132811   6.286   0.425  16.018  1.2001  2.2366 -0.6257
 2872TIP3    H232812   6.287   0.399  16.167 -1.8692 -1.1951 -1.0567
 2873TIP3   OH232813   1.514   1.617  14.991 -0.3812  0.2966 -0.4848
 2873TIP3    H132814   1.428   1.643  15.023 -1.8223 -2.7610 -1.5552
 2873TIP3    H232815   1.498   1.575  14.907  2.1837 -0.1372 -0.8519
 2874TIP3   OH232816   4.122   5.339  16.740  0.0622  0.0246  0.5229
 2874TIP3    H132817   4.204   5.377  16.773 -0.1160  0.3550  0.5839
 2874TIP3    H232818   4.053   5.387  16.784 -0.1688 -0.7312  1.0042
 2875TIP3   OH232819   0.722   2.173  17.349 -0.4126 -0.5229  0.3333
 2875TIP3    H132820   0.644   2.221  17.375  0.0765  0.4165  0.0997
 2875TIP3    H232821   0.782   2.240  17.316  0.5997 -1.1860  0.7623
 2876TIP3   OH232822   1.372   3.821  17.031 -0.1616 -0.1945  0.0019
 2876TIP3    H132823   1.367   3.906  17.075 -0.8537  0.9846 -2.2297
 2876TIP3    H232824   1.445   3.830  16.970 -1.5135 -0.4439 -1.7049
 2877TIP3   OH232825   4.392   4.429  16.806 -0.1469 -0.4828  0.5194
 2877TIP3    H132826   4.347   4.425  16.890 -0.4598 -0.3493  0.3623
 2877TIP3    H232827   4.443   4.510  16.809 -0.1426 -0.4886  0.5875
 2878TIP3   OH232828   2.106   3.477  15.424 -0.0158 -0.2897  0.5152
 2878TIP3    H132829   2.082   3.393  15.385  0.5693  0.3597 -1.3366
 2878TIP3    H232830   2.191   3.498  15.387  0.5683  0.4142  2.1568
 2879TIP3   OH232831   3.780   2.305  15.808 -0.2460 -0.0488  0.4521
 2879TIP3    H132832   3.712   2.269  15.864 -0.4098  0.0065  0.2876
 2879TIP3    H232833   3.733   2.357  15.743 -0.0328  0.1837  0.4815
 2880TIP3   OH232834   5.343   2.659  17.718 -0.0298 -0.2914 -0.1154
 2880TIP3    H132835   5.300   2.689  17.797  1.2324  0.1182  0.4466
 2880TIP3    H232836   5.359   2.566  17.733  1.5093  0.0773  0.7744
 2881TIP3   OH232837   5.951   1.633  16.987  0.0461  0.9328  0.1380
 2881TIP3    H132838   5.881   1.676  17.036  0.7432  1.3455  0.7880
 2881TIP3    H232839   5.924   1.640  16.895 -1.0752  0.5021  0.4230
 2882TIP3   OH232840   5.521   6.707  14.971  0.3460 -0.7720  0.0575
 2882TIP3    H132841   5.612   6.678  14.965  0.9051  1.0539 -0.9071
 2882TIP3    H232842   5.520   6.765  15.047  0.0828 -0.4237 -0.2150
 2883TIP3   OH232843   1.830   3.787  16.943  0.1668 -0.4289  0.6591
 2883TIP3    H132844   1.794   3.796  17.031  0.1989  0.0294  0.6312
 2883TIP3    H232845   1.923   3.768  16.958  0.3521  0.4660  0.7327
 2884TIP3   OH232846   5.290   1.476  14.440 -0.1507  0.3056 -0.2586
 2884TIP3    H132847   5.284   1.391  14.484  0.3899  1.1483  1.5305
 2884TIP3    H232848   5.370   1.515  14.475  0.0898  1.2063 -1.7252
 2885TIP3   OH232849   5.989   5.948  14.785 -0.0869  1.0890 -0.7227
 2885TIP3    H132850   6.085   5.946  14.792 -0.0338  2.8889 -0.4930
 2885TIP3    H232851   5.968   5.871  14.733  1.3768 -0.0214  0.2137
 2886TIP3   OH232852   2.080   0.930  17.597  0.0784 -0.1875 -0.0583
 2886TIP3    H132853   2.006   0.961  17.650  1.6882  1.7935  1.1953
 2886TIP3    H232854   2.087   0.995  17.527  1.0888  0.1077  0.3026
 2887TIP3   OH232855   3.514   5.204  18.140  0.0091  0.6245  0.5710
 2887TIP3    H132856   3.463   5.155  18.075  1.6411 -0.9137  0.3924
 2887TIP3    H232857   3.487   5.295  18.127 -1.2640  0.0931 -0.8024
 2888TIP3   OH232858   0.507   2.779  16.262 -0.2243  0.3564  0.3011
 2888TIP3    H132859   0.489   2.871  16.244 -2.5286 -0.0960 -0.0609
 2888TIP3    H232860   0.481   2.734  16.182  1.4142 -0.6008  0.2612
 2889TIP3   OH232861   2.556   0.022  15.412 -0.0530 -0.1594 -0.1820
 2889TIP3    H132862   2.513   0.015  15.498 -0.6606  1.7464 -0.2867
 2889TIP3    H232863   2.509  -0.040  15.356 -1.8891  0.9753  0.0335
 2890TIP3   OH232864   3.832   3.283  15.619  0.7763 -0.6607 -0.4966
 2890TIP3    H132865   3.922   3.308  15.642  0.6598 -0.7619  0.0737
 2890TIP3    H232866   3.793   3.256  15.702  0.3624 -1.0705 -0.8246
 2891TIP3   OH232867   4.374   0.213  16.337  0.2389  0.5102  0.7796
 2891TIP3    H132868   4.422   0.219  16.419  0.5540  0.0291  0.6344
 2891TIP3    H232869   4.441   0.194  16.271  0.0845  1.4864  0.3085
 2892TIP3   OH232870   4.095   1.452  15.484  0.2342 -0.4467  0.0237
 2892TIP3    H132871   4.168   1.515  15.478 -0.7681  0.6410 -3.4882
 2892TIP3    H232872   4.088   1.431  15.577  1.6292  3.4894  1.2003
 2893TIP3   OH232873   2.601   6.522  17.264  0.5543 -0.2081 -0.4261
 2893TIP3    H132874   2.645   6.594  17.219  0.2658  0.5962  0.5303
 2893TIP3    H232875   2.642   6.443  17.230 -0.2834  0.2830 -2.7790
 2894TIP3   OH232876   1.998   3.580  17.785 -0.2868  0.4427 -0.0534
 2894TIP3    H132877   2.000   3.596  17.879  0.9574  0.4777 -0.0657
 2894TIP3    H232878   2.090   3.580  17.759 -0.6133  0.4747 -1.2786
 2895TIP3   OH232879   5.445   3.572  15.294  0.0960 -0.2617  0.1358
 2895TIP3    H132880   5.427   3.666  15.289 -1.2737 -0.3628  1.9888
 2895TIP3    H232881   5.513   3.565  15.362 -0.1687 -0.6488  0.3580
 2896TIP3   OH232882   2.697   1.224  15.305  0.0491  0.0064  0.2191
 2896TIP3    H132883   2.735   1.159  15.245  0.3306 -0.4728  0.9108
 2896TIP3    H232884   2.761   1.295  15.308 -0.8440  0.9630 -1.5714
 2897TIP3   OH232885   6.600   5.468  15.321  0.6637 -0.2017  0.2949
 2897TIP3    H132886   6.634   5.453  15.233 -1.3494 -0.0319 -0.5661
 2897TIP3    H232887   6.643   5.548  15.351  1.2548 -0.1776 -0.5872
 2898TIP3   OH232888   3.912   5.429  16.903  0.2100  0.3465 -0.2413
 2898TIP3    H132889   3.913   5.473  16.988  0.5905  1.5890 -0.8709
 2898TIP3    H232890   3.836   5.370  16.907 -0.2659  1.0057  0.6516
 2899TIP3   OH232891   3.052   2.933  16.964 -0.3340  0.2008 -0.3432
 2899TIP3    H132892   2.959   2.950  16.945 -0.1548  0.1940 -1.3083
 2899TIP3    H232893   3.071   2.989  17.039 -0.9338  0.7960 -0.6125
 2900TIP3   OH232894   2.599   5.511  16.386 -0.0759  0.0638 -0.5495
 2900TIP3    H132895   2.535   5.470  16.445  0.1423  0.5900  0.0645
 2900TIP3    H232896   2.635   5.583  16.437  1.3757 -0.5292 -0.6970
 2901TIP3   OH232897   5.604   0.994  16.667  0.5674  0.2478 -0.3865
 2901TIP3    H132898   5.694   0.961  16.664 -0.5241 -3.7638  2.2997
 2901TIP3    H232899   5.559   0.946  16.597  0.1309  0.7978 -0.4886
 2902TIP3   OH232900   4.147   5.080  16.815  0.0902 -1.0461 -0.1218
 2902TIP3    H132901   4.146   5.174  16.801 -1.5013 -0.8804  0.8662
 2902TIP3    H232902   4.172   5.043  16.730 -1.2374  0.1857 -1.0866
 2903TIP3   OH232903   0.611   4.960  17.386 -0.0786 -0.0279  0.2399
 2903TIP3    H132904   0.679   4.985  17.324 -0.4546  0.3360 -0.0310
 2903TIP3    H232905   0.655   4.961  17.471  0.1300  0.7459  0.1315
 2904TIP3   OH232906   4.349   4.717  17.481 -0.5494 -0.0684  0.4292
 2904TIP3    H132907   4.337   4.654  17.551  0.0023  0.5420  1.0781
 2904TIP3    H232908   4.401   4.787  17.519 -0.8677  0.6257 -0.3733
 2905TIP3   OH232909   4.844   1.042  17.463 -0.2762  0.3289 -0.3219
 2905TIP3    H132910   4.890   0.974  17.413 -0.2890  0.5410 -0.6227
 2905TIP3    H232911   4.913   1.103  17.489  0.4028 -1.5860  3.0330
 2906TIP3   OH232912   0.150   2.517  15.925  0.3262 -0.4975  0.0551
 2906TIP3    H132913   0.060   2.520  15.893  0.5618 -1.2804 -0.7152
 2906TIP3    H232914   0.189   2.599  15.894  0.2393 -0.7481 -0.7352
 2907TIP3   OH232915   0.120   1.835  16.492  0.3910  0.0110 -0.1801
 2907TIP3    H132916   0.065   1.759  16.512  1.4166 -1.1363 -1.5579
 2907TIP3    H232917   0.183   1.837  16.564  1.7818 -1.8784 -1.2622
 2908TIP3   OH232918   1.282   0.748  15.010  0.3675  0.1006  0.4120
 2908TIP3    H132919   1.228   0.799  14.949 -0.3614  0.0176  0.9783
 2908TIP3    H232920   1.349   0.708  14.954 -0.9208 -0.8600 -0.5312
 2909TIP3   OH232921   1.208   6.391  15.828 -0.2351  0.7778  0.1234
 2909TIP3    H132922   1.259   6.405  15.907 -1.8236  4.5362  0.6966
 2909TIP3    H232923   1.142   6.326  15.852  1.5763 -0.9466  0.6333
 2910TIP3   OH232924   4.301   4.697  16.187  0.9358 -0.5138 -0.1489
 2910TIP3    H132925   4.268   4.676  16.100  1.6912 -0.9453 -0.3391
 2910TIP3    H232926   4.356   4.774  16.173  1.6960 -1.0600 -0.1922
 2911TIP3   OH232927   5.211   6.432  17.204 -0.5777  0.3028 -0.0419
 2911TIP3    H132928   5.270   6.362  17.233  0.2868  1.4777  1.1170
 2911TIP3    H232929   5.165   6.394  17.129 -0.2201 -1.5440  0.6146
 2912TIP3   OH232930   3.819   3.659  17.126 -0.4455 -0.4854  0.1889
 2912TIP3    H132931   3.893   3.627  17.074 -0.8638  0.9548 -1.4151
 2912TIP3    H232932   3.846   3.747  17.153 -1.3734 -0.1096 -0.0623
 2913TIP3   OH232933   3.954   4.515  15.389 -0.4100 -0.1321  0.0359
 2913TIP3    H132934   3.959   4.605  15.356  1.8339  0.2912  1.3213
 2913TIP3    H232935   3.929   4.525  15.481 -0.7598 -0.8820  0.0307
 2914TIP3   OH232936   3.028   1.703  17.786  0.4834 -0.9091 -0.2398
 2914TIP3    H132937   3.105   1.689  17.731  1.6370 -1.2271  1.4104
 2914TIP3    H232938   3.018   1.798  17.789  1.0342 -0.8486 -0.1749
 2915TIP3   OH232939   1.582   5.288  14.859  0.5517 -0.1008  0.1221
 2915TIP3    H132940   1.584   5.213  14.918  0.2148 -0.4128 -0.2512
 2915TIP3    H232941   1.497   5.281  14.815 -0.5629  1.8775  1.8355
 2916TIP3   OH232942   3.041   4.183  14.492  0.3930  0.0288  0.0363
 2916TIP3    H132943   3.130   4.152  14.473  0.7715  1.4766 -0.7250
 2916TIP3    H232944   3.047   4.278  14.481 -1.0337  0.2375  0.9234
 2917TIP3   OH232945   2.800   1.281  17.775  0.1488  0.1252 -0.0279
 2917TIP3    H132946   2.705   1.279  17.766  0.2118 -1.4109 -0.7684
 2917TIP3    H232947   2.832   1.295  17.686  0.6275  0.8080  0.2406
 2918TIP3   OH232948   6.100   5.344  15.952 -0.1387 -0.0046  0.2774
 2918TIP3    H132949   6.083   5.426  15.907  0.4587 -0.3695 -0.6374
 2918TIP3    H232950   6.083   5.363  16.045  1.0835  1.4631  0.2353
 2919TIP3   OH232951   4.681   5.723  16.332  0.1815 -0.5611  0.0962
 2919TIP3    H132952   4.589   5.696  16.333  0.0389 -0.1953 -1.2043
 2919TIP3    H232953   4.729   5.641  16.337 -0.2277 -0.7995  0.1878
 2920TIP3   OH232954   2.880   5.980  17.933  0.4590 -0.0121 -0.1511
 2920TIP3    H132955   2.944   6.050  17.939  1.1172 -0.5921 -0.2216
 2920TIP3    H232956   2.802   6.015  17.976  0.5468  0.9952 -0.7836
 2921TIP3   OH232957   6.065   0.753  17.749 -0.2634 -0.3087  0.4107
 2921TIP3    H132958   6.097   0.698  17.678 -0.4009 -1.3080  1.0985
 2921TIP3    H232959   6.144   0.779  17.796 -0.0413  1.4729 -0.8538
 2922TIP3   OH232960   5.982   2.180  17.442 -0.8516  0.7975  0.0374
 2922TIP3    H132961   6.014   2.268  17.462  0.1510  0.4961 -0.1597
 2922TIP3    H232962   6.050   2.122  17.476 -1.2972  0.1158 -0.2151
 2923TIP3   OH232963   4.402   0.501  14.752  0.0908  0.5591 -0.2471
 2923TIP3    H132964   4.320   0.542  14.723 -1.2556 -1.3751  0.6162
 2923TIP3    H232965   4.437   0.459  14.673 -0.9633 -0.5115 -0.1715
 2924TIP3   OH232966   4.201   1.246  15.348 -0.3312 -0.7317 -0.0745
 2924TIP3    H132967   4.246   1.278  15.270 -1.2584 -1.1297 -0.7928
 2924TIP3    H232968   4.171   1.326  15.392 -1.0194 -0.5430 -0.8675
 2925TIP3   OH232969   6.044   1.050  16.230 -0.8194  0.4135 -0.2235
 2925TIP3    H132970   5.988   0.979  16.197 -0.7110 -0.6116  1.6526
 2925TIP3    H232971   5.984   1.107  16.279 -0.3711 -0.4247  1.3787
 2926TIP3   OH232972   6.048   2.130  15.424  0.0848 -0.3190  0.4241
 2926TIP3    H132973   6.123   2.188  15.411  0.5381 -1.3059 -1.7065
 2926TIP3    H232974   6.033   2.090  15.339 -2.4103 -0.7341  0.9850
 2927TIP3   OH232975   1.169   4.834  15.390 -0.5808  0.0154 -0.0014
 2927TIP3    H132976   1.226   4.878  15.327  2.3074 -0.4627  2.0352
 2927TIP3    H232977   1.139   4.903  15.448 -0.2182 -0.0008  0.2115
 2928TIP3   OH232978   0.714   1.531  16.459  0.1615 -0.2910 -0.0016
 2928TIP3    H132979   0.711   1.531  16.555  2.6527  0.3375  0.1574
 2928TIP3    H232980   0.754   1.615  16.437 -2.9662  0.9149 -1.8295
 2929TIP3   OH232981   4.950   3.302  15.295 -0.4437  0.3215 -0.2599
 2929TIP3    H132982   5.042   3.323  15.278 -0.3448 -0.6090 -0.9580
 2929TIP3    H232983   4.902   3.357  15.233 -0.4367  1.5842  0.8165
 2930TIP3   OH232984   0.405   2.859  15.612 -0.3010 -0.0551  0.1465
 2930TIP3    H132985   0.497   2.876  15.632 -0.3310 -0.0658  0.2980
 2930TIP3    H232986   0.405   2.775  15.566 -0.2801 -0.2876  0.5675
 2931TIP3   OH232987   6.284   0.381  16.983  0.3776  0.0134 -0.6060
 2931TIP3    H132988   6.362   0.432  17.002 -0.5539  0.8515  1.2223
 2931TIP3    H232989   6.225   0.443  16.940  0.3817 -0.3699 -1.1740
 2932TIP3   OH232990   1.342   0.499  17.690  0.0041  0.0700  0.1314
 2932TIP3    H132991   1.381   0.566  17.633  2.4622 -0.6315  0.9005
 2932TIP3    H232992   1.320   0.427  17.630  1.1256 -0.0430 -0.1652
 2933TIP3   OH232993   3.261   1.102  17.442 -0.6670  0.7225  0.0858
 2933TIP3    H132994   3.308   1.045  17.503 -1.1227  0.7451  0.4549
 2933TIP3    H232995   3.284   1.067  17.355 -0.2930  0.4825  0.2782
 2934TIP3   OH232996   2.293   1.670  16.634  0.3333  0.2398 -0.1711
 2934TIP3    H132997   2.311   1.682  16.727  0.6508 -0.3317 -0.1553
 2934TIP3    H232998   2.304   1.758  16.596 -0.8484  0.6955  0.4885
 2935TIP3   OH232999   6.559   4.048  17.623 -0.2785  0.0530  0.4389
 2935TIP3    H133000   6.521   4.038  17.536 -0.9435 -1.0951  0.8350
 2935TIP3    H233001   6.645   4.007  17.617  0.6407  1.9814 -0.2562
 2936TIP3   OH233002   2.254   1.220  16.169  0.2503 -0.0172  0.2342
 2936TIP3    H133003   2.190   1.246  16.102 -0.0570  0.9724  0.8790
 2936TIP3    H233004   2.205   1.225  16.252  0.8212 -0.4899  0.6060
 2937TIP3   OH233005   0.358   0.724  14.853 -0.5060  0.2817 -0.7672
 2937TIP3    H133006   0.292   0.736  14.922  1.5952  0.9648  1.2566
 2937TIP3    H233007   0.315   0.668  14.789 -3.0486  0.7089  0.4136
 2938TIP3   OH233008   4.205   6.744  16.796 -0.3381 -0.2560 -0.6944
 2938TIP3    H133009   4.172   6.824  16.837  2.2435  1.0184 -0.9392
 2938TIP3    H233010   4.235   6.690  16.870 -0.6678 -0.3414 -0.6212
 2939TIP3   OH233011   1.970   3.907  16.031 -0.0140  0.1791 -0.2223
 2939TIP3    H133012   2.013   3.827  16.063  1.0488  0.9955  0.4617
 2939TIP3    H233013   1.996   3.975  16.094 -2.6957  0.6582  0.4863
 2940TIP3   OH233014   4.480   3.280  17.474  0.4123 -0.2174  0.6389
 2940TIP3    H133015   4.504   3.258  17.384  0.6677 -0.3796  0.7472
 2940TIP3    H233016   4.492   3.375  17.479  1.1705 -0.3176  0.7355
 2941TIP3   OH233017   0.558   1.040  15.126  0.4948 -0.2575 -0.4236
 2941TIP3    H133018   0.616   1.105  15.089 -0.4135  1.2426  0.6701
 2941TIP3    H233019   0.610   0.995  15.193  0.0762  2.1054  1.6292
 2942TIP3   OH233020   5.695   4.022  14.980 -0.3114 -0.2701  0.3906
 2942TIP3    H133021   5.655   4.015  14.894  2.3366 -0.2630 -0.9535
 2942TIP3    H233022   5.699   4.116  14.997 -1.9819 -0.3077  1.1603
 2943TIP3   OH233023   3.592   0.340  15.992 -0.3877 -0.2125  0.1433
 2943TIP3    H133024   3.684   0.351  16.012 -0.0194 -1.5113 -0.6982
 2943TIP3    H233025   3.566   0.424  15.953  0.4474  0.1416  0.3248
 2944TIP3   OH233026   0.863   6.558  16.880 -0.4407 -0.1729  0.0499
 2944TIP3    H133027   0.804   6.548  16.806 -0.2117 -1.7692  0.0492
 2944TIP3    H233028   0.879   6.468  16.911 -0.6132  0.4422  2.0914
 2945TIP3   OH233029   3.065   5.277  17.584  0.2542 -0.2177 -0.1951
 2945TIP3    H133030   3.075   5.182  17.594  1.8749 -0.0032  0.6755
 2945TIP3    H233031   3.070   5.292  17.490 -2.5237 -1.1789 -0.5971
 2946TIP3   OH233032   0.896   6.720  15.322  0.1452  0.6530 -0.2500
 2946TIP3    H133033   0.906   6.630  15.354  0.0956  0.5693 -0.4655
 2946TIP3    H233034   0.929   6.717  15.232  1.4014  1.1477  0.1705
 2947TIP3   OH233035   2.706   6.741  17.933 -0.2935  0.4190 -0.5623
 2947TIP3    H133036   2.623   6.766  17.892 -2.1912 -1.2794  1.8906
 2947TIP3    H233037   2.739   6.821  17.972 -0.5493  1.1980 -1.8724
 2948TIP3   OH233038   4.825   2.071  14.630  0.1469 -0.1763  0.4282
 2948TIP3    H133039   4.733   2.062  14.606  0.3695  0.1419 -0.5900
 2948TIP3    H233040   4.824   2.117  14.714 -0.5957  1.0281 -0.2202
 2949TIP3   OH233041   2.903   0.519  17.724 -0.3549 -0.2213  0.7085
 2949TIP3    H133042   2.983   0.494  17.678  0.2342  0.9087  1.0969
 2949TIP3    H233043   2.895   0.455  17.795  0.4619 -0.0517  0.9550
 2950TIP3   OH233044   5.023   1.152  17.258 -0.0098 -0.6125  0.2776
 2950TIP3    H133045   4.939   1.167  17.216  0.5991 -1.1516 -1.2052
 2950TIP3    H233046   5.047   1.063  17.234  0.4722 -0.8745  1.6293
 2951TIP3   OH233047   1.647   4.901  17.734 -0.4334  0.1888  0.0239
 2951TIP3    H133048   1.691   4.892  17.819 -0.4551  1.6036  0.2220
 2951TIP3    H233049   1.554   4.910  17.756 -0.3344  1.6909 -0.0154
 2952TIP3   OH233050   3.345   4.185  15.162  0.1770  0.5965  0.6051
 2952TIP3    H133051   3.278   4.246  15.192 -0.4352 -0.6117  1.7889
 2952TIP3    H233052   3.319   4.101  15.198  1.4563 -0.2171 -0.2850
 2953TIP3   OH233053   0.057   5.359  15.667  0.2158  0.0378  0.2590
 2953TIP3    H133054  -0.014   5.308  15.706 -0.0635  0.5573  0.4434
 2953TIP3    H233055   0.013   5.421  15.609  0.3060  1.8734  2.0478
 2954TIP3   OH233056   1.048   1.937  14.871 -0.6597  0.1568  0.0267
 2954TIP3    H133057   1.140   1.934  14.847 -0.6887  0.0017 -0.0667
 2954TIP3    H233058   1.002   1.957  14.790 -1.0568 -3.5379 -0.8678
 2955TIP3   OH233059   3.179   5.741  17.110  0.1173  0.6286 -0.5019
 2955TIP3    H133060   3.217   5.663  17.070 -0.8317  0.1649 -0.5517
 2955TIP3    H233061   3.099   5.708  17.153 -0.0161  1.4853 -0.0720
 2956TIP3   OH233062   6.250   3.732  16.901 -0.0689  0.0193  0.2322
 2956TIP3    H133063   6.203   3.675  16.840  3.4224 -2.6877 -0.2445
 2956TIP3    H233064   6.286   3.672  16.967  3.1340  1.6784  0.1829
 2957TIP3   OH233065   4.209   5.821  16.553 -0.2627 -0.4198  0.0016
 2957TIP3    H133066   4.155   5.773  16.491  1.1204 -1.9819 -0.0562
 2957TIP3    H233067   4.181   5.790  16.639 -0.6205  0.0653  0.0670
 2958TIP3   OH233068   1.541   4.956  16.806 -0.5311  0.2238 -0.0295
 2958TIP3    H133069   1.569   4.878  16.853 -0.8982  0.3444  0.3938
 2958TIP3    H233070   1.609   4.970  16.740 -0.7979 -0.8463 -0.5602
 2959TIP3   OH233071   2.329   2.532  17.570  0.5425  0.4306 -0.3211
 2959TIP3    H133072   2.236   2.522  17.549  0.9930 -1.3181 -1.7164
 2959TIP3    H233073   2.351   2.619  17.536 -1.1091  2.0918  2.4498
 2960TIP3   OH233074   5.181   6.030  16.139 -0.4942 -0.3182 -0.1341
 2960TIP3    H133075   5.214   6.103  16.086  1.3126 -2.0613 -1.5871
 2960TIP3    H233076   5.250   6.016  16.205  0.4935 -2.2409 -1.4660
 2961TIP3   OH233077   2.131   6.099  17.132  0.6421  0.4364  0.1936
 2961TIP3    H133078   2.153   6.122  17.222 -0.7676  2.9581 -0.0023
 2961TIP3    H233079   2.203   6.043  17.103  1.7202  0.5130  2.4987
 2962TIP3   OH233080   0.761   2.047  15.819  0.0612 -0.3656  0.2199
 2962TIP3    H133081   0.808   2.096  15.752 -0.9708 -0.9120 -0.9532
 2962TIP3    H233082   0.797   2.078  15.902  1.8607 -0.1645 -0.5927
 2963TIP3   OH233083   1.419   6.216  14.771 -0.1130  0.0191 -0.2342
 2963TIP3    H133084   1.352   6.155  14.738 -0.7681 -0.2614  1.4938
 2963TIP3    H233085   1.494   6.160  14.792 -0.4332 -0.1234  0.6071
 2964TIP3   OH233086   4.042   4.263  15.484 -0.2550  0.0112  0.1793
 2964TIP3    H133087   4.027   4.343  15.434  1.5952 -0.0241 -0.4983
 2964TIP3    H233088   4.014   4.193  15.426  0.3279  0.0596 -0.1689
 2965TIP3   OH233089   0.735   2.564  17.648 -0.3809 -0.2758  0.4814
 2965TIP3    H133090   0.747   2.657  17.664 -0.1928  0.4857 -3.1449
 2965TIP3    H233091   0.663   2.538  17.707 -0.2701  2.0530  1.7437
 2966TIP3   OH233092   0.892   4.403  15.515 -0.0794 -0.2074 -0.5671
 2966TIP3    H133093   0.933   4.333  15.465  0.0272 -2.9528  2.9367
 2966TIP3    H233094   0.799   4.379  15.518  0.1501 -1.0494  1.7105
 2967TIP3   OH233095   1.598   0.408  17.421 -0.1812 -0.1699 -0.5273
 2967TIP3    H133096   1.533   0.461  17.467  0.4359 -0.1199  0.2988
 2967TIP3    H233097   1.658   0.379  17.489  0.6550 -0.2403 -1.2778
 2968TIP3   OH233098   4.533   5.543  14.734 -0.1474 -0.1974 -0.3489
 2968TIP3    H133099   4.618   5.580  14.709 -0.6537 -0.0205 -1.9295
 2968TIP3    H233100   4.492   5.520  14.651 -1.5874 -0.4286  0.3988
 2969TIP3   OH233101   0.732   2.212  16.817  0.7257  0.1007  0.7526
 2969TIP3    H133102   0.643   2.177  16.827  0.9239 -0.0859  2.0516
 2969TIP3    H233103   0.749   2.207  16.723 -0.5727 -0.0109  0.4966
 2970TIP3   OH233104   3.872   0.173  15.074 -0.7284 -0.2916  0.3902
 2970TIP3    H133105   3.875   0.217  15.159  1.8677  0.1664  0.1609
 2970TIP3    H233106   3.895   0.241  15.011 -1.4576 -0.9009 -0.5640
 2971TIP3   OH233107   4.797   6.582  17.477 -0.1546  0.5370 -0.2010
 2971TIP3    H133108   4.878   6.631  17.466 -0.0211  0.4926  0.4937
 2971TIP3    H233109   4.730   6.650  17.488  0.0403  0.5774  0.8285
 2972TIP3   OH233110   2.096   5.214  17.367  0.0710 -0.2799  0.5194
 2972TIP3    H133111   2.002   5.226  17.377 -0.4165 -1.6971 -1.5924
 2972TIP3    H233112   2.132   5.303  17.371 -1.5111  0.4186  0.1493
 2973TIP3   OH233113   3.935   0.816  17.960 -0.0598  0.5175  0.2051
 2973TIP3    H133114   3.876   0.787  18.030 -0.1027  3.4263  1.4938
 2973TIP3    H233115   3.877   0.837  17.887 -0.1530 -0.9628 -0.1830
 2974TIP3   OH233116   2.899   3.622  16.555  0.0381 -0.3629  0.9186
 2974TIP3    H133117   2.861   3.686  16.496 -1.0527 -0.9643  0.9432
 2974TIP3    H233118   2.878   3.654  16.643 -0.6944 -0.8459  0.9287
 2975TIP3   OH233119   5.178   6.329  16.503  0.0139 -0.0493  0.2150
 2975TIP3    H133120   5.170   6.350  16.410 -2.8154  1.9575  0.7481
 2975TIP3    H233121   5.115   6.258  16.517 -0.8024  0.7583  0.8052
 2976TIP3   OH233122   3.144   1.560  14.795 -0.1564 -0.5463 -0.4382
 2976TIP3    H133123   3.084   1.568  14.721  0.5655 -2.0428 -1.2463
 2976TIP3    H233124   3.212   1.500  14.764  0.1453 -1.2607  1.4491
 2977TIP3   OH233125   4.538   0.141  16.848 -0.4146  0.1619 -0.0321
 2977TIP3    H133126   4.504   0.208  16.906 -0.0880  0.0332  0.3176
 2977TIP3    H233127   4.628   0.126  16.879  0.0466  0.6550 -1.0666
 2978TIP3   OH233128   3.172   6.459  15.433  0.0163 -0.0624 -0.0599
 2978TIP3    H133129   3.124   6.442  15.514 -0.3221 -0.8286 -0.4049
 2978TIP3    H233130   3.252   6.406  15.441 -0.8960 -1.6681 -1.0102
 2979TIP3   OH233131   4.376   5.577  16.172  0.0503 -0.2054 -0.2496
 2979TIP3    H133132   4.399   5.603  16.261 -0.2776 -0.5361 -0.0611
 2979TIP3    H233133   4.306   5.513  16.184 -1.9169  1.7158 -0.8194
 2980TIP3   OH233134   1.487   5.389  15.729 -0.2315  0.0354 -0.1425
 2980TIP3    H133135   1.524   5.303  15.711  1.1217  0.0846  2.0697
 2980TIP3    H233136   1.557   5.451  15.707 -1.4191  0.6947 -2.3668
 2981TIP3   OH233137   2.635   6.537  16.476  0.4945 -0.6072  0.1611
 2981TIP3    H133138   2.719   6.578  16.497  0.0763 -0.0697  0.8446
 2981TIP3    H233139   2.571   6.592  16.521  0.0037 -2.7118  2.1735
 2982TIP3   OH233140   3.359   5.045  16.159 -0.1983  0.3943 -0.2141
 2982TIP3    H133141   3.343   5.127  16.206  0.3850  0.7515 -0.6126
 2982TIP3    H233142   3.418   5.070  16.087 -0.4878 -0.2672 -0.6960
 2983TIP3   OH233143   3.322   0.025  15.195  0.3557 -0.3440  0.7131
 2983TIP3    H133144   3.341   0.114  15.223 -0.4165  0.4666 -1.1485
 2983TIP3    H233145   3.261  -0.009  15.260 -0.3775  0.9637  0.7283
 2984TIP3   OH233146   0.396   0.313  16.795  0.0610 -0.3421  0.4417
 2984TIP3    H133147   0.389   0.391  16.741  2.5845 -0.9518 -0.9279
 2984TIP3    H233148   0.459   0.336  16.863  1.6418 -1.4109 -0.5844
 2985TIP3   OH233149   0.716   0.374  16.517 -0.1918  0.2836 -0.1965
 2985TIP3    H133150   0.718   0.283  16.546 -0.3810  0.4121  0.2386
 2985TIP3    H233151   0.678   0.371  16.429 -1.3991  0.0523  0.3069
 2986TIP3   OH233152   5.484   1.881  17.130  0.3223 -0.5431 -0.2000
 2986TIP3    H133153   5.411   1.888  17.069 -0.0710  1.5625  0.4339
 2986TIP3    H233154   5.517   1.971  17.139  0.8991 -0.9107  2.0193
 2987TIP3   OH233155   5.614   4.967  14.678  0.0901 -0.6998 -0.9342
 2987TIP3    H133156   5.570   4.901  14.625 -0.8595 -0.2699 -0.6868
 2987TIP3    H233157   5.652   5.028  14.615  0.3036 -1.0464 -1.1433
 2988TIP3   OH233158   5.008   2.293  15.701  0.2875  0.5986  0.2901
 2988TIP3    H133159   5.058   2.224  15.745 -0.3118 -0.3067 -0.3964
 2988TIP3    H233160   4.917   2.277  15.729  0.1376  1.0793  0.0830
 2989TIP3   OH233161   4.599   6.723  15.635 -0.3600 -0.0942  0.5696
 2989TIP3    H133162   4.568   6.806  15.671  1.1068  1.3503 -1.2668
 2989TIP3    H233163   4.579   6.658  15.703 -2.4739  1.5473  1.6542
 2990TIP3   OH233164   2.422   1.145  15.977 -0.6542 -0.2453 -0.4375
 2990TIP3    H133165   2.425   1.230  15.933  2.2753 -1.1808 -2.3232
 2990TIP3    H233166   2.377   1.163  16.060  0.4676  3.3156 -0.4354
 2991TIP3   OH233167   5.965   3.609  16.751  0.0160  0.3894  0.7136
 2991TIP3    H133168   6.018   3.652  16.684  1.3374 -2.6661 -0.4049
 2991TIP3    H233169   5.897   3.562  16.702 -1.3815  1.1083  1.8668
 2992TIP3   OH233170   5.948   3.501  17.203 -0.1117  0.1984  0.3954
 2992TIP3    H133171   6.025   3.475  17.254  0.3608 -1.5906 -1.1170
 2992TIP3    H233172   5.940   3.434  17.135 -2.0977  1.1991 -0.4593
 2993TIP3   OH233173   6.416   3.689  18.009  0.8758  0.3777 -0.3076
 2993TIP3    H133174   6.362   3.739  17.948  0.9444  2.0160  0.8957
 2993TIP3    H233175   6.354   3.635  18.058  0.6858  0.0145 -0.9419
 2994TIP3   OH233176   6.728   5.333  17.085 -0.1166  0.1860  0.2312
 2994TIP3    H133177   6.804   5.284  17.116 -1.0267  0.2522  2.7698
 2994TIP3    H233178   6.758   5.375  17.004  1.9185 -1.2983  0.1434
 2995TIP3   OH233179   1.912   1.323  17.335  0.5453  0.0308  0.1426
 2995TIP3    H133180   1.882   1.398  17.283  1.9056 -0.1417 -0.9569
 2995TIP3    H233181   1.923   1.253  17.271  1.6302 -0.3758  0.7437
 2996TIP3   OH233182   6.255   2.686  18.118 -0.1608 -0.3949 -0.8833
 2996TIP3    H133183   6.305   2.632  18.057 -0.9468 -1.4733 -0.5960
 2996TIP3    H233184   6.320   2.743  18.159  0.6647 -1.0462 -1.2745
 2997TIP3   OH233185   6.749   0.494  16.033 -0.2257  0.2255  0.4890
 2997TIP3    H133186   6.672   0.550  16.022 -0.2010  0.1601 -0.0742
 2997TIP3    H233187   6.786   0.520  16.117 -0.3030  0.9528  0.3091
 2998TIP3   OH233188   4.463   2.670  17.227 -0.5812  0.4059  0.5808
 2998TIP3    H133189   4.368   2.680  17.215 -0.2639  0.8618 -2.3751
 2998TIP3    H233190   4.500   2.691  17.141  2.0219 -2.4830  0.8467
 2999TIP3   OH233191   5.672   2.956  15.542  0.1980  0.2695  0.0255
 2999TIP3    H133192   5.578   2.962  15.560 -0.1195 -0.1503 -1.3699
 2999TIP3    H233193   5.678   2.956  15.446  1.5800 -0.3221  0.0902
 3000TIP3   OH233194   1.029   5.291  16.615  0.3934  0.1444  0.4277
 3000TIP3    H133195   0.978   5.364  16.650  0.0103 -0.5782  1.4351
 3000TIP3    H233196   1.002   5.283  16.524  1.5706  2.2261 -0.1726
 3001TIP3   OH233197   3.388   1.036  16.592  0.2296 -0.3748 -0.0446
 3001TIP3    H133198   3.339   1.066  16.516  0.0784  0.4902  0.3768
 3001TIP3    H233199   3.452   0.974  16.557  0.4837  0.3748 -0.9437
 3002TIP3   OH233200   0.473   2.012  15.109 -0.7013 -0.3022 -0.4276
 3002TIP3    H133201   0.464   2.088  15.166 -1.9938 -0.7096 -0.0578
 3002TIP3    H233202   0.484   1.938  15.170  2.4210 -0.2708 -0.7772
 3003TIP3   OH233203   2.833   2.850  16.045  0.1571  0.2513 -0.1410
 3003TIP3    H133204   2.769   2.914  16.079  0.9530  0.7219  0.5224
 3003TIP3    H233205   2.852   2.880  15.956  0.1326  0.6460 -0.0174
 3004TIP3   OH233206   1.309   0.038  15.256  0.2154 -0.7247 -0.2440
 3004TIP3    H133207   1.226   0.077  15.230  0.1381 -0.9183 -0.2911
 3004TIP3    H233208   1.374   0.106  15.240 -0.1275  0.0071  1.2849
 3005TIP3   OH233209   1.333   1.234  17.169  0.4640 -0.0248  0.2724
 3005TIP3    H133210   1.246   1.230  17.209  0.2825  1.2709  0.0567
 3005TIP3    H233211   1.356   1.327  17.170  2.0515 -0.3836  0.7458
 3006TIP3   OH233212   2.862   0.539  14.513 -0.3521 -0.1926  0.4845
 3006TIP3    H133213   2.941   0.506  14.470 -0.9332 -2.0811  0.8092
 3006TIP3    H233214   2.894   0.601  14.578  1.0614 -2.3248  1.9348
 3007TIP3   OH233215   2.057   1.060  15.441  0.0984 -0.2851 -0.0079
 3007TIP3    H133216   2.090   1.098  15.523 -0.5286  1.2078 -0.4255
 3007TIP3    H233217   1.975   1.017  15.466  0.9045 -1.5863  0.5018
 3008TIP3   OH233218   2.373   0.259  15.475 -0.0319 -0.4061  0.8710
 3008TIP3    H133219   2.407   0.172  15.452  2.6932  0.9746 -0.8731
 3008TIP3    H233220   2.427   0.288  15.548  2.0186  1.3807 -1.2148
 3009TIP3   OH233221   6.438   5.206  16.897 -0.3119  0.0127  0.7876
 3009TIP3    H133222   6.408   5.160  16.975  0.4419 -0.7707  0.6338
 3009TIP3    H233223   6.532   5.187  16.892 -0.5787 -1.1166 -1.0525
 3010TIP3   OH233224   4.818   5.344  16.989 -0.0900  0.1112  0.2203
 3010TIP3    H133225   4.726   5.366  16.976  0.7749  4.1740 -0.2417
 3010TIP3    H233226   4.827   5.335  17.084 -0.9304 -0.5143  0.2586
 3011TIP3   OH233227   3.781   1.007  17.059  0.0582 -0.2755 -0.2037
 3011TIP3    H133228   3.751   0.948  16.990 -0.4563  1.4772 -1.5740
 3011TIP3    H233229   3.701   1.046  17.094  0.4222  0.2173  0.0874
 3012TIP3   OH233230   5.812   1.504  16.023  0.1131  0.5045  0.2392
 3012TIP3    H133231   5.897   1.545  16.009  0.6169 -0.8115 -0.7863
 3012TIP3    H233232   5.790   1.524  16.114  1.7035  0.5595  0.6293
 3013TIP3   OH233233   5.433   5.828  16.148 -0.0126 -0.2789  0.3034
 3013TIP3    H133234   5.499   5.771  16.186  0.3117 -0.4010 -0.4198
 3013TIP3    H233235   5.446   5.913  16.190  0.0285 -0.5309  0.7986
 3014TIP3   OH233236   1.707   3.927  15.851 -0.2445 -0.1938  0.2456
 3014TIP3    H133237   1.788   3.913  15.901  0.0602  1.4576  0.2816
 3014TIP3    H233238   1.695   4.022  15.852 -2.3429 -0.4206  0.4743
 3015TIP3   OH233239   6.477   0.652  15.155 -0.1682  0.1436  0.0793
 3015TIP3    H133240   6.469   0.675  15.248 -0.5158  0.8697 -0.1219
 3015TIP3    H233241   6.568   0.625  15.145 -0.5816 -1.7107  1.0082
 3016TIP3   OH233242   2.730   6.493  16.924  0.3992 -0.6613  0.3836
 3016TIP3    H133243   2.791   6.543  16.871 -0.5499  0.1157 -0.0175
 3016TIP3    H233244   2.687   6.558  16.980 -0.0492 -1.1821  0.6606
 3017TIP3   OH233245   1.952   2.576  17.976  0.2647 -0.1777 -0.4894
 3017TIP3    H133246   2.038   2.619  17.981  0.1162  0.1130 -0.3999
 3017TIP3    H233247   1.970   2.489  17.940  0.6775 -0.3409  0.1042
 3018TIP3   OH233248   3.989   4.126  17.859  0.9798 -0.1894  0.0664
 3018TIP3    H133249   4.014   4.035  17.843 -0.3507 -0.7728  1.0998
 3018TIP3    H233250   3.897   4.121  17.887  0.7704  1.5079 -0.2301
 3019TIP3   OH233251   6.083   5.419  16.716  0.1823  0.0383  0.1236
 3019TIP3    H133252   6.017   5.367  16.763 -0.2825 -1.0227 -1.6170
 3019TIP3    H233253   6.107   5.488  16.778 -1.4548 -0.4293  1.3660
 3020TIP3   OH233254   0.196   5.250  16.397  0.1156  0.5096 -0.0191
 3020TIP3    H133255   0.189   5.285  16.309  1.0719  1.2362  0.1703
 3020TIP3    H233256   0.107   5.252  16.432 -0.0381  1.5961 -0.4547
 3021TIP3   OH233257   4.967   0.487  16.616  0.2119  0.2472 -0.0444
 3021TIP3    H133258   4.921   0.568  16.638  0.4187  0.3376  0.0619
 3021TIP3    H233259   5.006   0.505  16.530  0.6506  0.4280  0.1921
 3022TIP3   OH233260   1.499   3.513  16.927  0.2130  0.1264 -0.1142
 3022TIP3    H133261   1.487   3.442  16.990  1.2496 -2.0785 -2.2197
 3022TIP3    H233262   1.411   3.546  16.911 -0.3983 -1.1984  0.3756
 3023TIP3   OH233263   2.615   0.564  17.912 -0.2687 -0.4398  0.6044
 3023TIP3    H133264   2.561   0.641  17.896  0.1142  0.0307  1.5554
 3023TIP3    H233265   2.704   0.593  17.893 -0.0370 -0.4328  1.6409
 3024TIP3   OH233266   0.073   1.905  16.020  0.0169  0.1932 -0.4352
 3024TIP3    H133267   0.082   1.811  16.006  0.7027  0.3554 -1.1167
 3024TIP3    H233268   0.148   1.929  16.073 -0.1996  0.3455 -0.1953
 3025TIP3   OH233269   2.656   1.866  15.613  0.3116 -0.2897  0.1123
 3025TIP3    H133270   2.629   1.899  15.528  0.8350  0.6561  0.3030
 3025TIP3    H233271   2.677   1.945  15.664  0.2004 -0.8464  1.0485
 3026TIP3   OH233272   5.596   2.951  17.416 -0.3823 -0.4663 -0.2370
 3026TIP3    H133273   5.682   2.984  17.442 -1.0584  0.0878  1.3783
 3026TIP3    H233274   5.569   3.008  17.344  0.1623  0.0064 -0.0662
 3027TIP3   OH233275   0.782   1.106  16.031 -0.4682 -0.3906 -0.0561
 3027TIP3    H133276   0.857   1.049  16.046 -1.2779 -1.4822 -0.0491
 3027TIP3    H233277   0.708   1.060  16.070 -1.1923  0.5368 -0.2969
 3028TIP3   OH233278   4.549   6.371  15.047 -0.4693 -0.5856  0.5971
 3028TIP3    H133279   4.622   6.313  15.026  1.1642  1.2818  0.8781
 3028TIP3    H233280   4.515   6.400  14.962  1.2404  1.0420  0.4161
 3029TIP3   OH233281   1.105   2.536  17.183  0.0082 -0.0751  0.0982
 3029TIP3    H133282   1.200   2.534  17.176 -0.0991 -1.2612 -2.1429
 3029TIP3    H233283   1.083   2.629  17.187  1.2519  0.2087  0.8345
 3030TIP3   OH233284   5.252   2.521  16.343  0.1110  0.4565 -0.1104
 3030TIP3    H133285   5.179   2.551  16.289 -1.9930 -0.9000  1.7551
 3030TIP3    H233286   5.228   2.548  16.432  1.8463 -0.1717  0.5892
 3031TIP3   OH233287   1.157   2.084  15.777 -0.1109 -0.2013  1.0235
 3031TIP3    H133288   1.122   2.030  15.706 -1.4629 -0.2157  1.6691
 3031TIP3    H233289   1.139   2.034  15.857  0.3244  0.3454  1.4736
 3032TIP3   OH233290   6.528   4.738  16.338 -0.2022  0.7601  0.6039
 3032TIP3    H133291   6.616   4.774  16.327  0.0310  0.6061  1.8102
 3032TIP3    H233292   6.533   4.651  16.297  0.3565  0.5550  1.0913
 3033TIP3   OH233293   0.225   2.982  16.016 -0.1989 -0.4886  0.4841
 3033TIP3    H133294   0.159   2.997  16.084  0.0456 -0.4785  0.7200
 3033TIP3    H233295   0.183   3.011  15.935 -0.8059 -1.2725  0.4977
 3034TIP3   OH233296   5.093   3.258  15.555  0.3914  0.1176 -0.5998
 3034TIP3    H133297   5.045   3.218  15.627 -0.4795  0.5919 -0.9092
 3034TIP3    H233298   5.039   3.244  15.478  0.7214  0.6878 -0.9465
 3035TIP3   OH233299   4.484   0.870  16.375  0.1918  0.0945 -0.3040
 3035TIP3    H133300   4.571   0.846  16.408  0.0066  0.8347  0.7863
 3035TIP3    H233301   4.428   0.866  16.452 -1.4059 -3.1111 -1.4446
 3036TIP3   OH233302   6.701   5.105  15.654  0.3399 -0.1897 -0.1572
 3036TIP3    H133303   6.640   5.168  15.614  0.4421  0.6514  0.9621
 3036TIP3    H233304   6.655   5.021  15.650  0.0087  0.0345 -1.2650
 3037TIP3   OH233305   3.272   5.625  15.786  0.3670 -0.4785 -0.2372
 3037TIP3    H133306   3.194   5.618  15.730  1.0184 -1.9033 -1.0179
 3037TIP3    H233307   3.282   5.538  15.824  2.2151 -0.6699 -1.0482
 3038TIP3   OH233308   3.385   5.049  17.909  0.3370  0.6998 -0.5111
 3038TIP3    H133309   3.340   4.966  17.891  0.1133  0.8368 -0.5849
 3038TIP3    H233310   3.317   5.115  17.903  0.3469  0.8048  0.3788
 3039TIP3   OH233311   5.644   1.308  15.276 -0.1301 -0.6260  0.3983
 3039TIP3    H133312   5.628   1.379  15.338  2.2934 -2.0312  2.8440
 3039TIP3    H233313   5.622   1.229  15.324 -1.6674 -1.7078 -1.8681
 3040TIP3   OH233314   5.331   3.961  16.468 -0.1397  0.8060  0.2089
 3040TIP3    H133315   5.372   4.000  16.545 -1.7630  0.0605  1.5109
 3040TIP3    H233316   5.320   3.869  16.491 -2.4325  0.9558 -0.0677
 3041TIP3   OH233317   4.173   0.847  17.597 -0.6298  0.0016 -0.1159
 3041TIP3    H133318   4.116   0.923  17.588  0.3941  0.5919 -2.1822
 3041TIP3    H233319   4.253   0.881  17.635 -1.2894 -0.6751  1.9908
 3042TIP3   OH233320   4.534   6.653  14.924 -0.1579 -0.1074 -0.0226
 3042TIP3    H133321   4.466   6.692  14.869  0.0799 -1.1151 -1.0713
 3042TIP3    H233322   4.558   6.572  14.879  2.2234  0.5282 -0.0411
 3043TIP3   OH233323   6.457   4.613  17.161 -0.3990 -0.4191  0.3695
 3043TIP3    H133324   6.411   4.570  17.090 -1.1297  2.9460 -1.3768
 3043TIP3    H233325   6.549   4.609  17.136 -0.5441 -0.2173 -0.1985
 3044TIP3   OH233326   0.806   5.013  18.033  0.1059 -0.0865 -0.4340
 3044TIP3    H133327   0.743   5.040  17.966  0.5299 -0.3591 -0.9536
 3044TIP3    H233328   0.798   5.078  18.102 -0.5106  0.0646 -0.6464
 3045TIP3   OH233329   5.185   0.992  15.857  0.0526 -0.0586 -0.4318
 3045TIP3    H133330   5.169   1.071  15.908 -0.6350  0.3188 -1.2169
 3045TIP3    H233331   5.270   1.007  15.815  0.8204 -0.5407  0.8863
 3046TIP3   OH233332   6.115   3.123  16.092 -0.4561  0.1871 -0.2246
 3046TIP3    H133333   6.164   3.066  16.034 -0.0862 -0.2777  0.5322
 3046TIP3    H233334   6.149   3.211  16.075 -1.3844  0.2818 -1.7638
 3047TIP3   OH233335   6.626   5.911  15.091 -0.5524 -0.2270 -0.0609
 3047TIP3    H133336   6.625   5.888  14.998 -0.3729 -2.2096  0.3941
 3047TIP3    H233337   6.716   5.935  15.109 -0.7016  0.7281 -0.4988
 3048TIP3   OH233338   0.497   5.874  15.658  0.4609 -0.2810  0.0370
 3048TIP3    H133339   0.442   5.951  15.676 -1.3348 -1.5379  0.1659
 3048TIP3    H233340   0.570   5.883  15.719 -0.9272  0.1340  1.7379
 3049TIP3   OH233341   5.234   3.743  16.884  0.5665 -0.2083 -0.1166
 3049TIP3    H133342   5.239   3.728  16.978  2.2101 -0.0187 -0.1513
 3049TIP3    H233343   5.256   3.658  16.846  3.1065  0.4695 -0.3026
 3050TIP3   OH233344   4.630   4.807  15.252  0.3620  0.5707  0.4981
 3050TIP3    H133345   4.581   4.884  15.282 -1.4912 -0.2310 -0.2895
 3050TIP3    H233346   4.568   4.760  15.196  1.4456 -1.4836  0.9238
 3051TIP3   OH233347   1.393   2.562  16.621 -0.3484  0.8859 -0.4483
 3051TIP3    H133348   1.392   2.490  16.683 -0.2266  1.3091  0.0540
 3051TIP3    H233349   1.369   2.523  16.537 -0.1159  0.2363 -0.2137
 3052TIP3   OH233350   5.668   3.736  17.099  0.3501  0.0935 -0.4258
 3052TIP3    H133351   5.710   3.729  17.185 -2.5243 -0.5472  1.0683
 3052TIP3    H233352   5.618   3.655  17.091 -0.6933  0.8607 -1.9918
 3053TIP3   OH233353   3.525   4.715  15.520  0.0902 -0.0771  0.2565
 3053TIP3    H133354   3.595   4.781  15.522 -0.6616  0.7555 -0.4515
 3053TIP3    H233355   3.552   4.654  15.452  0.2625  0.0925  0.1711
 3054TIP3   OH233356   3.275   0.269  17.940 -0.1924  0.0130 -0.2492
 3054TIP3    H133357   3.290   0.363  17.929 -2.6829  0.4665 -0.5722
 3054TIP3    H233358   3.248   0.239  17.853  0.6479 -1.0368 -0.1673
 3055TIP3   OH233359   0.589   3.458  16.266  0.4952 -0.0392 -0.6006
 3055TIP3    H133360   0.669   3.410  16.288  0.2115 -1.0575 -1.6941
 3055TIP3    H233361   0.564   3.501  16.348  1.0467 -1.3351  0.2895
 3056TIP3   OH233362   6.318   3.937  16.406 -0.2993 -0.5503 -0.5384
 3056TIP3    H133363   6.337   3.849  16.439  0.6676 -0.2191 -0.1674
 3056TIP3    H233364   6.224   3.938  16.392 -0.1987 -1.9786 -1.5275
 3057TIP3   OH233365   2.942   4.319  14.756  0.2586  0.4700  0.1163
 3057TIP3    H133366   3.027   4.311  14.801  0.9223  0.8855 -1.0341
 3057TIP3    H233367   2.964   4.346  14.667 -0.9576 -1.3954 -0.8104
 3058TIP3   OH233368   2.114   5.577  16.101 -0.0601  0.1505  0.4533
 3058TIP3    H133369   2.038   5.554  16.046 -0.3223  0.3809  0.7171
 3058TIP3    H233370   2.110   5.672  16.109  0.7651  0.2539 -0.2573
 3059TIP3   OH233371   3.559   3.550  15.654  0.4290  0.6064  0.1160
 3059TIP3    H133372   3.601   3.495  15.588 -0.0105  0.5755 -0.1406
 3059TIP3    H233373   3.626   3.562  15.721  1.1594  1.3067 -0.7152
 3060TIP3   OH233374   1.331   4.263  17.114  0.0490 -0.5752  0.2848
 3060TIP3    H133375   1.251   4.301  17.152 -0.8718 -2.9355  0.8417
 3060TIP3    H233376   1.336   4.175  17.151  1.4332 -1.4732 -1.8544
 3061TIP3   OH233377   3.101   6.099  17.165  0.3575 -0.4588 -0.3415
 3061TIP3    H133378   3.063   6.084  17.079  0.2618 -2.1481 -0.0399
 3061TIP3    H233379   3.194   6.079  17.155  0.0838 -2.2685  0.2606
 3062TIP3   OH233380   4.584   1.885  16.666  0.0508  0.3509  0.1409
 3062TIP3    H133381   4.659   1.938  16.639  0.4010  0.2231  0.8439
 3062TIP3    H233382   4.577   1.901  16.760  0.0587 -0.7340  0.3312
 3063TIP3   OH233383   6.025   0.950  14.578 -0.3139  0.0340 -0.2506
 3063TIP3    H133384   6.113   0.947  14.541  0.2324  0.0953  1.0065
 3063TIP3    H233385   6.002   1.043  14.576 -0.0159  0.1177  0.1791
 3064TIP3   OH233386   4.663   4.227  15.488  0.0665  0.1681 -0.0772
 3064TIP3    H133387   4.677   4.189  15.401 -0.9039 -1.1810  0.3365
 3064TIP3    H233388   4.636   4.153  15.543  0.7721  0.9704  1.4130
 3065TIP3   OH233389   1.026   3.426  16.467  0.2296  0.1313 -0.0833
 3065TIP3    H133390   1.094   3.478  16.426  0.2491  0.5151  0.4297
 3065TIP3    H233391   0.999   3.477  16.544 -0.0605 -0.3994  0.1752
 3066TIP3   OH233392   2.206   2.669  17.960 -0.2013 -0.4994  0.0777
 3066TIP3    H133393   2.259   2.717  17.896  0.4714 -2.5633 -1.0170
 3066TIP3    H233394   2.264   2.657  18.035 -0.1318 -0.1989  0.0734
 3067TIP3   OH233395   5.020   0.496  15.727 -0.0433 -0.0558  0.1247
 3067TIP3    H133396   4.978   0.559  15.785  0.0907  0.8122 -0.7041
 3067TIP3    H233397   5.114   0.508  15.743  0.0591  1.1064 -1.1755
 3068TIP3   OH233398   0.682   2.521  17.957 -0.6419 -0.5163 -1.0834
 3068TIP3    H133399   0.751   2.456  17.941 -1.4076 -1.4786 -0.5659
 3068TIP3    H233400   0.721   2.604  17.930  0.3052 -1.2043 -1.9307
 3069TIP3   OH233401   4.183   2.668  17.256 -0.1883 -0.0560 -0.1797
 3069TIP3    H133402   4.094   2.634  17.245 -0.2135 -0.2227  0.5027
 3069TIP3    H233403   4.191   2.686  17.350 -0.1799  1.8853 -0.5074
 3070TIP3   OH233404   1.903   5.716  17.787  0.1157 -0.3293  0.9386
 3070TIP3    H133405   1.995   5.695  17.769 -0.3923 -0.0980 -2.6645
 3070TIP3    H233406   1.905   5.808  17.813  0.7739  0.7620 -2.4306
 3071TIP3   OH233407   4.544   3.246  17.210  0.3082 -0.4994  0.6526
 3071TIP3    H133408   4.514   3.197  17.133 -2.2233  0.3247  1.0063
 3071TIP3    H233409   4.637   3.260  17.196 -0.4218  1.6170 -3.4545
 3072TIP3   OH233410   4.032   1.147  16.100 -0.0951  0.0317 -0.3741
 3072TIP3    H133411   4.101   1.119  16.160 -1.3071 -1.1586  0.5094
 3072TIP3    H233412   3.983   1.214  16.148 -0.7311 -0.5247 -0.2416
 3073TIP3   OH233413   0.994   1.951  15.535 -0.2103  0.8029  0.4935
 3073TIP3    H133414   0.994   2.034  15.487  0.1503  0.8870  0.6330
 3073TIP3    H233415   0.970   1.886  15.470 -1.2429  1.1052  0.5512
 3074TIP3   OH233416   1.223   6.751  14.268  0.2591  0.2032  0.0915
 3074TIP3    H133417   1.292   6.803  14.309  1.7332 -2.3811  1.0678
 3074TIP3    H233418   1.148   6.760  14.326  1.0282 -0.1008  1.1474
 3075TIP3   OH233419   6.629   2.534  16.266  0.7015  0.2372  0.3476
 3075TIP3    H133420   6.625   2.626  16.239  1.2403  0.2842  0.4191
 3075TIP3    H233421   6.603   2.535  16.358  1.7362  0.4614  0.6510
 3076TIP3   OH233422   1.813   2.095  17.885  0.0111  0.3918 -0.4121
 3076TIP3    H133423   1.838   2.184  17.909 -2.7798  0.8114  1.5175
 3076TIP3    H233424   1.894   2.044  17.893  1.3299  2.4402  0.0933
 3077TIP3   OH233425   3.692   3.447  15.463  0.5094  0.3490 -0.3900
 3077TIP3    H133426   3.739   3.375  15.506  3.7177  2.1760 -0.5721
 3077TIP3    H233427   3.743   3.464  15.384  0.0726  3.0320 -0.1711
 3078TIP3   OH233428   3.454   1.846  17.358 -0.7191  0.5913  0.2077
 3078TIP3    H133429   3.518   1.914  17.377  0.5302 -0.9891  2.1568
 3078TIP3    H233430   3.443   1.800  17.441 -2.1029 -1.0838 -0.8297
 3079TIP3   OH233431   3.721   4.686  16.426 -0.3790  0.3831 -0.1769
 3079TIP3    H133432   3.774   4.648  16.355 -2.2340 -1.6584 -0.5663
 3079TIP3    H233433   3.661   4.746  16.382  0.2320  1.1453  0.0155
 3080TIP3   OH233434   6.755   1.326  16.271  0.0840 -0.1932  0.4451
 3080TIP3    H133435   6.845   1.358  16.276 -0.3907  1.2412  0.3429
 3080TIP3    H233436   6.721   1.336  16.360  0.0734 -0.9198  0.5274
 3081TIP3   OH233437   6.137   0.935  16.750 -0.0877  0.5735 -0.4209
 3081TIP3    H133438   6.125   0.886  16.669  0.0250  0.6190 -0.4645
 3081TIP3    H233439   6.060   0.991  16.756  0.2225  1.0558 -0.8369
 3082TIP3   OH233440   6.597   2.342  15.724  0.2410  0.3707 -0.0411
 3082TIP3    H133441   6.542   2.295  15.787  1.2277 -1.6799 -0.6291
 3082TIP3    H233442   6.556   2.324  15.639  1.1428 -0.2306 -0.3643
 3083TIP3   OH233443   2.051   1.967  17.823  0.1817 -0.2169 -0.1094
 3083TIP3    H133444   2.109   2.034  17.787  0.8278 -0.5606  0.2532
 3083TIP3    H233445   2.108   1.917  17.883 -0.8348  0.3409  1.3802
 3084TIP3   OH233446   5.332   0.678  17.660 -0.0226  0.2149  0.6237
 3084TIP3    H133447   5.290   0.592  17.660  0.6598 -0.1510  1.8573
 3084TIP3    H233448   5.416   0.664  17.616 -0.9109  0.8265 -1.3678
 3085TIP3   OH233449   5.240   2.181  16.329  0.2825 -0.2192 -0.4979
 3085TIP3    H133450   5.297   2.256  16.314 -2.2389  2.2716  1.2566
 3085TIP3    H233451   5.277   2.138  16.406  1.1011 -0.0732 -0.7994
 3086TIP3   OH233452   2.208   4.413  16.169  0.0943 -0.0861 -0.3424
 3086TIP3    H133453   2.262   4.432  16.092  0.6228 -0.4170 -0.0573
 3086TIP3    H233454   2.271   4.391  16.238 -0.3594  0.3493  0.2331
 3087TIP3   OH233455   6.677   1.483  16.050 -0.1163  0.3378  0.9875
 3087TIP3    H133456   6.753   1.493  15.993 -0.2361 -1.3453  0.4732
 3087TIP3    H233457   6.712   1.440  16.129 -0.5994 -1.1297  0.4466
 3088TIP3   OH233458   3.538   4.312  16.376  0.5162  0.2986  0.0949
 3088TIP3    H133459   3.516   4.398  16.338  0.9246 -0.1912 -1.2911
 3088TIP3    H233460   3.453   4.269  16.387  0.4796 -0.3857 -2.3463
 3089TIP3   OH233461   0.769   0.526  14.098 -0.1731  0.1305  0.4594
 3089TIP3    H133462   0.684   0.497  14.066  0.3598 -1.6303  0.5235
 3089TIP3    H233463   0.761   0.525  14.193  0.0381 -0.4674  0.4753
 3090TIP3   OH233464   6.059   2.774  17.648 -0.1762 -0.9274  0.1973
 3090TIP3    H133465   6.024   2.819  17.725  0.4313  0.0402 -0.0716
 3090TIP3    H233466   6.144   2.816  17.632 -1.1459  0.3320 -2.1708
 3091TIP3   OH233467   6.165   1.998  16.845 -0.1339  0.3088 -0.0006
 3091TIP3    H133468   6.070   2.005  16.856  0.0100 -0.1578  1.9886
 3091TIP3    H233469   6.201   2.060  16.909  0.8865 -1.4113  1.1840
 3092TIP3   OH233470   6.040   0.349  17.123 -0.5195 -0.4332 -0.0125
 3092TIP3    H133471   6.135   0.355  17.125 -0.5665  0.8138 -0.8493
 3092TIP3    H233472   6.016   0.316  17.209  0.5594  0.9089  0.8278
 3093TIP3   OH233473   2.483   1.958  16.146 -0.3563  0.6881 -0.1725
 3093TIP3    H133474   2.540   1.962  16.223 -0.7207  0.4130  0.1167
 3093TIP3    H233475   2.444   1.871  16.149 -1.6472  1.2566  0.2572
 3094TIP3   OH233476   0.730   1.496  15.571 -0.1942  0.2974  0.4372
 3094TIP3    H133477   0.815   1.453  15.563 -0.7184 -0.8924  0.9664
 3094TIP3    H233478   0.725   1.520  15.664 -1.2833 -1.5836  0.9337
 3095TIP3   OH233479   2.777   0.342  17.899 -0.2211 -0.2455 -0.0908
 3095TIP3    H133480   2.785   0.272  17.834  1.6999  0.1007 -0.2665
 3095TIP3    H233481   2.726   0.410  17.854 -0.4505 -0.7342 -0.5859
 3096TIP3   OH233482   3.342   0.148  15.729 -0.2878 -0.0860  0.0098
 3096TIP3    H133483   3.271   0.160  15.665  1.4409 -0.7910 -2.1505
 3096TIP3    H233484   3.347   0.054  15.741 -0.1485  0.0048  0.7036
 3097TIP3   OH233485   4.763   3.295  15.468  0.5676  0.0319 -0.8800
 3097TIP3    H133486   4.846   3.306  15.422  0.2930  0.4616 -1.2849
 3097TIP3    H233487   4.703   3.355  15.424  0.4231  0.8233  0.3618
 3098TIP3   OH233488   4.869   6.520  17.784  0.0604 -0.2078  0.4153
 3098TIP3    H133489   4.885   6.432  17.818 -0.4872 -0.7849 -0.7348
 3098TIP3    H233490   4.775   6.534  17.794  0.1492  0.2714  0.6327
 3099TIP3   OH233491   3.192   3.279  17.872  0.5296 -0.5441  0.0141
 3099TIP3    H133492   3.274   3.275  17.921  0.5811 -0.1267 -0.0375
 3099TIP3    H233493   3.174   3.188  17.849  0.9896 -0.6353  0.0019
 3100TIP3   OH233494   3.705   4.040  15.221 -0.3586  0.1787  0.2353
 3100TIP3    H133495   3.708   4.136  15.222  2.1430  0.1812 -0.6244
 3100TIP3    H233496   3.664   4.018  15.137 -0.0510  0.4895  0.0048
 3101TIP3   OH233497   1.433   5.018  17.174  0.5018  0.0620  0.5232
 3101TIP3    H133498   1.367   4.975  17.229 -0.6640 -0.1581 -0.9922
 3101TIP3    H233499   1.433   5.109  17.204  0.9658 -0.3477  1.8643
 3102TIP3   OH233500   3.629   3.365  17.631 -0.1612  0.2131  0.9067
 3102TIP3    H133501   3.670   3.352  17.716  0.6666  2.0607  0.8384
 3102TIP3    H233502   3.556   3.424  17.649 -0.8117 -0.4650  0.5262
 3103TIP3   OH233503   1.741   0.695  16.022 -0.2901 -0.4237  0.5262
 3103TIP3    H133504   1.733   0.607  15.986  2.2123 -0.3188 -0.4965
 3103TIP3    H233505   1.809   0.689  16.088  1.1521  0.9885 -0.7324
 3104TIP3   OH233506   3.455   6.202  16.639 -0.5686 -0.4894  0.1659
 3104TIP3    H133507   3.551   6.202  16.644 -0.3031  1.2478 -2.5578
 3104TIP3    H233508   3.428   6.120  16.680  1.9455 -0.3316  2.4023
 3105TIP3   OH233509   2.826   0.819  17.450  0.5816  0.3046  0.3808
 3105TIP3    H133510   2.778   0.736  17.451  0.8577  0.1424  0.0555
 3105TIP3    H233511   2.861   0.827  17.362  2.5303 -0.3720  1.0357
 3106TIP3   OH233512   1.836   0.145  17.876 -0.1421 -0.2310  0.2276
 3106TIP3    H133513   1.877   0.114  17.958  1.5820 -0.8107 -0.7969
 3106TIP3    H233514   1.747   0.112  17.880  0.4364 -1.7926  1.0789
 3107TIP3   OH233515   6.505   0.860  17.232  0.1490 -0.4412 -0.3436
 3107TIP3    H133516   6.522   0.875  17.325 -2.2674 -2.0072  0.4703
 3107TIP3    H233517   6.465   0.941  17.201 -1.3926 -0.7505  0.7093
 3108TIP3   OH233518   0.466   2.374  17.300  0.5241  0.0126 -0.4008
 3108TIP3    H133519   0.410   2.414  17.365  0.6574 -0.5138  0.0438
 3108TIP3    H233520   0.555   2.396  17.328  0.5412  1.7291 -1.6713
 3109TIP3   OH233521   6.752   2.373  15.401  0.1785  0.0194 -0.1830
 3109TIP3    H133522   6.818   2.327  15.349  0.3296 -1.2030  1.0267
 3109TIP3    H233523   6.801   2.407  15.476 -0.5162 -0.7249  0.6194
 3110TIP3   OH233524   1.483   2.645  15.981 -0.3477 -0.3056 -0.2238
 3110TIP3    H133525   1.508   2.617  15.893 -1.4072  0.2629 -0.7204
 3110TIP3    H233526   1.485   2.741  15.978 -0.8659 -0.2756  0.2277
 3111TIP3   OH233527   2.408   5.410  17.286  0.6492 -0.0748  0.5451
 3111TIP3    H133528   2.405   5.467  17.210 -1.2643 -2.3894 -1.2513
 3111TIP3    H233529   2.321   5.417  17.325  1.1633  0.0008  1.7482
 3112TIP3   OH233530   6.373   1.361  15.383 -0.5879 -0.3587 -0.3979
 3112TIP3    H133531   6.364   1.266  15.378  0.8438 -0.5048 -0.4470
 3112TIP3    H233532   6.364   1.390  15.292 -2.1155 -0.3064 -0.2664
 3113TIP3   OH233533   3.725   1.528  16.170 -0.0384 -0.3460  0.5004
 3113TIP3    H133534   3.723   1.604  16.111 -0.4381 -0.6264  0.1473
 3113TIP3    H233535   3.640   1.486  16.157  0.5092 -1.3394  0.0651
 3114TIP3   OH233536   5.260   1.488  16.705  0.6094  0.2861 -0.2987
 3114TIP3    H133537   5.234   1.398  16.725 -1.1297  0.9891  0.8032
 3114TIP3    H233538   5.356   1.483  16.697  0.5082 -1.7470 -0.8573
 3115TIP3   OH233539   3.123   0.765  15.149 -0.3422 -0.0178 -0.1024
 3115TIP3    H133540   3.152   0.720  15.228 -0.0892 -1.3066 -0.8997
 3115TIP3    H233541   3.035   0.732  15.133 -1.1352  1.6116  0.6177
 3116TIP3   OH233542   5.652   6.684  15.745  0.1403 -0.4505  0.1112
 3116TIP3    H133543   5.702   6.615  15.788  0.4994 -0.1061  0.2607
 3116TIP3    H233544   5.708   6.762  15.753 -0.0766 -0.2365 -0.4119
 3117TIP3   OH233545   1.704   3.434  16.786 -0.5621 -0.7257  0.1263
 3117TIP3    H133546   1.658   3.350  16.799 -1.5365 -0.2677 -0.3031
 3117TIP3    H233547   1.656   3.496  16.841 -0.6449 -0.1777 -0.5555
 3118TIP3   OH233548   4.188   2.266  18.364 -0.1014 -0.0948  0.7181
 3118TIP3    H133549   4.155   2.342  18.411 -0.6368  0.6115 -0.7262
 3118TIP3    H233550   4.263   2.236  18.414  0.6117  1.8713  0.8968
 3119TIP3   OH233551   2.323   6.738  16.257 -0.4631 -0.2506 -0.2321
 3119TIP3    H133552   2.275   6.656  16.263  0.7915 -1.0497 -0.6414
 3119TIP3    H233553   2.405   6.715  16.212  0.1327  1.1260  0.0756
 3120TIP3   OH233554   3.192   0.486  14.705  0.6168  0.5285 -0.4111
 3120TIP3    H133555   3.218   0.431  14.631  1.6711  1.0943 -0.4865
 3120TIP3    H233556   3.161   0.567  14.665  0.8985  0.7166 -0.2576
 3121TIP3   OH233557   1.408   4.803  15.928 -0.1105  0.5606 -0.2783
 3121TIP3    H133558   1.399   4.880  15.872 -2.2075  2.0198  1.8643
 3121TIP3    H233559   1.493   4.814  15.971 -0.6301  2.0492  0.4330
 3122TIP3   OH233560   1.989   3.341  16.754  0.4763  0.4855  0.1845
 3122TIP3    H133561   1.895   3.358  16.760  0.4644  0.5262 -0.1269
 3122TIP3    H233562   2.030   3.425  16.771  0.4061  1.0200 -2.0057
 3123TIP3   OH233563   2.017   1.443  18.195  0.2906  0.2623  0.6126
 3123TIP3    H133564   2.088   1.393  18.236  1.4919  2.4764  1.3834
 3123TIP3    H233565   1.940   1.388  18.207  1.0765 -0.3726  3.6520
 3124TIP3   OH233566   6.464   2.291  17.217  0.1014  0.9770 -0.6624
 3124TIP3    H133567   6.509   2.350  17.156 -0.5176 -0.9872 -3.1617
 3124TIP3    H233568   6.533   2.233  17.250  0.5317  2.3657  1.0332
 3125TIP3   OH233569   3.542   4.451  17.261  0.0812 -0.2051 -0.1097
 3125TIP3    H133570   3.544   4.503  17.181  3.0660  2.7527  1.6398
 3125TIP3    H233571   3.491   4.503  17.322  0.2055 -1.0248  0.7140
 3126TIP3   OH233572   6.703   2.330  16.713  0.2063 -0.0125 -0.5187
 3126TIP3    H133573   6.618   2.307  16.677  0.0359 -1.0505  0.4859
 3126TIP3    H233574   6.754   2.250  16.706  1.5187  0.8959 -2.1680
 3127TIP3   OH233575   5.404   5.624  17.606 -0.3313 -0.4290  0.2097
 3127TIP3    H133576   5.313   5.596  17.594 -0.5384 -0.0783  0.9229
 3127TIP3    H233577   5.446   5.550  17.652 -0.3361 -0.4540  0.1741
 3128TIP3   OH233578   5.613   6.434  17.460 -0.5926 -0.0801 -0.6089
 3128TIP3    H133579   5.527   6.403  17.489 -1.0617  0.5551 -1.2763
 3128TIP3    H233580   5.659   6.456  17.541 -1.1711 -0.1388 -0.2561
 3129TIP3   OH233581   0.136   5.042  15.465 -0.0299 -0.2557 -0.0629
 3129TIP3    H133582   0.060   5.063  15.520  0.1309 -1.4599  0.6615
 3129TIP3    H233583   0.098   5.000  15.387 -0.0720 -2.4271  1.0567
 3130TIP3   OH233584   3.800   0.836  17.338 -0.1354 -0.7175  0.0295
 3130TIP3    H133585   3.786   0.812  17.246  1.8553 -0.3814 -0.3896
 3130TIP3    H233586   3.747   0.772  17.386 -2.9758  0.4158 -1.3410
 3131TIP3   OH233587   0.427   2.583  16.075  0.0865 -0.2884  0.4575
 3131TIP3    H133588   0.489   2.595  16.003  0.2829  0.9770  0.8088
 3131TIP3    H233589   0.342   2.607  16.038 -0.1492 -1.5635  0.1103
 3132TIP3   OH233590   5.646   2.115  17.159  0.1178 -0.1943  0.0225
 3132TIP3    H133591   5.639   2.203  17.123  2.2325 -0.0461 -0.1143
 3132TIP3    H233592   5.731   2.083  17.129 -0.6457 -2.3494 -0.0430
 3133TIP3   OH233593   0.375   1.389  14.707  0.1667 -0.2239 -0.7015
 3133TIP3    H133594   0.301   1.362  14.762  0.8634 -0.1823  0.2886
 3133TIP3    H233595   0.344   1.378  14.617 -1.0823 -0.0872 -0.3053
 3134TIP3   OH233596   3.318   0.988  17.853  0.2364 -0.1459  0.1564
 3134TIP3    H133597   3.278   1.068  17.887  1.0801  0.1897  0.3848
 3134TIP3    H233598   3.358   1.014  17.771  1.6559 -0.0015  0.8640
 3135TIP3   OH233599   0.734   0.026  15.851  0.6596 -0.2753 -0.5519
 3135TIP3    H133600   0.717   0.002  15.942 -2.6791 -0.9574 -1.1857
 3135TIP3    H233601   0.816  -0.018  15.829  0.9931 -0.9669  1.8212
 3136TIP3   OH233602   3.504   5.209  16.465  0.2218  0.2178 -0.3301
 3136TIP3    H133603   3.464   5.295  16.456  1.3088  0.7434 -0.3198
 3136TIP3    H233604   3.576   5.222  16.527  1.8863 -0.1528 -2.0850
 3137TIP3   OH233605   5.223   2.011  17.722 -0.2729  0.4962 -0.4357
 3137TIP3    H133606   5.133   2.011  17.689 -0.8315 -0.7528  0.9610
 3137TIP3    H233607   5.262   1.931  17.687  0.6203  1.4852 -1.7796
 3138TIP3   OH233608   6.247   0.565  17.605  0.3784 -0.0413 -0.1753
 3138TIP3    H133609   6.321   0.536  17.659  1.7474  3.0059 -0.2447
 3138TIP3    H233610   6.282   0.571  17.516  0.9869  3.9259  0.1773
 3139TIP3   OH233611   1.729   6.301  15.880 -0.2474  0.0768  0.0944
 3139TIP3    H133612   1.698   6.390  15.897 -0.3301 -0.2726  1.9938
 3139TIP3    H233613   1.718   6.289  15.785 -0.7103  1.8889 -0.1162
 3140TIP3   OH233614   5.138   1.473  17.867 -0.7453  0.1187 -1.0120
 3140TIP3    H133615   5.107   1.510  17.785 -2.4871  1.3290  0.1064
 3140TIP3    H233616   5.172   1.548  17.916 -2.9742  0.1150  0.7096
 3141TIP3   OH233617   6.307   3.300  17.115 -0.5315 -0.0404  0.2883
 3141TIP3    H133618   6.400   3.293  17.091 -0.1934 -0.9770  1.7295
 3141TIP3    H233619   6.261   3.249  17.047 -0.0969  1.0328 -0.8503
 3142TIP3   OH233620   5.775   0.835  14.269  0.0922 -0.0237  0.0038
 3142TIP3    H133621   5.726   0.852  14.189  0.7724  1.5652 -0.0929
 3142TIP3    H233622   5.835   0.909  14.278  2.8611 -2.0594 -0.1286
 3143TIP3   OH233623   5.503   0.595  14.966  0.1795  0.0950 -0.4553
 3143TIP3    H133624   5.555   0.669  14.999  0.5278  0.0636 -0.9178
 3143TIP3    H233625   5.418   0.604  15.009  0.0234  1.1097 -0.9436
 3144TIP3   OH233626   4.485   1.549  14.783 -0.2485  0.2242 -0.4313
 3144TIP3    H133627   4.541   1.619  14.748  0.5191  0.6007  1.3800
 3144TIP3    H233628   4.398   1.567  14.747  0.3092  1.0664 -1.4031
 3145TIP3   OH233629   0.290   0.350  16.170  0.9520  0.1493 -0.2523
 3145TIP3    H133630   0.317   0.260  16.191 -0.9643 -0.1848  0.9644
 3145TIP3    H233631   0.218   0.368  16.230 -1.9337  0.7682 -3.5955
 3146TIP3   OH233632   6.195   6.380  17.118  0.1835  0.2541 -0.3048
 3146TIP3    H133633   6.129   6.438  17.079 -0.2497  0.6408  0.9510
 3146TIP3    H233634   6.223   6.426  17.197  0.3557 -0.9184  0.3408
 3147TIP3   OH233635   3.092   1.853  17.232 -0.8918 -0.3422 -0.6646
 3147TIP3    H133636   3.042   1.935  17.235  0.8507  0.7333  1.8536
 3147TIP3    H233637   3.155   1.867  17.161 -1.5859 -0.1378 -1.2564
 3148TIP3   OH233638   3.050   4.129  15.700 -0.4032 -0.2792 -0.2175
 3148TIP3    H133639   2.969   4.110  15.748 -1.7631  1.0913 -1.8256
 3148TIP3    H233640   3.038   4.086  15.615  0.4101  0.2247 -0.5997
 3149TIP3   OH233641   2.962   0.428  17.309  0.2820  0.2258 -0.3032
 3149TIP3    H133642   2.986   0.478  17.230 -2.0310  1.0303 -0.5677
 3149TIP3    H233643   3.027   0.454  17.374  3.0858 -1.4292 -2.1916
 3150TIP3   OH233644   3.516   2.743  18.035 -0.5972  0.4733  0.0683
 3150TIP3    H133645   3.475   2.820  17.997 -1.7719 -0.3635 -0.4371
 3150TIP3    H233646   3.590   2.724  17.977 -2.2127 -0.6409 -1.7815
 3151TIP3   OH233647   3.764   1.191  15.526 -0.4617  0.5591  0.8619
 3151TIP3    H133648   3.799   1.198  15.437  1.5932 -2.0836  1.3271
 3151TIP3    H233649   3.842   1.190  15.582 -1.2870 -2.8996  2.2045
 3152TIP3   OH233650   5.504   2.300  14.562  0.2394 -0.0547  0.0235
 3152TIP3    H133651   5.526   2.383  14.519 -0.1468  0.0497  0.0285
 3152TIP3    H233652   5.423   2.318  14.610 -0.1793 -0.5932 -0.4680
 3153TIP3   OH233653   4.151   5.545  17.251  0.0348  0.3464  0.2803
 3153TIP3    H133654   4.239   5.519  17.225  0.4212  0.3729  1.5121
 3153TIP3    H233655   4.113   5.467  17.292  0.1355  0.8205  1.3222
 3154TIP3   OH233656   2.307   2.015  15.583 -0.0608  0.0199  0.3116
 3154TIP3    H133657   2.338   1.984  15.498 -0.0625  0.0994  0.2816
 3154TIP3    H233658   2.326   1.944  15.644  0.8218  0.3423  0.4278
 3155TIP3   OH233659   4.466   3.869  15.546  0.1615  0.6125 -0.6498
 3155TIP3    H133660   4.486   3.870  15.453  1.3972 -0.6177 -0.4350
 3155TIP3    H233661   4.383   3.916  15.554 -1.3322 -1.5045 -2.6904
 3156TIP3   OH233662   6.552   3.392  15.697  0.1942 -0.1879 -0.2543
 3156TIP3    H133663   6.630   3.431  15.736  0.6225 -0.9035 -0.3724
 3156TIP3    H233664   6.538   3.440  15.616  1.4482 -1.0646 -1.0244
 3157TIP3   OH233665   5.608   5.899  14.637 -0.2729 -0.3627  0.3302
 3157TIP3    H133666   5.517   5.919  14.615 -0.5806 -1.6254  0.3740
 3157TIP3    H233667   5.602   5.840  14.712  0.4917 -2.0537 -0.9017
 3158TIP3   OH233668   4.908   4.717  15.882 -0.6105  0.0665  0.1159
 3158TIP3    H133669   4.868   4.676  15.806 -0.3965 -1.0209  0.5732
 3158TIP3    H233670   5.002   4.705  15.869 -0.5721 -0.0809  0.5238
 3159TIP3   OH233671   3.287   3.885  15.269 -0.5162  0.0026 -0.4208
 3159TIP3    H133672   3.373   3.877  15.309 -0.4858 -1.3748 -0.7106
 3159TIP3    H233673   3.257   3.794  15.258 -2.2397  0.4716  0.1709
 3160TIP3   OH233674   1.351   4.411  15.212 -0.4954 -0.5754 -0.4497
 3160TIP3    H133675   1.267   4.439  15.177 -1.6869 -1.7292  1.2920
 3160TIP3    H233676   1.365   4.468  15.288  1.4266  1.0619 -1.9078
 3161TIP3   OH233677   2.842   2.997  15.800  0.2578 -0.5100  0.1941
 3161TIP3    H133678   2.899   3.070  15.823  0.5184 -0.8003  0.4920
 3161TIP3    H233679   2.870   2.970  15.712 -1.2981  1.1441 -0.8801
 3162TIP3   OH233680   2.393   2.017  15.307  0.2031 -0.0699  0.7447
 3162TIP3    H133681   2.381   1.995  15.214 -0.5281 -0.7991  0.9953
 3162TIP3    H233682   2.488   2.015  15.320  0.5224  2.4930 -0.5374
 3163TIP3   OH233683   5.098   4.402  17.592 -0.2089  0.2882  0.2875
 3163TIP3    H133684   5.038   4.475  17.609 -0.1576  0.2858  0.4861
 3163TIP3    H233685   5.176   4.443  17.554 -0.0252  0.3861  0.7564
 3164TIP3   OH233686   5.248   0.324  17.256 -0.2871 -0.0171 -0.7128
 3164TIP3    H133687   5.303   0.340  17.179  1.0717 -1.4592 -0.0890
 3164TIP3    H233688   5.253   0.406  17.306  2.1992 -0.4223 -0.1693
 3165TIP3   OH233689   5.758   0.154  17.937  0.1773  0.3532 -0.5164
 3165TIP3    H133690   5.669   0.123  17.921  0.6874  0.2621 -3.6922
 3165TIP3    H233691   5.750   0.249  17.941 -0.4417  0.2693  2.6152
 3166TIP3   OH233692   2.112   0.682  15.719  0.0698  0.0201 -0.5875
 3166TIP3    H133693   2.156   0.668  15.635  0.3359  0.2941 -0.4936
 3166TIP3    H233694   2.142   0.767  15.749 -1.1272  0.5701 -0.8829
 3167TIP3   OH233695   1.944   2.310  15.617 -0.7985 -0.3860 -0.0363
 3167TIP3    H133696   2.005   2.331  15.688 -1.1727 -1.0944  0.5026
 3167TIP3    H233697   1.995   2.324  15.537 -0.3393  0.3153  0.3649
 3168TIP3   OH233698   0.172   1.036  16.444  0.1159  0.1022 -0.2216
 3168TIP3    H133699   0.206   0.957  16.486 -1.6750 -0.1614  0.8398
 3168TIP3    H233700   0.244   1.099  16.451  1.3307 -1.1967 -0.4791
 3169TIP3   OH233701   2.664   6.433  16.214 -0.3452 -0.3500  0.4856
 3169TIP3    H133702   2.624   6.485  16.283 -0.9136  0.6539 -0.5844
 3169TIP3    H233703   2.665   6.344  16.249 -0.0223  0.2394  2.0420
 3170TIP3   OH233704   1.025   3.340  16.073 -0.0274  0.2923  0.0770
 3170TIP3    H133705   1.087   3.405  16.105 -1.7560  1.7207  0.7153
 3170TIP3    H233706   1.079   3.271  16.035  1.9042  1.6934  0.1581
 3171TIP3   OH233707   5.174   0.060  17.180  0.6614  0.3089 -0.2369
 3171TIP3    H133708   5.217   0.141  17.207  0.7227  0.5511 -1.0232
 3171TIP3    H233709   5.081   0.075  17.197  0.6435  0.6473 -0.6205
 3172TIP3   OH233710   1.828   2.084  15.949  0.1831 -0.6987  0.0956
 3172TIP3    H133711   1.846   2.177  15.949 -0.5477 -0.5457  0.6805
 3172TIP3    H233712   1.873   2.050  16.026 -0.1861 -0.6918  0.3165
 3173TIP3   OH233713   0.842   3.238  17.246 -0.1750 -0.1341  0.2326
 3173TIP3    H133714   0.919   3.267  17.294 -0.1684 -0.1930  0.2569
 3173TIP3    H233715   0.775   3.305  17.266  0.5469  1.2290 -1.6610
 3174TIP3   OH233716   4.549   4.960  16.831 -0.3119 -0.0038 -0.0713
 3174TIP3    H133717   4.624   5.017  16.818 -0.6675  0.1375 -1.6474
 3174TIP3    H233718   4.512   4.988  16.915  0.3306  1.1404 -0.1541
 3175TIP3   OH233719   6.628   0.886  14.666 -0.0085 -0.0837 -0.4967
 3175TIP3    H133720   6.629   0.978  14.640 -0.8121  0.1746  0.3438
 3175TIP3    H233721   6.568   0.844  14.604  1.1997 -0.2810 -1.5774
 3176TIP3   OH233722   4.688   0.002  16.523 -0.0459  0.1354 -0.1680
 3176TIP3    H133723   4.619   0.068  16.523 -1.5286 -1.3386 -1.0498
 3176TIP3    H233724   4.642  -0.081  16.510  1.6372 -1.2287  1.8493
 3177TIP3   OH233725   1.172   4.862  17.902 -0.1090  0.1360 -0.2072
 3177TIP3    H133726   1.132   4.863  17.989  0.9195 -0.0943  0.2894
 3177TIP3    H233727   1.172   4.770  17.877 -1.1876  0.2898 -0.8497
 3178TIP3   OH233728   2.557   1.310  18.257 -0.0688  0.6512 -0.4830
 3178TIP3    H133729   2.574   1.356  18.339 -2.0664  0.7901 -0.0941
 3178TIP3    H233730   2.643   1.282  18.227  0.8310  1.6338  1.0448
 3179TIP3   OH233731   5.627   3.999  17.095  0.0439  0.2124 -0.1312
 3179TIP3    H133732   5.718   4.028  17.101  0.0557  0.0941  0.3511
 3179TIP3    H233733   5.632   3.903  17.099 -0.1186  0.2157  0.2520
 3180TIP3   OH233734   6.698   3.566  16.470 -0.2425 -0.0445  0.4016
 3180TIP3    H133735   6.661   3.636  16.524 -2.0601 -0.0044 -0.8074
 3180TIP3    H233736   6.659   3.579  16.384  0.5456 -1.6738 -0.2459
 3181TIP3   OH233737   2.931   0.008  15.345 -0.0207  0.1847  0.0348
 3181TIP3    H133738   2.880  -0.074  15.348  1.6899 -0.9181  0.5105
 3181TIP3    H233739   2.918   0.040  15.256 -0.7699 -0.5839 -0.1534
 3182TIP3   OH233740   5.650   1.076  14.212  0.2649 -0.1933 -0.0012
 3182TIP3    H133741   5.588   1.017  14.169 -1.4926  0.7157  1.1549
 3182TIP3    H233742   5.725   1.078  14.153  0.0935 -2.9602 -0.4446
 3183TIP3   OH233743   3.560   2.710  15.375 -0.0083 -0.1938 -0.3711
 3183TIP3    H133744   3.651   2.739  15.367 -0.2718  1.1690  1.0812
 3183TIP3    H233745   3.549   2.690  15.467 -0.6687 -2.2947 -0.8620
 3184TIP3   OH233746   5.938   4.808  17.477  0.6203 -0.0403  0.2658
 3184TIP3    H133747   5.898   4.727  17.446 -0.1505  0.6201 -0.5397
 3184TIP3    H233748   6.020   4.780  17.519  1.0850 -1.1112 -1.2666
 3185TIP3   OH233749   4.523   6.197  17.862 -0.1179 -0.1868  0.4604
 3185TIP3    H133750   4.463   6.133  17.898  2.1417 -2.3272  0.6931
 3185TIP3    H233751   4.562   6.240  17.939 -0.2698  0.1389  0.3582
 3186TIP3   OH233752   3.984   6.656  14.727 -0.1064 -0.1011 -0.2811
 3186TIP3    H133753   3.992   6.704  14.645 -0.3196  1.6409  0.6726
 3186TIP3    H233754   4.037   6.706  14.790  2.3713 -2.8952  0.0839
 3187TIP3   OH233755   1.083   5.026  16.020 -0.5305 -0.2405  0.0047
 3187TIP3    H133756   1.119   5.114  16.033 -1.0501 -0.2276  1.5262
 3187TIP3    H233757   1.159   4.968  16.031 -0.8063 -0.1973  2.9154
 3188TIP3   OH233758   3.737   5.441  17.298  0.2679  0.0489  0.5748
 3188TIP3    H133759   3.828   5.468  17.308  0.1004  0.6935  0.3677
 3188TIP3    H233760   3.741   5.345  17.298  0.8350  0.0516  1.6058
 3189TIP3   OH233761   0.669   4.166  16.298  0.0709  0.0104 -0.0165
 3189TIP3    H133762   0.754   4.191  16.334 -1.0102  2.1616  1.2687
 3189TIP3    H233763   0.663   4.072  16.313  2.4517 -0.3359 -0.7636
 3190TIP3   OH233764   5.614   3.712  17.920 -0.0258  0.3907 -0.4995
 3190TIP3    H133765   5.673   3.705  17.995 -2.0037 -0.4597  1.0623
 3190TIP3    H233766   5.626   3.629  17.872  0.2464  0.3395 -0.3440
 3191TIP3   OH233767   0.182   1.633  15.966  0.7442 -0.2849  0.6476
 3191TIP3    H133768   0.223   1.627  15.880  1.0149 -2.6610  0.8666
 3191TIP3    H233769   0.252   1.610  16.028  0.4509  0.9929  1.4977
 3192TIP3   OH233770   3.967   4.046  15.335 -0.1603 -0.0718 -0.3559
 3192TIP3    H133771   3.880   4.022  15.304  0.6860  0.0652 -3.0472
 3192TIP3    H233772   4.026   3.981  15.298  1.2941  1.8869 -1.7446
 3193TIP3   OH233773   3.810   1.984  16.994  0.6664  0.0603  0.1056
 3193TIP3    H133774   3.882   1.969  17.055 -0.9367  0.3914  2.1632
 3193TIP3    H233775   3.821   1.917  16.927  0.5962 -2.5638  2.5665
 3194TIP3   OH233776   1.731   0.912  14.890  0.0762  0.3528  0.7680
 3194TIP3    H133777   1.681   0.973  14.835  1.9409  1.7545  0.5213
 3194TIP3    H233778   1.803   0.883  14.835  0.1620 -0.7854  1.4459
 3195TIP3   OH233779   1.692   2.981  15.631  0.4661 -0.0745  0.3367
 3195TIP3    H133780   1.775   3.012  15.666  0.2791  1.5050 -0.5261
 3195TIP3    H233781   1.701   2.990  15.536 -0.9223  0.7914  0.2651
 3196TIP3   OH233782   4.395   4.515  14.651 -0.1752  0.1531 -0.1927
 3196TIP3    H133783   4.447   4.576  14.705 -1.9307 -0.4213  2.3281
 3196TIP3    H233784   4.323   4.569  14.617 -0.3451  0.0293 -0.0315
 3197TIP3   OH233785   1.855   3.303  14.749 -0.3147 -0.0312 -0.0432
 3197TIP3    H133786   1.940   3.315  14.791 -0.5334 -1.2883  0.8022
 3197TIP3    H233787   1.807   3.383  14.768  0.7710  0.8266 -0.7918
 3198TIP3   OH233788   4.832   1.169  18.154 -0.2561 -0.0418  0.2552
 3198TIP3    H133789   4.852   1.202  18.067 -0.9645  0.1794  0.1651
 3198TIP3    H233790   4.815   1.248  18.206 -0.8942 -0.2133  0.3167
 3199TIP3   OH233791   3.477   3.144  17.086  0.4290 -0.1482  0.1400
 3199TIP3    H133792   3.565   3.107  17.084 -0.1693 -1.6160 -0.2741
 3199TIP3    H233793   3.419   3.069  17.099 -0.8109  0.6980 -0.2668
 3200TIP3   OH233794   6.219   4.000  17.602  0.4407 -0.4337  0.3466
 3200TIP3    H133795   6.284   3.979  17.534 -0.2787 -2.1602  0.1396
 3200TIP3    H233796   6.135   3.979  17.561 -0.1022 -0.2035  1.3252
 3201TIP3   OH233797   6.142   5.288  16.969  0.0518 -0.3170  0.4949
 3201TIP3    H133798   6.124   5.195  16.979 -1.0017 -0.5125 -2.1885
 3201TIP3    H233799   6.219   5.291  16.913 -0.3248  0.3797 -0.0040
 3202TIP3   OH233800   2.670   0.436  15.349 -0.2287 -0.0307  0.3476
 3202TIP3    H133801   2.760   0.404  15.360  0.8206  1.8116 -2.0229
 3202TIP3    H233802   2.638   0.447  15.439  2.2816  0.1908  1.3178
 3203TIP3   OH233803   1.037   0.348  16.013 -0.4574  0.3533 -0.3914
 3203TIP3    H133804   1.063   0.339  15.921 -2.2808 -2.3180 -0.7625
 3203TIP3    H233805   1.120   0.342  16.061  0.3326 -0.4953 -1.7767
 3204TIP3   OH233806   1.867   5.975  17.889  0.0279  0.0404  0.6545
 3204TIP3    H133807   1.836   6.018  17.809 -1.3451  0.2099  1.2566
 3204TIP3    H233808   1.796   5.986  17.951  0.8391 -0.6143  1.7253
 3205TIP3   OH233809   1.366   2.891  16.026  0.2374  0.0986 -0.0505
 3205TIP3    H133810   1.364   2.913  15.933 -2.1578  0.1010 -0.0698
 3205TIP3    H233811   1.397   2.971  16.069  0.3315  0.4573 -0.7748
 3206TIP3   OH233812   1.726   6.295  14.552  0.2941 -0.4504 -0.4097
 3206TIP3    H133813   1.807   6.314  14.599 -0.3117  1.3016  0.0279
 3206TIP3    H233814   1.690   6.218  14.595 -2.2075  3.0651  5.0086
 3207TIP3   OH233815   5.853   3.433  16.010 -0.3777  0.0093  0.3655
 3207TIP3    H133816   5.944   3.407  16.024 -0.2460  0.6919  0.8288
 3207TIP3    H233817   5.815   3.438  16.098 -0.6699  0.3865  0.2221
 3208TIP3   OH233818   4.203   2.014  17.741  0.1082 -0.0676 -0.3107
 3208TIP3    H133819   4.113   2.021  17.708  0.9393  1.6752 -2.4530
 3208TIP3    H233820   4.226   1.922  17.730 -1.6653 -0.7450  1.1367
 3209TIP3   OH233821   4.892   5.716  17.520 -0.0289 -0.2444 -0.0987
 3209TIP3    H133822   4.836   5.792  17.538  0.8671  0.6577 -0.9557
 3209TIP3    H233823   4.980   5.747  17.543  0.2759 -1.2495  0.1284
 3210TIP3   OH233824   3.908   6.346  16.106  0.1543 -0.1960 -0.0776
 3210TIP3    H133825   3.846   6.381  16.170  1.2532  2.0664 -0.1179
 3210TIP3    H233826   3.866   6.267  16.072 -2.3901  0.8531  0.3727
 3211TIP3   OH233827   2.868   1.851  15.151 -0.0567  0.2777 -0.5577
 3211TIP3    H133828   2.851   1.858  15.057  1.2386  0.9249 -0.7617
 3211TIP3    H233829   2.906   1.763  15.161  1.9042  1.0095 -1.0269
 3212TIP3   OH233830   4.001   2.821  16.449 -0.0942 -0.4563 -0.0896
 3212TIP3    H133831   4.085   2.866  16.453 -1.1713  2.0138 -2.2216
 3212TIP3    H233832   4.019   2.742  16.399  0.7632  0.7944 -1.8879
 3213TIP3   OH233833   0.865   2.387  14.981  0.5835  0.4699 -0.4866
 3213TIP3    H133834   0.945   2.388  15.033  0.5392 -0.9937 -0.3443
 3213TIP3    H233835   0.814   2.314  15.016  0.1047  0.0839 -1.9058
 3214TIP3   OH233836   2.263   2.284  15.347 -0.2373  0.2379 -0.3123
 3214TIP3    H133837   2.340   2.325  15.386 -1.2750 -0.1205  2.3273
 3214TIP3    H233838   2.293   2.199  15.318  0.8790  1.0276 -1.5818
 3215TIP3   OH233839   5.651   1.496  17.274  0.0401  0.7401  0.3103
 3215TIP3    H133840   5.696   1.421  17.312 -0.7954  0.4777  0.8215
 3215TIP3    H233841   5.582   1.517  17.338 -1.0584  0.6255 -0.8071
 3216TIP3   OH233842   5.857   4.217  18.087 -1.1120 -0.4168  0.0543
 3216TIP3    H133843   5.893   4.177  18.008 -0.9554  0.3675 -0.2835
 3216TIP3    H233844   5.914   4.186  18.158  0.8743  1.5236 -0.5760
 3217TIP3   OH233845   2.297   1.188  17.888 -0.0488 -0.1687  0.1958
 3217TIP3    H133846   2.216   1.231  17.862 -0.3752 -0.2915  0.9862
 3217TIP3    H233847   2.281   1.095  17.874  0.8081 -0.0578 -1.9308
 3218TIP3   OH233848   2.944   5.342  15.804  0.1031 -0.7424  0.0585
 3218TIP3    H133849   2.889   5.286  15.749  1.2026 -0.8131 -1.0124
 3218TIP3    H233850   2.969   5.414  15.746  1.4161 -0.8958  0.4083
 3219TIP3   OH233851   5.724   1.348  15.629 -0.1096 -0.2445  0.0069
 3219TIP3    H133852   5.770   1.405  15.567 -0.7357  0.0622 -0.1754
 3219TIP3    H233853   5.631   1.364  15.614 -0.2946 -1.1043  0.1535
 3220TIP3   OH233854   4.558   1.288  17.306  0.2882 -0.3238 -0.1185
 3220TIP3    H133855   4.535   1.215  17.362  1.1441 -0.4601  0.0710
 3220TIP3    H233856   4.560   1.364  17.364  3.2989 -0.7917  0.5729
 3221TIP3   OH233857   4.651   0.410  16.247 -0.2171 -0.0227 -0.1515
 3221TIP3    H133858   4.580   0.444  16.301  2.0520  1.7170  1.9852
 3221TIP3    H233859   4.617   0.328  16.210 -2.6020 -0.3299  2.4135
 3222TIP3   OH233860   3.325   4.934  15.668 -0.0272 -0.3774 -0.4989
 3222TIP3    H133861   3.382   4.870  15.627 -2.0815 -2.2894 -0.5684
 3222TIP3    H233862   3.242   4.925  15.622 -0.3289  2.6115 -0.7143
 3223TIP3   OH233863   2.739   1.842  16.548  0.9225  0.2902  0.4014
 3223TIP3    H133864   2.826   1.881  16.561  0.9629  0.3515 -0.0510
 3223TIP3    H233865   2.700   1.892  16.477  0.3831  0.4742  0.8201
 3224TIP3   OH233866   6.161   6.584  15.444 -0.6766 -0.2215  0.5956
 3224TIP3    H133867   6.110   6.551  15.518  0.6608  0.2584  1.7718
 3224TIP3    H233868   6.230   6.519  15.430  0.3344  0.6920  1.1579
 3225TIP3   OH233869   0.580   5.414  17.265  0.0913  0.0889 -0.1048
 3225TIP3    H133870   0.609   5.403  17.175 -0.8731  1.5391 -0.6237
 3225TIP3    H233871   0.597   5.505  17.286  0.7290 -0.3274  1.3598
 3226TIP3   OH233872   4.764   2.904  14.969  0.1171  0.0696 -0.0587
 3226TIP3    H133873   4.687   2.854  14.941  0.3190  0.1148 -0.7224
 3226TIP3    H233874   4.826   2.838  15.000  0.8567 -0.2454 -2.0512
 3227TIP3   OH233875   2.084   2.625  15.710  0.4466  0.1699  0.3817
 3227TIP3    H133876   2.109   2.654  15.623  1.4258 -1.4617  0.0597
 3227TIP3    H233877   2.001   2.668  15.728  1.0387  1.8348 -0.6550
 3228TIP3   OH233878   3.689   3.543  15.890 -0.0489  0.2489  0.5909
 3228TIP3    H133879   3.677   3.536  15.985  0.1479 -0.5435  0.5665
 3228TIP3    H233880   3.780   3.572  15.880  0.0969 -0.1888  0.6356
 3229TIP3   OH233881   2.276   5.948  15.222 -0.3103 -0.0466 -0.1627
 3229TIP3    H133882   2.319   5.903  15.150 -1.2262  1.0236 -1.4200
 3229TIP3    H233883   2.187   5.913  15.223 -0.9548  1.4797 -0.9825
 3230TIP3   OH233884   4.557   1.230  16.902  0.3816  0.4654 -0.3410
 3230TIP3    H133885   4.650   1.252  16.900  0.4875  0.0022 -1.0235
 3230TIP3    H233886   4.513   1.309  16.870  0.4998  0.8380  0.3968
 3231TIP3   OH233887   4.768   4.545  17.855  0.1901 -0.0693 -0.3950
 3231TIP3    H133888   4.685   4.515  17.894  0.3301  1.2839  1.0386
 3231TIP3    H233889   4.748   4.633  17.823  0.7394 -0.2425 -1.2148
 3232TIP3   OH233890   4.041   4.077  16.461  0.1570 -0.4346 -0.6880
 3232TIP3    H133891   3.983   4.122  16.400  1.7178 -1.0589 -2.7569
 3232TIP3    H233892   4.108   4.143  16.483 -0.8866  0.0780  1.1629
 3233TIP3   OH233893   1.194   3.438  15.658  0.2650 -0.2456  0.0355
 3233TIP3    H133894   1.186   3.506  15.725 -0.4118 -0.0402 -0.2488
 3233TIP3    H233895   1.150   3.475  15.581  0.6376 -0.6617 -0.3850
 3234TIP3   OH233896   3.239   5.981  17.444  0.3532 -0.6286 -0.3013
 3234TIP3    H133897   3.234   5.975  17.348  2.1161 -2.4084 -0.3426
 3234TIP3    H233898   3.264   6.072  17.460  1.2790 -0.6036 -1.6359
 3235TIP3   OH233899   0.642   5.860  17.681 -1.0623 -0.2221 -0.0392
 3235TIP3    H133900   0.693   5.880  17.760 -1.3589  0.7057 -0.0681
 3235TIP3    H233901   0.683   5.782  17.645 -0.0234  0.1741  0.2502
 3236TIP3   OH233902   0.758   4.502  15.876  0.3962  0.5888 -0.3233
 3236TIP3    H133903   0.680   4.460  15.912 -0.0717  0.9122 -0.9237
 3236TIP3    H233904   0.832   4.458  15.918 -0.0902 -0.5049 -0.5928
 3237TIP3   OH233905   1.821   0.269  15.900  0.3075  0.2932 -0.1760
 3237TIP3    H133906   1.851   0.360  15.890  0.3166  0.4132  0.8658
 3237TIP3    H233907   1.731   0.276  15.929  0.5015 -0.0215  0.5134
 3238TIP3   OH233908   4.341   6.725  14.749 -0.1454  0.6024 -0.3301
 3238TIP3    H133909   4.315   6.816  14.734 -2.5871  0.2661  1.2056
 3238TIP3    H233910   4.337   6.684  14.663  1.0804  1.9241 -1.0600
 3239TIP3   OH233911   4.539   3.976  14.785 -0.2447  0.2661  0.3870
 3239TIP3    H133912   4.522   3.929  14.866  0.6024 -1.7236 -0.5256
 3239TIP3    H233913   4.467   3.953  14.727  1.0875 -1.4579 -0.6726
 3240TIP3   OH233914   3.695   5.972  16.993  0.0450 -0.1345  0.2843
 3240TIP3    H133915   3.703   5.948  16.900  1.1493  1.8406 -0.1879
 3240TIP3    H233916   3.601   5.977  17.009 -0.1617 -0.6130 -0.6878
 3241TIP3   OH233917   4.892   6.108  17.031  0.3160  0.6010  0.4919
 3241TIP3    H133918   4.883   6.083  17.123 -1.1759 -0.1167  0.1765
 3241TIP3    H233919   4.939   6.192  17.034 -0.7786  1.2132  1.9982
 3242TIP3   OH233920   4.055   0.110  15.632  0.2836 -0.4114  0.0239
 3242TIP3    H133921   4.089   0.022  15.616  0.9120 -0.1458 -0.1074
 3242TIP3    H233922   4.083   0.161  15.556  0.5875  0.0948  0.4722
 3243TIP3   OH233923   6.624   0.590  17.524  0.3895  0.2203 -0.3097
 3243TIP3    H133924   6.530   0.583  17.512  0.1619  0.8242  1.0221
 3243TIP3    H233925   6.644   0.682  17.504  1.0222 -0.3043 -2.4434
 3244TIP3   OH233926   4.474   4.190  17.356 -0.1997  0.0444  0.4944
 3244TIP3    H133927   4.530   4.193  17.278 -0.7496 -0.4915  0.0702
 3244TIP3    H233928   4.391   4.226  17.326 -0.3628 -0.0149  0.8852
 3245TIP3   OH233929   0.945   2.359  18.014 -0.5679 -0.0451  0.1990
 3245TIP3    H133930   0.874   2.296  18.022  0.3132 -0.8561  2.8494
 3245TIP3    H233931   1.019   2.309  17.981  0.0065 -0.3716  1.8793
 3246TIP3   OH233932   4.374   6.193  14.809  0.1535  0.1147 -0.2965
 3246TIP3    H133933   4.328   6.192  14.892  0.7462  1.2107  0.0805
 3246TIP3    H233934   4.407   6.283  14.801  2.5379 -0.6738 -0.3364
 3247TIP3   OH233935   4.760   6.315  17.551  0.4121 -0.3143  0.1216
 3247TIP3    H133936   4.781   6.304  17.458 -1.3288 -0.2110 -0.3101
 3247TIP3    H233937   4.755   6.410  17.563 -3.6374 -0.2280 -0.8008
 3248TIP3   OH233938   1.025   0.270  16.631  0.2939 -0.2608  0.4094
 3248TIP3    H133939   0.935   0.249  16.656  0.1070  0.6238  0.5148
 3248TIP3    H233940   1.077   0.198  16.666 -0.5470 -1.6600 -1.0701
 3249TIP3   OH233941   0.531   3.702  16.152 -0.1316  0.3969  0.9035
 3249TIP3    H133942   0.457   3.678  16.096 -0.6995  2.9982  0.4155
 3249TIP3    H233943   0.570   3.619  16.177 -2.2023 -0.9919 -0.2085
 3250TIP3   OH233944   1.012   4.300  16.819  0.1479  0.3291 -0.1513
 3250TIP3    H133945   1.046   4.249  16.746  2.3218 -0.0007  1.0338
 3250TIP3    H233946   1.089   4.328  16.868 -1.0262  3.4321  0.1628
 3251TIP3   OH233947   1.286   0.870  17.073 -0.0991  0.3167  0.5094
 3251TIP3    H133948   1.287   0.914  16.988  3.2511  1.2550  0.9286
 3251TIP3    H233949   1.285   0.777  17.051  0.1976  0.5475 -0.5428
 3252TIP3   OH233950   3.785   2.489  16.735  0.3645  0.2846  0.2981
 3252TIP3    H133951   3.706   2.502  16.684  0.4821 -0.7431 -0.1644
 3252TIP3    H233952   3.755   2.447  16.816  0.2491  1.3872  0.8446
 3253TIP3   OH233953   2.789   4.194  16.282  0.2003 -1.2381 -0.4734
 3253TIP3    H133954   2.718   4.247  16.247  1.3629 -0.3969 -1.6563
 3253TIP3    H233955   2.861   4.256  16.295  0.7027 -2.0390  0.8185
 3254TIP3   OH233956   5.509   3.301  17.637  0.2343  0.1794  0.0635
 3254TIP3    H133957   5.434   3.347  17.599  0.1042  0.7399  0.9682
 3254TIP3    H233958   5.472   3.256  17.714  0.9212  0.8555  0.7963
 3255TIP3   OH233959   2.213   2.322  17.163  0.4034 -0.1070 -0.1020
 3255TIP3    H133960   2.138   2.380  17.156 -0.3260 -1.0845 -0.5611
 3255TIP3    H233961   2.281   2.364  17.109  0.7306  1.5424  1.4892
 3256TIP3   OH233962   1.616   4.171  16.095 -0.0152  0.0765 -0.0010
 3256TIP3    H133963   1.564   4.123  16.159 -1.6600 -0.0267 -1.3378
 3256TIP3    H233964   1.694   4.198  16.142  0.7199 -3.3554  0.9771
 3257TIP3   OH233965   3.150   4.690  16.273  0.4687  0.4570  0.1879
 3257TIP3    H133966   3.219   4.629  16.299 -1.1942 -1.7306 -0.2402
 3257TIP3    H233967   3.189   4.742  16.203  1.6723 -0.7644 -0.0917
 3258TIP3   OH233968   1.396   6.424  17.474  0.2180 -0.8858  0.1708
 3258TIP3    H133969   1.427   6.339  17.442 -0.8119 -1.3279  0.2821
 3258TIP3    H233970   1.470   6.460  17.523  1.9934  0.0058 -2.9077
 3259TIP3   OH233971   1.061   3.590  15.463  0.2209 -1.0986  0.7961
 3259TIP3    H133972   0.976   3.589  15.418  0.8007  0.3517 -0.4032
 3259TIP3    H233973   1.047   3.644  15.541  0.2447 -0.1256  0.1374
 3260TIP3   OH233974   1.741   6.212  17.229  0.4416 -0.3849  0.1074
 3260TIP3    H133975   1.799   6.272  17.276 -0.6242  0.4236  0.4256
 3260TIP3    H233976   1.672   6.268  17.193 -0.8278 -1.4586  0.7820
 3261TIP3   OH233977   2.123   5.623  15.505 -0.0290  0.3912 -0.2386
 3261TIP3    H133978   2.212   5.647  15.480  0.2295  0.6383  0.8832
 3261TIP3    H233979   2.122   5.527  15.503 -0.6087  0.3572 -3.1343
 3262TIP3   OH233980   2.959   1.827  14.579  0.0000  0.4275 -0.0641
 3262TIP3    H133981   2.976   1.880  14.657  0.7473  1.6825 -1.0352
 3262TIP3    H233982   2.866   1.839  14.562  0.1380  1.3472 -0.2063
 3263TIP3   OH233983   6.410   0.428  17.764 -0.3794 -0.5500  0.4935
 3263TIP3    H133984   6.421   0.340  17.800  1.1478 -0.4330  0.3831
 3263TIP3    H233985   6.427   0.486  17.838  0.5689 -0.3378  0.1226
 3264TIP3   OH233986   4.923   4.119  15.910 -0.1854 -0.5478  0.2366
 3264TIP3    H133987   4.856   4.051  15.899 -0.3198 -0.6117  1.3302
 3264TIP3    H233988   4.917   4.144  16.002  0.1099  0.7003 -0.0673
 3265TIP3   OH233989   2.221   1.824  18.001  0.5308  0.8725  0.5480
 3265TIP3    H133990   2.214   1.856  18.091  2.4738 -0.7958  1.3652
 3265TIP3    H233991   2.307   1.853  17.971  0.3205  0.5527 -0.4184
 3266TIP3   OH233992   6.498   1.811  16.844  0.1616  0.3757 -0.1616
 3266TIP3    H133993   6.556   1.845  16.776 -1.0743  1.8856 -0.5174
 3266TIP3    H233994   6.431   1.762  16.796  0.0931  0.2449  0.0686
 3267TIP3   OH233995   3.337   2.703  16.530  0.3163 -0.6603  0.4411
 3267TIP3    H133996   3.388   2.652  16.593 -0.4553  0.8076  2.3800
 3267TIP3    H233997   3.246   2.688  16.555  0.0610  1.7227  1.2542
 3268TIP3   OH233998   5.212   0.117  16.597 -0.3209  0.4814 -0.1106
 3268TIP3    H133999   5.138   0.058  16.581  1.0178 -1.1191 -0.6774
 3268TIP3    H234000   5.214   0.127  16.692 -0.0845 -1.1111  0.0794
 3269TIP3   OH234001   6.382   5.756  15.435 -0.9583  0.6828  0.0011
 3269TIP3    H134002   6.409   5.739  15.345 -0.4983 -1.4372  0.4813
 3269TIP3    H234003   6.288   5.771  15.430 -0.9231  0.6416 -0.8444
 3270TIP3   OH234004   2.071   0.395  17.647  0.0273  0.5919  0.6145
 3270TIP3    H134005   2.022   0.317  17.671  0.6551  0.3596  1.1751
 3270TIP3    H234006   2.144   0.398  17.709 -0.7226  2.3566  1.5171
 3271TIP3   OH234007   6.546   4.053  14.679  0.1229 -0.0357  0.8437
 3271TIP3    H134008   6.465   4.052  14.628  0.0832  0.4373  0.8956
 3271TIP3    H234009   6.530   4.116  14.749  1.4799  2.2132 -0.7100
 3272TIP3   OH234010   3.514   2.288  17.429 -0.0173 -0.3854  0.7346
 3272TIP3    H134011   3.455   2.352  17.467 -0.9247  0.6217 -2.1058
 3272TIP3    H234012   3.489   2.204  17.468 -0.8611  0.5468  2.2533
 3273TIP3   OH234013   5.824   5.658  14.956 -0.3673  0.0230  0.1953
 3273TIP3    H134014   5.898   5.680  15.012  0.4470  2.3870 -1.6337
 3273TIP3    H234015   5.852   5.577  14.912  1.1850  0.8487 -0.4402
 3274TIP3   OH234016   1.888   1.064  17.740 -0.2922 -0.2871 -0.1500
 3274TIP3    H134017   1.927   1.145  17.773 -2.0728  0.6850 -0.2948
 3274TIP3    H234018   1.853   1.021  17.818  0.6206 -0.9156 -0.0783
 3275TIP3   OH234019   1.286   5.320  15.446 -0.4462  0.1686 -1.0648
 3275TIP3    H134020   1.330   5.403  15.432  0.7961 -0.0797  1.0097
 3275TIP3    H234021   1.243   5.329  15.531 -0.8115 -1.0973 -1.0935
 3276TIP3   OH234022   1.313   1.890  16.064 -0.2159  0.0168 -0.2431
 3276TIP3    H134023   1.321   1.983  16.087  0.9333  0.5817 -2.6360
 3276TIP3    H234024   1.225   1.882  16.027 -0.5319 -0.0034  0.4915
 3277TIP3   OH234025   4.748   1.374  16.641 -0.4079  0.9292 -0.2780
 3277TIP3    H134026   4.783   1.320  16.570  1.4972  1.4119  0.2593
 3277TIP3    H234027   4.730   1.459  16.600 -1.9383  0.4044 -0.7687
 3278TIP3   OH234028   1.432   4.807  15.579 -0.0065  0.1348  0.2643
 3278TIP3    H134029   1.423   4.714  15.559 -2.2998  0.1356  1.0239
 3278TIP3    H234030   1.347   4.845  15.556 -0.2183  1.4329  2.8696
 3279TIP3   OH234031   0.939   0.145  16.363  0.1151  0.4958 -0.2133
 3279TIP3    H134032   1.008   0.113  16.304  0.6641  0.2914  0.5215
 3279TIP3    H234033   0.925   0.072  16.424  0.1825  1.0238  0.4468
 3280TIP3   OH234034   3.586   5.771  17.777  0.4116 -0.1844 -0.5287
 3280TIP3    H134035   3.538   5.754  17.696 -0.1855  0.3228 -0.2868
 3280TIP3    H234036   3.672   5.731  17.762 -0.0968 -1.1577 -0.9443
 3281TIP3   OH234037   5.648   5.539  15.193  0.6457  0.1949 -0.3929
 3281TIP3    H134038   5.570   5.560  15.142  1.3014 -0.9382 -1.9360
 3281TIP3    H234039   5.626   5.567  15.282 -2.6598 -2.6633 -0.1177
 3282TIP3   OH234040   1.191   0.216  17.250  0.2820 -0.1222  0.1712
 3282TIP3    H134041   1.203   0.202  17.344  2.6327 -1.0858 -0.2057
 3282TIP3    H234042   1.178   0.128  17.214 -1.3253  0.2931 -0.3769
 3283TIP3   OH234043   2.823   4.618  17.062  0.1303 -0.3305 -0.5872
 3283TIP3    H134044   2.888   4.637  17.130 -1.4464 -0.2563  0.9657
 3283TIP3    H234045   2.773   4.699  17.053 -0.8184 -0.8971 -0.5349
 3284TIP3   OH234046   2.313   1.523  15.476 -0.2206  0.0015  0.0596
 3284TIP3    H134047   2.299   1.437  15.516 -0.9230 -0.3704 -0.9287
 3284TIP3    H234048   2.225   1.552  15.450 -0.2661  1.8867  2.0280
 3285TIP3   OH234049   5.101   6.608  16.020  0.0944  0.2502 -0.1879
 3285TIP3    H134050   5.169   6.573  15.960 -1.1802 -1.7356 -0.5848
 3285TIP3    H234051   5.083   6.696  15.987  0.2920 -0.3482 -2.0206
 3286TIP3   OH234052   6.606   3.171  16.559 -0.1863 -0.1759  0.3676
 3286TIP3    H134053   6.691   3.204  16.587 -0.9357  2.8910 -0.5364
 3286TIP3    H234054   6.615   3.159  16.464 -0.4698 -0.8983  0.4257
 3287TIP3   OH234055   1.121   3.952  16.586  0.5004  0.0213 -0.7887
 3287TIP3    H134056   1.214   3.931  16.578  0.2528 -2.5769  1.7119
 3287TIP3    H234057   1.077   3.882  16.539 -0.2571  1.0960 -1.7267
 3288TIP3   OH234058   1.890   2.886  16.775  0.5641 -0.5641  0.6031
 3288TIP3    H134059   1.797   2.867  16.772  0.2572  0.9410 -0.3552
 3288TIP3    H234060   1.902   2.939  16.854  0.7032 -1.1281  0.9684
 3289TIP3   OH234061   6.261   0.016  15.865  0.0050  0.8298 -0.1680
 3289TIP3    H134062   6.345  -0.027  15.881 -1.2951 -1.3268  1.6218
 3289TIP3    H234063   6.250   0.075  15.940 -1.0419 -0.6762  0.9304
 3290TIP3   OH234064   2.066   1.090  16.374 -0.2970 -0.2855 -0.0078
 3290TIP3    H134065   2.086   1.005  16.415 -2.1842 -1.5461 -1.5601
 3290TIP3    H234066   2.073   1.153  16.446  1.6383 -1.6351  1.0963
 3291TIP3   OH234067   4.982   1.951  16.061  0.3580 -0.1650  0.6544
 3291TIP3    H134068   4.976   2.009  16.137 -1.5000  1.2248 -0.4710
 3291TIP3    H234069   5.070   1.966  16.026  1.1846 -0.7025  2.3521
 3292TIP3   OH234070   1.407   6.095  15.138  0.5904 -0.6083 -0.1145
 3292TIP3    H134071   1.417   6.008  15.099  1.0419 -0.6031 -0.0148
 3292TIP3    H234072   1.492   6.137  15.126  0.3289 -0.1205 -0.2987
 3293TIP3   OH234073   4.354   0.851  15.298  0.1518 -0.3230 -0.7557
 3293TIP3    H134074   4.405   0.770  15.290  1.9285  0.6793 -0.1066
 3293TIP3    H234075   4.279   0.826  15.351 -0.4729 -2.0161 -2.3332
 3294TIP3   OH234076   5.069   3.498  17.844 -0.2800 -0.1464 -0.1235
 3294TIP3    H134077   5.157   3.534  17.858  0.0886 -1.4074  0.9625
 3294TIP3    H234078   5.027   3.562  17.787  1.0465  0.9289  0.0295
 3295TIP3   OH234079   4.740   0.834  16.010 -0.1666 -0.0969 -0.1461
 3295TIP3    H134080   4.723   0.882  16.091  0.5503  1.2034 -0.7439
 3295TIP3    H234081   4.656   0.794  15.988 -0.5646  0.1822  0.8161
 3296TIP3   OH234082   4.986   5.531  17.338 -0.0939  0.6575  0.3205
 3296TIP3    H134083   4.981   5.584  17.258  0.3772  0.8560  0.4154
 3296TIP3    H234084   4.929   5.577  17.400 -0.3807  0.5599  0.1269
 3297TIP3   OH234085   0.866   6.442  15.416 -0.4647  0.0696 -0.2904
 3297TIP3    H134086   0.892   6.392  15.339  3.3859  2.7347 -1.0485
 3297TIP3    H234087   0.927   6.415  15.484 -1.9724 -0.2149  0.9867
 3298TIP3   OH234088   4.157   6.640  15.567  0.0415  0.1874 -0.1053
 3298TIP3    H134089   4.222   6.683  15.511  0.2059  0.8986  0.6101
 3298TIP3    H234090   4.190   6.551  15.577  1.7862  0.9403  1.5208
 3299TIP3   OH234091   2.929   2.539  15.755  0.5824  0.4259 -0.3338
 3299TIP3    H134092   2.973   2.622  15.772  2.0744  0.1365 -2.3744
 3299TIP3    H234093   2.886   2.551  15.670 -0.5147 -0.4077  0.0782
 3300TIP3   OH234094   5.404   4.296  15.569 -0.2402  0.6067 -0.8486
 3300TIP3    H134095   5.433   4.288  15.478  0.9065 -0.5102 -0.4157
 3300TIP3    H234096   5.431   4.214  15.610  0.2388  1.5205  0.7543
 3301TIP3   OH234097   5.579   3.721  15.673  0.2747 -0.1985  0.8547
 3301TIP3    H134098   5.630   3.665  15.614 -0.1830  0.2467  0.0154
 3301TIP3    H234099   5.549   3.793  15.618 -0.8867 -0.2092  1.4366
 3302TIP3   OH234100   6.291   4.268  16.556  0.4010 -0.4617  0.0784
 3302TIP3    H134101   6.241   4.316  16.492  2.0164 -0.4203 -1.2151
 3302TIP3    H234102   6.229   4.206  16.594 -1.0163  0.7509 -0.1966
 3303TIP3   OH234103   6.631   2.346  17.600  0.0250 -0.0576  0.1414
 3303TIP3    H134104   6.696   2.365  17.667  0.4130  1.8269 -0.7118
 3303TIP3    H234105   6.563   2.296  17.645 -0.9577  3.1865  2.6151
 3304TIP3   OH234106   5.080   0.227  17.480  0.1309 -0.3578 -0.1539
 3304TIP3    H134107   5.145   0.230  17.410  1.1190 -1.0959  0.7114
 3304TIP3    H234108   5.040   0.314  17.478 -0.9793 -0.8309 -2.6349
 3305TIP3   OH234109   6.439   0.181  15.540  0.0794  0.5230 -0.0402
 3305TIP3    H134110   6.462   0.103  15.489  0.0275 -0.0807  0.8311
 3305TIP3    H234111   6.513   0.240  15.527  1.8579 -1.0506  2.0421
 3306TIP3   OH234112   2.778   1.482  16.311  0.1556  0.2171 -0.5822
 3306TIP3    H134113   2.725   1.463  16.233  2.9173  1.1952 -2.8785
 3306TIP3    H234114   2.805   1.573  16.301  1.1439  0.1797  1.1980
 3307TIP3   OH234115   0.005   3.871  16.076  0.4200  0.1618  0.3717
 3307TIP3    H134116  -0.084   3.841  16.091  1.2822 -2.2485  0.9733
 3307TIP3    H234117   0.015   3.871  15.981 -0.3318  0.9150  0.2787
 3308TIP3   OH234118   0.747   6.174  16.236 -0.5448  0.0341 -0.2025
 3308TIP3    H134119   0.825   6.226  16.219 -1.0161  0.4749 -1.0818
 3308TIP3    H234120   0.713   6.152  16.150 -0.3266 -1.8069  0.1374
 3309TIP3   OH234121   4.171   3.934  16.024 -0.1191  0.3307 -0.3002
 3309TIP3    H134122   4.079   3.939  16.049 -0.3029 -0.1787 -0.8522
 3309TIP3    H234123   4.203   4.024  16.029 -0.8196  0.6072 -0.7330
 3310TIP3   OH234124   5.427   4.166  17.165 -0.1076  0.0854 -0.2612
 3310TIP3    H134125   5.346   4.120  17.190  0.9226 -0.7838  1.6844
 3310TIP3    H234126   5.490   4.096  17.148  0.4157  0.7613 -1.1914
 3311TIP3   OH234127   3.565   4.530  15.296  0.1055  0.4777 -0.0601
 3311TIP3    H134128   3.506   4.486  15.235 -0.8946  1.1509  0.4052
 3311TIP3    H234129   3.638   4.469  15.305 -1.0720 -0.9407  0.2881
 3312TIP3   OH234130   5.132   6.589  14.446  0.1266  0.1035  0.5173
 3312TIP3    H134131   5.193   6.556  14.380 -0.2836  0.5065 -0.0700
 3312TIP3    H234132   5.135   6.684  14.436 -0.1784  0.1508  0.8709
 3313TIP3   OH234133   1.571   3.780  16.828 -0.1666 -0.1957  0.1750
 3313TIP3    H134134   1.539   3.695  16.859  0.3316 -0.6087 -0.4234
 3313TIP3    H234135   1.658   3.789  16.867 -0.2645  0.0948  0.3295
 3314TIP3   OH234136   1.537   3.389  14.197  0.3220  0.4804  0.1253
 3314TIP3    H134137   1.492   3.308  14.219  2.2430 -0.7748 -0.3251
 3314TIP3    H234138   1.476   3.436  14.140 -0.2734 -1.3180 -0.7898
 3315TIP3   OH234139   3.700   2.818  15.617 -0.1699  0.0549 -0.3439
 3315TIP3    H134140   3.715   2.783  15.705 -0.5763  1.9949  0.5398
 3315TIP3    H234141   3.786   2.815  15.575  0.1010 -0.5236  0.2322
 3316TIP3   OH234142   3.264   3.950  17.828 -0.1837  0.1660 -0.2706
 3316TIP3    H134143   3.339   3.965  17.770  0.0186  1.3371  0.2558
 3316TIP3    H234144   3.301   3.907  17.904 -0.2426 -0.2697 -0.4862
 3317TIP3   OH234145   0.731   5.547  15.710  0.4625  0.1223  0.3776
 3317TIP3    H134146   0.680   5.599  15.648  1.2759  0.3011 -0.1569
 3317TIP3    H234147   0.674   5.474  15.733 -0.3994  0.8446  0.5497
 3318TIP3   OH234148   6.253   1.811  14.701  0.2140 -0.0958  0.3304
 3318TIP3    H134149   6.315   1.846  14.637 -0.5908 -1.4612 -1.2850
 3318TIP3    H234150   6.208   1.888  14.735  1.8604  0.8005  0.5473
 3319TIP3   OH234151   5.309   5.232  15.131  0.1530  0.2298  0.4138
 3319TIP3    H134152   5.271   5.310  15.093 -0.1126 -0.6165 -1.1218
 3319TIP3    H234153   5.234   5.176  15.152  0.3806  0.0025  0.6347
 3320TIP3   OH234154   3.674   1.553  14.760 -0.2074 -0.1188 -0.2412
 3320TIP3    H134155   3.677   1.460  14.739  0.8067 -0.2476  0.3757
 3320TIP3    H234156   3.595   1.564  14.813 -0.0720 -0.7270  0.0925
 3321TIP3   OH234157   6.056   3.534  15.689 -0.2264 -0.5659  0.3027
 3321TIP3    H134158   6.151   3.526  15.696 -0.2278 -0.6303  0.2417
 3321TIP3    H234159   6.042   3.587  15.610 -0.2336 -0.3657  0.4355
 3322TIP3   OH234160   1.358   1.024  15.696 -0.2448 -0.1582  0.6308
 3322TIP3    H134161   1.409   1.104  15.713 -1.2334  1.0535 -1.6687
 3322TIP3    H234162   1.418   0.968  15.647 -1.2781  1.7945 -3.2380
 3323TIP3   OH234163   6.762   1.036  15.996  0.0851 -0.1579 -0.2632
 3323TIP3    H134164   6.702   1.060  16.067  0.4321 -0.0829  0.0066
 3323TIP3    H234165   6.819   0.969  16.033 -0.1457 -0.5797 -0.6701
 3324TIP3   OH234166   2.389   0.304  16.029 -0.3599 -0.2622  0.1184
 3324TIP3    H134167   2.380   0.369  15.959  2.0099 -0.0267 -0.0555
 3324TIP3    H234168   2.348   0.225  15.994 -1.3765  0.5235 -0.5215
 3325TIP3   OH234169   4.979   3.131  16.268 -0.2963  0.2760  0.0216
 3325TIP3    H134170   4.911   3.107  16.205  0.4866 -0.9902 -0.3753
 3325TIP3    H234171   5.004   3.220  16.243  0.3927 -0.3977 -1.8666
 3326TIP3   OH234172   3.584   5.370  17.867 -0.1970  0.1190  0.0345
 3326TIP3    H134173   3.512   5.426  17.895  0.2029 -0.0229  1.3963
 3326TIP3    H234174   3.596   5.391  17.774 -2.4591 -0.3982 -0.4211
 3327TIP3   OH234175   2.377   5.434  15.857  0.5374 -0.1654 -0.3436
 3327TIP3    H134176   2.326   5.511  15.832 -2.4814 -2.5868 -2.4831
 3327TIP3    H234177   2.453   5.436  15.799 -0.0729  0.6728 -1.1547
 3328TIP3   OH234178   6.255   1.140  16.087  0.0504 -0.1484  0.0721
 3328TIP3    H134179   6.238   1.234  16.087 -1.3373 -0.3835 -0.4512
 3328TIP3    H234180   6.173   1.100  16.115  0.4832 -1.2324 -0.1337
 3329TIP3   OH234181   4.016   2.058  18.271 -0.2576 -0.0643  0.8288
 3329TIP3    H134182   3.947   2.051  18.337  1.9794  1.1956  3.5318
 3329TIP3    H234183   4.093   2.086  18.321  1.8570 -0.0064 -2.2315
 3330TIP3   OH234184   0.003   3.789  17.378  0.0239 -0.0532  0.0385
 3330TIP3    H134185   0.046   3.782  17.293  0.3567 -0.4493  0.2385
 3330TIP3    H234186  -0.090   3.778  17.358 -0.2042  2.3398 -0.6183
 3331TIP3   OH234187   0.089   4.164  16.851  0.0789  0.3305  0.1535
 3331TIP3    H134188   0.058   4.244  16.808  1.2983 -0.1663 -1.7722
 3331TIP3    H234189   0.135   4.195  16.928  1.4375  1.6075 -1.1113
 3332TIP3   OH234190   6.696   1.718  17.535  0.4007  0.6110 -0.1231
 3332TIP3    H134191   6.601   1.709  17.545  0.4430  0.6221  0.3296
 3332TIP3    H234192   6.731   1.646  17.588  0.7033  2.0139  1.7040
 3333TIP3   OH234193   6.265   2.235  18.073  0.2713 -0.3341 -0.4620
 3333TIP3    H134194   6.221   2.199  17.996 -0.0048  1.2603 -1.0773
 3333TIP3    H234195   6.207   2.304  18.105  0.9070 -0.2248  0.5180
 3334TIP3   OH234196   5.308   1.223  15.264 -0.0444  0.5262  0.5322
 3334TIP3    H134197   5.248   1.297  15.260  0.7337  1.1237 -0.2425
 3334TIP3    H234198   5.330   1.216  15.357 -1.7583 -0.0912  0.9294
 3335TIP3   OH234199   6.177   0.158  17.285 -0.2724 -0.2947  0.6405
 3335TIP3    H134200   6.218   0.204  17.359 -1.3354  0.4903  0.7624
 3335TIP3    H234201   6.245   0.098  17.254  0.9381  0.8919  0.8965
 3336TIP3   OH234202   0.158   2.373  17.101  0.2346 -0.1450  0.6578
 3336TIP3    H134203   0.075   2.398  17.059  0.4161  0.2487  0.5252
 3336TIP3    H234204   0.133   2.344  17.189 -0.1917 -1.3002  0.1791
 3337TIP3   OH234205   0.897   1.796  17.712  0.1737 -0.6174  0.0963
 3337TIP3    H134206   0.827   1.833  17.658 -0.2556 -0.3466  0.8220
 3337TIP3    H234207   0.953   1.871  17.733  0.9592 -0.9117 -0.8669
 3338TIP3   OH234208   2.291   4.436  17.626  0.1923 -0.1840 -0.0679
 3338TIP3    H134209   2.367   4.492  17.634 -0.4112  0.5619  0.6564
 3338TIP3    H234210   2.284   4.417  17.533  0.7215  0.4997 -0.2543
 3339TIP3   OH234211   4.765   0.865  15.245  0.6134  0.1644  0.3305
 3339TIP3    H134212   4.824   0.920  15.194  2.3104 -1.6396  0.2249
 3339TIP3    H234213   4.789   0.881  15.336  1.4391 -0.6704  0.2825
 3340TIP3   OH234214   4.485   4.848  17.200 -0.2235  0.6814  0.0571
 3340TIP3    H134215   4.429   4.771  17.201 -0.0606  0.5483  1.8612
 3340TIP3    H234216   4.572   4.814  17.179 -0.1031  0.2961  1.0961
 3341TIP3   OH234217   5.446   0.516  15.519  0.2896  0.5489  0.3358
 3341TIP3    H134218   5.428   0.430  15.480 -0.9182  1.1026 -0.3790
 3341TIP3    H234219   5.527   0.503  15.569  0.5084 -0.8248 -0.3241
 3342TIP3   OH234220   4.751   1.671  17.232  0.0903  0.5910  0.2313
 3342TIP3    H134221   4.790   1.608  17.171  1.7133  1.0954  0.7179
 3342TIP3    H234222   4.667   1.694  17.191  0.1176 -0.7809 -0.6673
 3343TIP3   OH234223   3.208   5.375  15.890  0.1046 -0.0063  0.1394
 3343TIP3    H134224   3.115   5.353  15.880  0.6293 -1.8469 -1.2472
 3343TIP3    H234225   3.254   5.311  15.836  2.3012  0.0073  1.8352
 3344TIP3   OH234226   6.610   0.039  16.678 -0.2059 -0.3923  0.1611
 3344TIP3    H134227   6.605   0.070  16.768 -2.8505  0.0693 -0.0785
 3344TIP3    H234228   6.584  -0.053  16.682 -1.0174 -0.1862 -0.2019
 3345TIP3   OH234229   4.094   3.162  16.792 -0.3186  0.1698 -0.1544
 3345TIP3    H134230   4.115   3.069  16.790 -0.6993  0.0903 -1.1638
 3345TIP3    H234231   4.010   3.168  16.838 -1.6278 -0.3036 -2.3274
 3346TIP3   OH234232   4.453   4.541  17.908 -0.1302  0.2571 -0.2082
 3346TIP3    H134233   4.413   4.489  17.978 -2.0725  0.0812 -1.3668
 3346TIP3    H234234   4.433   4.632  17.931 -0.5799  0.2121 -0.4038
 3347TIP3   OH234235   2.349   1.921  16.525  0.4168 -0.3978 -0.8148
 3347TIP3    H134236   2.427   1.935  16.579 -0.5201  1.3010  0.1911
 3347TIP3    H234237   2.382   1.886  16.442  2.1920 -0.0986 -0.2576
 3348TIP3   OH234238   5.326   3.965  17.428  0.8276 -0.4440 -0.0474
 3348TIP3    H134239   5.282   3.977  17.512  1.5345 -0.8653  0.3928
 3348TIP3    H234240   5.386   3.891  17.443  0.9940 -0.4852 -0.9032
 3349TIP3   OH234241   1.683   0.918  15.878  0.5269  0.2614 -0.2718
 3349TIP3    H134242   1.741   0.994  15.884  1.3423 -0.4573  1.3662
 3349TIP3    H234243   1.729   0.848  15.923 -0.0851 -1.3225 -1.9729
 3350TIP3   OH234244   4.231   6.145  15.352  0.4024 -0.3325 -0.0977
 3350TIP3    H134245   4.274   6.222  15.317  2.4636 -0.8203  1.1822
 3350TIP3    H234246   4.275   6.071  15.311 -0.5502 -0.8575 -0.2102
 3351TIP3   OH234247   4.329   6.375  14.565 -0.8091  0.2153  0.5927
 3351TIP3    H134248   4.252   6.367  14.622 -1.0662  1.7283  0.4868
 3351TIP3    H234249   4.327   6.465  14.534  0.0668 -0.2097 -0.7783
 3352TIP3   OH234250   0.205   3.753  17.878  0.2575  0.4922 -0.1641
 3352TIP3    H134251   0.126   3.795  17.913 -0.8348 -1.8115  0.3277
 3352TIP3    H234252   0.184   3.737  17.786  0.8245  1.3183 -0.4481
 3353TIP3   OH234253   6.100   2.698  15.524 -0.7714  0.2642 -0.0177
 3353TIP3    H134254   6.144   2.618  15.554 -0.4540  0.5456  0.2748
 3353TIP3    H234255   6.166   2.742  15.470 -1.2032 -0.0474 -0.8325
 3354TIP3   OH234256   6.623   5.386  15.931  0.0900 -0.1026 -0.0429
 3354TIP3    H134257   6.547   5.328  15.921  0.8566 -1.4172  1.3068
 3354TIP3    H234258   6.586   5.466  15.968 -1.0742  0.5730 -2.4738
 3355TIP3   OH234259   0.175   4.462  15.939  0.7315  0.0821 -0.0581
 3355TIP3    H134260   0.183   4.548  15.981  0.3307  0.6687 -1.1221
 3355TIP3    H234261   0.132   4.407  16.004  0.9851  0.6835  0.6399
 3356TIP3   OH234262   6.125   0.185  17.805  0.0024  0.3069 -0.2915
 3356TIP3    H134263   6.080   0.179  17.889 -2.1642  0.2620 -1.3811
 3356TIP3    H234264   6.143   0.094  17.781  0.6341  0.3203  0.0912
 3357TIP3   OH234265   1.013   0.443  15.378 -0.7334  0.1608 -0.3333
 3357TIP3    H134266   1.026   0.533  15.407  1.7899 -0.8648  2.2287
 3357TIP3    H234267   1.043   0.443  15.287 -2.1260  2.1217 -0.8620
 3358TIP3   OH234268   1.503   3.436  17.500  0.4578  0.0524  0.5017
 3358TIP3    H134269   1.507   3.507  17.564 -1.9556 -0.3698  1.2180
 3358TIP3    H234270   1.491   3.479  17.416 -1.9572  0.5584  1.0382
 3359TIP3   OH234271   1.088   4.555  16.594  0.0305  0.4227  0.1757
 3359TIP3    H134272   1.011   4.589  16.548 -1.4424 -2.0673  0.6256
 3359TIP3    H234273   1.062   4.556  16.686  1.2927  1.2843  0.5427
 3360TIP3   OH234274   1.885   3.477  17.526 -0.7310 -0.1611  0.1842
 3360TIP3    H134275   1.841   3.395  17.549 -0.7219 -0.2008  0.0629
 3360TIP3    H234276   1.935   3.501  17.605  0.6100 -1.1517 -0.3221
 3361TIP3   OH234277   2.995   2.779  17.274 -0.6363  0.6884  0.5286
 3361TIP3    H134278   3.011   2.796  17.367 -1.3587 -0.7224  0.9436
 3361TIP3    H234279   2.903   2.752  17.270 -0.6821  0.9677 -0.6347
 3362TIP3   OH234280   1.606   0.490  16.494  0.0484 -0.2583 -0.5464
 3362TIP3    H134281   1.570   0.413  16.538 -0.9529  0.2542 -0.4140
 3362TIP3    H234282   1.689   0.507  16.538 -0.1700 -0.7110  0.0468
 3363TIP3   OH234283   6.109   5.331  15.529  0.1895 -0.0399 -0.1427
 3363TIP3    H134284   6.047   5.401  15.507  0.7003  0.5008  0.1125
 3363TIP3    H234285   6.183   5.345  15.470  0.5739  0.0397  0.3475
 3364TIP3   OH234286   6.119   1.339  16.467 -0.2523  0.1522  0.3696
 3364TIP3    H134287   6.023   1.344  16.466 -0.2191  1.7238  1.4196
 3364TIP3    H234288   6.142   1.359  16.558  1.0756 -0.4812  0.1895
 3365TIP3   OH234289   0.734   2.805  16.952 -0.4228  0.0673  0.0992
 3365TIP3    H134290   0.702   2.777  17.038 -0.5945 -0.9270 -0.2762
 3365TIP3    H234291   0.829   2.813  16.962 -0.3514 -0.8187  0.1756
 3366TIP3   OH234292   0.075   0.081  14.918  0.3479  0.4268  0.2414
 3366TIP3    H134293   0.157   0.112  14.957  0.0499  0.1171  1.1303
 3366TIP3    H234294   0.101   0.005  14.866  0.4581 -0.5140  1.6112
 3367TIP3   OH234295   2.058   6.383  17.026 -0.1598 -0.8464  0.0693
 3367TIP3    H134296   2.085   6.309  17.080 -0.5162 -0.0224  1.4323
 3367TIP3    H234297   2.086   6.460  17.075 -0.2066 -0.0580 -1.0931
 3368TIP3   OH234298   6.416   5.363  17.528  0.1127 -0.3348 -0.3385
 3368TIP3    H134299   6.509   5.359  17.504 -0.0368 -1.9762 -0.7593
 3368TIP3    H234300   6.380   5.281  17.497 -1.6141  0.4965 -0.6352
 3369TIP3   OH234301   4.996   2.655  17.837  0.8079 -0.1702  0.7419
 3369TIP3    H134302   4.998   2.560  17.839 -0.5078 -0.3881 -2.2095
 3369TIP3    H234303   4.914   2.679  17.881  0.4842 -0.5294  0.3467
 3370TIP3   OH234304   4.112   5.064  17.732  0.1826  0.1633  0.5920
 3370TIP3    H134305   4.048   5.116  17.780 -0.5927 -0.9813  0.8567
 3370TIP3    H234306   4.096   4.974  17.762  0.3517 -0.4472 -1.0555
 3371TIP3   OH234307   4.134   0.666  17.820 -0.2367 -0.6205  0.2449
 3371TIP3    H134308   4.076   0.700  17.888  1.0084 -0.4143  1.2387
 3371TIP3    H234309   4.124   0.726  17.747 -2.0527 -1.1779 -0.0297
 3372TIP3   OH234310   3.900   1.646  17.089  0.2731 -0.1429  0.2772
 3372TIP3    H134311   3.919   1.562  17.131 -0.1000 -0.5747 -0.4011
 3372TIP3    H234312   3.815   1.672  17.125 -0.1791 -0.6493 -0.4038
 3373TIP3   OH234313   6.366   4.560  17.495  0.2625  0.2889 -0.4192
 3373TIP3    H134314   6.365   4.518  17.581  3.6691  1.2658  0.2441
 3373TIP3    H234315   6.335   4.649  17.511 -0.4815  0.0453 -0.4965
 3374TIP3   OH234316   0.896   3.802  17.229 -0.7242  0.0851 -0.3722
 3374TIP3    H134317   0.845   3.878  17.257  0.0020  0.2589  0.5049
 3374TIP3    H234318   0.889   3.740  17.302  0.1627  0.0399 -0.3169
 3375TIP3   OH234319   6.510   2.748  15.465 -0.6555  0.3993  0.5091
 3375TIP3    H134320   6.424   2.787  15.449 -0.5530  0.3213 -0.2723
 3375TIP3    H234321   6.495   2.654  15.462 -0.9391  0.3424  2.5906
 3376TIP3   OH234322   4.905   3.924  17.488 -0.2151 -0.2039  0.4625
 3376TIP3    H134323   4.910   3.966  17.574  1.5125 -1.9654  1.2912
 3376TIP3    H234324   4.925   3.994  17.427  1.0699  0.5438  1.6805
 3377TIP3   OH234325   4.789   0.506  16.007 -0.0161 -0.0505  0.5344
 3377TIP3    H134326   4.858   0.568  15.983 -0.6970  1.0741  1.3951
 3377TIP3    H234327   4.793   0.501  16.103 -1.2080  0.1357  0.6069
 3378TIP3   OH234328   4.075   4.554  15.678  0.2049  0.3297  0.0587
 3378TIP3    H134329   4.004   4.553  15.743  0.3430  0.1210  0.2094
 3378TIP3    H234330   4.083   4.645  15.653 -0.8164  0.2230 -0.7349
 3379TIP3   OH234331   2.887   0.818  17.178  0.2097 -0.1899  0.1063
 3379TIP3    H134332   2.800   0.779  17.181 -0.3810  1.1127  0.6103
 3379TIP3    H234333   2.944   0.747  17.148 -1.0638 -0.9762 -0.5341
 3380TIP3   OH234334   3.774   5.895  14.871 -0.6798  0.1475 -0.7814
 3380TIP3    H134335   3.860   5.858  14.890 -0.5437  1.1355  0.7326
 3380TIP3    H234336   3.788   5.951  14.795 -0.4398 -1.2353 -1.7763
 3381TIP3   OH234337   0.659   4.517  16.799 -0.7806 -0.2935 -0.2320
 3381TIP3    H134338   0.707   4.597  16.821 -2.9179  0.6143  1.6464
 3381TIP3    H234339   0.569   4.536  16.826 -2.0051 -2.2655 -2.5845
 3382TIP3   OH234340   3.028   0.819  17.636 -0.1392  0.4908  0.0443
 3382TIP3    H134341   2.962   0.785  17.576 -0.9573  0.5515  0.8888
 3382TIP3    H234342   3.011   0.913  17.640  2.8196  1.3944 -3.1711
 3383TIP3   OH234343   4.522   3.001  16.043  0.1305 -0.1232  0.0108
 3383TIP3    H134344   4.512   2.915  16.002  0.6273 -0.5872  0.8364
 3383TIP3    H234345   4.445   3.010  16.099  1.1668 -1.0559  1.6850
 3384TIP3   OH234346   2.991   2.616  16.114  0.2859 -0.4486 -0.3954
 3384TIP3    H134347   2.949   2.698  16.089  0.7352 -0.1844 -0.3083
 3384TIP3    H234348   2.943   2.548  16.068 -0.7634 -0.2290  0.3535
 3385TIP3   OH234349   2.569   5.039  14.540  0.4685 -0.3456  0.1301
 3385TIP3    H134350   2.512   5.115  14.533  1.3276  0.2041 -1.7216
 3385TIP3    H234351   2.537   4.991  14.616 -1.3920  0.7870  0.1163
 3386TIP3   OH234352   3.521   0.190  17.157  0.1876 -0.4569 -0.1090
 3386TIP3    H134353   3.474   0.199  17.074  1.6347  2.6646 -0.7341
 3386TIP3    H234354   3.607   0.157  17.133  0.2465 -0.6185  0.3060
 3387TIP3   OH234355   3.563   5.614  17.129 -0.3025 -0.1370  0.4739
 3387TIP3    H134356   3.542   5.542  17.069 -1.5676 -0.7575  1.6098
 3387TIP3    H234357   3.605   5.572  17.204  0.8211  0.5775  0.2733
 3388TIP3   OH234358   6.706   4.516  17.352 -0.0982 -0.0501  0.1860
 3388TIP3    H134359   6.633   4.454  17.341 -0.0380 -0.2087  0.6685
 3388TIP3    H234360   6.702   4.540  17.444  0.7757 -0.4434  0.3309
 3389TIP3   OH234361   4.647   5.716  16.862 -0.3374  0.3038 -0.1428
 3389TIP3    H134362   4.711   5.645  16.858 -0.8753 -0.0993 -2.1630
 3389TIP3    H234363   4.655   5.761  16.778 -1.4619  1.3563  0.2848
 3390TIP3   OH234364   0.020   0.524  16.582 -0.2418 -0.1154 -0.1017
 3390TIP3    H134365  -0.028   0.561  16.508 -0.4861 -0.0827  0.0726
 3390TIP3    H234366  -0.043   0.525  16.654 -0.1357 -0.5331 -0.0020
 3391TIP3   OH234367   0.862   4.397  17.147  0.3175 -0.7738  0.4439
 3391TIP3    H134368   0.834   4.350  17.069  1.5921  0.5615 -0.8696
 3391TIP3    H234369   0.946   4.358  17.170  1.3801  0.7331 -0.6475
 3392TIP3   OH234370   1.785   6.098  16.213  0.2332  0.4022  0.0008
 3392TIP3    H134371   1.745   6.184  16.202 -1.4724 -0.3869 -0.2884
 3392TIP3    H234372   1.827   6.102  16.299  0.3670  1.5829 -0.0996
 3393TIP3   OH234373   4.341   1.427  17.099 -0.6425  0.3734  0.6561
 3393TIP3    H134374   4.406   1.460  17.161 -0.2408  0.7253  0.0622
 3393TIP3    H234375   4.273   1.387  17.154 -0.0383  0.2004  1.2924
 3394TIP3   OH234376   2.450   6.748  15.674 -0.2444 -0.2609 -0.6358
 3394TIP3    H134377   2.397   6.674  15.704  1.8406 -1.9893 -0.9737
 3394TIP3    H234378   2.503   6.772  15.750 -0.9731  0.9959 -0.4989
 3395TIP3   OH234379   4.682   0.939  14.843 -0.2981  0.0535 -0.2527
 3395TIP3    H134380   4.763   0.889  14.849 -1.1579 -1.4043 -0.2915
 3395TIP3    H234381   4.627   0.906  14.913 -1.6771 -0.5679 -1.5602
 3396TIP3   OH234382   1.469   3.336  15.133 -0.0314  0.1052  0.2434
 3396TIP3    H134383   1.459   3.411  15.192 -3.4092  0.9433 -1.1865
 3396TIP3    H234384   1.428   3.263  15.179 -1.2514  0.3786 -0.3918
 3397TIP3   OH234385   3.860   2.565  15.849  0.7106  0.1083  0.2318
 3397TIP3    H134386   3.870   2.471  15.831 -0.7119  0.1220 -0.8204
 3397TIP3    H234387   3.862   2.571  15.945 -1.6207 -1.3551  0.4661
 3398TIP3   OH234388   1.537   1.886  17.064  0.6175 -0.5274 -0.4283
 3398TIP3    H134389   1.527   1.819  16.997  0.8845 -1.2244  0.2124
 3398TIP3    H234390   1.476   1.860  17.134 -1.7552  1.6736 -1.5015
 3399TIP3   OH234391   5.428   6.046  16.298 -0.1809 -0.3933  0.2601
 3399TIP3    H134392   5.488   6.120  16.297  1.2929 -1.5383  1.0889
 3399TIP3    H234393   5.404   6.035  16.390 -0.1447 -1.1312  0.1898
 3400TIP3   OH234394   0.879   1.972  14.663 -0.0459 -0.0498 -0.1322
 3400TIP3    H134395   0.834   1.979  14.579  0.3636  0.7579 -0.2988
 3400TIP3    H234396   0.809   1.962  14.727 -0.4084  0.2636 -0.4760
 3401TIP3   OH234397   1.333   2.844  16.705 -0.0502 -0.2667  0.1316
 3401TIP3    H134398   1.330   2.890  16.621 -1.1408 -0.6113 -0.0351
 3401TIP3    H234399   1.339   2.751  16.680 -1.2983 -0.4348  0.4055
 3402TIP3   OH234400   2.002   0.550  17.262  0.0160 -0.7371 -0.1398
 3402TIP3    H134401   1.966   0.619  17.207 -0.5303 -0.2895  0.7548
 3402TIP3    H234402   2.037   0.595  17.338 -0.8893 -1.4756  0.7451
 3403TIP3   OH234403   6.551   6.542  16.741  0.2908 -0.1465 -0.0722
 3403TIP3    H134404   6.466   6.508  16.766 -0.2021  0.5570 -0.7432
 3403TIP3    H234405   6.579   6.484  16.669  0.0579  0.0493 -0.3219
 3404TIP3   OH234406   1.767   0.400  14.191  0.3085  0.3247  0.0845
 3404TIP3    H134407   1.684   0.366  14.225 -0.3853  1.9497  0.1356
 3404TIP3    H234408   1.748   0.419  14.099  1.3887 -1.5627 -0.5840
 3405TIP3   OH234409   1.809   5.359  16.134 -0.0414 -0.0733 -0.1394
 3405TIP3    H134410   1.739   5.406  16.089 -1.3530 -1.4596  0.4074
 3405TIP3    H234411   1.765   5.299  16.193  1.6190 -0.6282  0.6090
 3406TIP3   OH234412   0.920   0.742  13.972 -0.2830  0.3036  0.4054
 3406TIP3    H134413   0.832   0.714  13.998 -0.7212  1.1831 -0.0487
 3406TIP3    H234414   0.958   0.666  13.929 -1.5593  0.4338 -1.0981
 3407TIP3   OH234415   1.237   2.789  17.100  0.4508 -0.3158 -0.2097
 3407TIP3    H134416   1.304   2.842  17.058 -0.2289  0.0484 -0.8731
 3407TIP3    H234417   1.271   2.700  17.096  0.8577 -0.1455 -0.6185
 3408TIP3   OH234418   0.317   1.434  17.124 -0.2314  0.3893 -0.2222
 3408TIP3    H134419   0.234   1.456  17.167 -0.1737  2.7905 -1.2015
 3408TIP3    H234420   0.375   1.409  17.196 -1.4970 -0.3921  0.5711
 3409TIP3   OH234421   0.529   3.632  15.661  0.6126 -0.1799  0.6008
 3409TIP3    H134422   0.620   3.661  15.651  0.7536 -0.0815  1.9806
 3409TIP3    H234423   0.509   3.589  15.578  1.7758  0.1877  0.1043
 3410TIP3   OH234424   5.926   1.060  14.316 -0.0471  0.0197 -0.3638
 3410TIP3    H134425   5.993   1.026  14.257  1.0728  0.9322  0.3185
 3410TIP3    H234426   5.945   1.154  14.322 -1.3158  0.2709 -0.0443
 3411TIP3   OH234427   5.421   4.433  17.214 -0.3361 -0.6309  0.6130
 3411TIP3    H134428   5.414   4.348  17.171 -1.0584 -0.5029  0.4705
 3411TIP3    H234429   5.331   4.459  17.232 -0.1234  0.1244  0.6306
 3412TIP3   OH234430   2.198   4.969  16.868 -0.0519 -0.2998 -0.1583
 3412TIP3    H134431   2.262   4.927  16.810  0.0544  0.7196 -0.8118
 3412TIP3    H234432   2.247   5.041  16.908  0.1494 -1.5390  1.9585
 3413TIP3   OH234433   1.073   2.874  16.797 -0.1699  0.1858 -0.0240
 3413TIP3    H134434   1.167   2.863  16.781  0.6946 -0.3481  4.1916
 3413TIP3    H234435   1.061   2.968  16.808  0.4852  0.0956  1.8539
 3414TIP3   OH234436   4.262   4.243  17.728 -0.2044  0.6680 -0.7915
 3414TIP3    H134437   4.331   4.187  17.693 -0.3850  1.9833 -3.5442
 3414TIP3    H234438   4.185   4.187  17.731  0.4415 -0.2095  0.1764
 3415TIP3   OH234439   6.221   2.157  17.058 -0.0992  0.2433  0.1436
 3415TIP3    H134440   6.189   2.246  17.043  0.8160  0.4777 -0.5083
 3415TIP3    H234441   6.307   2.168  17.098  1.3454 -0.2254 -2.5417
 3416TIP3   OH234442   5.019   5.634  16.170 -0.1011  0.0523 -0.4247
 3416TIP3    H134443   5.106   5.632  16.131 -0.2093  1.3395 -0.7494
 3416TIP3    H234444   5.005   5.544  16.200  0.9177 -0.4139 -1.2762
 3417TIP3   OH234445   4.817   1.577  15.608 -0.2292  0.4131  0.0622
 3417TIP3    H134446   4.753   1.573  15.538 -1.7874 -2.4787  1.4868
 3417TIP3    H234447   4.887   1.517  15.582  0.3129  1.0613 -0.0109
 3418TIP3   OH234448   3.141   4.550  15.846  0.1656  0.3082  0.2204
 3418TIP3    H134449   3.169   4.506  15.926  1.3089  0.0203 -0.3053
 3418TIP3    H234450   3.174   4.494  15.775 -0.6791  0.6398 -0.4537
 3419TIP3   OH234451   0.690   0.089  16.199  0.2252  0.4805  0.3693
 3419TIP3    H134452   0.745   0.139  16.260 -1.2690  2.3998  0.2316
 3419TIP3    H234453   0.603   0.128  16.209  0.1533  1.8988 -4.0060
 3420TIP3   OH234454   0.824   3.604  15.336 -0.0174 -0.1814 -0.1058
 3420TIP3    H134455   0.805   3.571  15.248  1.3796 -0.8869 -0.1827
 3420TIP3    H234456   0.774   3.685  15.343 -0.9773 -0.6612 -1.1503
 3421TIP3   OH234457   2.864   0.605  15.898  0.2803 -0.1071  0.0241
 3421TIP3    H134458   2.769   0.591  15.902  0.0049  1.1681 -1.1355
 3421TIP3    H234459   2.892   0.556  15.821  0.8543 -1.7364  1.2181
 3422TIP3   OH234460   4.965   4.117  17.294  0.0011 -0.0434  0.5603
 3422TIP3    H134461   5.053   4.148  17.315  0.4394  0.0584 -1.2533
 3422TIP3    H234462   4.979   4.051  17.226 -1.4072  1.4070 -1.2478
 3423TIP3   OH234463   4.684   3.817  16.983  0.0929  0.0600  0.2439
 3423TIP3    H134464   4.601   3.806  17.028 -0.1475 -2.7404 -0.6740
 3423TIP3    H234465   4.667   3.791  16.893  1.5465  1.2977 -0.4429
 3424TIP3   OH234466   2.647   4.432  15.887 -0.0273 -0.3840  0.5917
 3424TIP3    H134467   2.657   4.473  15.801  0.4444  2.7275  2.0127
 3424TIP3    H234468   2.737   4.417  15.916 -0.1820 -0.9230  0.8117
 3425TIP3   OH234469   0.474   1.880  17.964 -0.2255  0.3861 -0.7522
 3425TIP3    H134470   0.522   1.925  17.894 -0.5853 -0.8647 -1.8485
 3425TIP3    H234471   0.385   1.915  17.959 -0.6627 -0.7947 -1.9997
 3426TIP3   OH234472   5.641   6.084  15.102 -0.1989 -0.3417  0.1021
 3426TIP3    H134473   5.664   6.051  15.016  0.4813 -0.9588  0.5053
 3426TIP3    H234474   5.639   6.179  15.092  3.5995 -0.1125  0.2242
 3427TIP3   OH234475   5.294   4.009  16.206 -0.0228 -0.9179 -0.2204
 3427TIP3    H134476   5.318   4.003  16.298  0.4162  1.0866 -0.1413
 3427TIP3    H234477   5.374   3.989  16.158  0.6322  1.0128 -0.0473
 3428TIP3   OH234478   5.245   1.667  16.953 -0.0346  0.2761  0.8080
 3428TIP3    H134479   5.331   1.650  16.990 -0.8490  1.0964  3.2230
 3428TIP3    H234480   5.240   1.610  16.876  1.8291 -1.3393  1.8204
 3429TIP3   OH234481   2.815   5.098  17.348 -0.3758  0.2487 -0.3519
 3429TIP3    H134482   2.813   5.022  17.290 -0.5492 -0.4027  0.4960
 3429TIP3    H234483   2.907   5.125  17.349 -0.4803  0.7313 -1.4993
 3430TIP3   OH234484   3.301   1.987  17.943 -0.4533  0.9078  0.1980
 3430TIP3    H134485   3.261   2.072  17.923 -0.8857  0.3033 -1.7562
 3430TIP3    H234486   3.229   1.934  17.976 -0.4715  0.9153  0.1703
 3431TIP3   OH234487   5.855   0.846  16.619  0.3115 -0.3307  0.5195
 3431TIP3    H134488   5.926   0.860  16.557  0.3364 -0.4202  0.5281
 3431TIP3    H234489   5.857   0.753  16.639  0.8346 -0.1648  1.3009
 3432TIP3   OH234490   6.553   6.258  14.386 -0.3889 -0.1897  0.1508
 3432TIP3    H134491   6.467   6.297  14.402 -1.2044 -1.9079  0.2671
 3432TIP3    H234492   6.567   6.267  14.292 -0.5874  0.3209  0.1723
 3433TIP3   OH234493   1.855   2.805  15.811 -0.6476  0.2865 -0.1277
 3433TIP3    H134494   1.860   2.770  15.900 -2.2355 -0.0305 -0.1409
 3433TIP3    H234495   1.780   2.761  15.771  0.8249 -0.5803 -2.0946
 3434TIP3   OH234496   1.742   5.567  14.673 -0.0690  0.1900 -0.5407
 3434TIP3    H134497   1.758   5.658  14.648 -0.7425  0.3660 -0.3380
 3434TIP3    H234498   1.823   5.540  14.716 -0.1752  0.9548  0.1639
 3435TIP3   OH234499   5.291   6.568  15.828 -0.2205  0.1415  0.0839
 3435TIP3    H134500   5.313   6.639  15.767 -1.1522 -1.2688 -2.0253
 3435TIP3    H234501   5.355   6.500  15.810  1.1900  0.6498  2.6737
 3436TIP3   OH234502   4.763   4.109  15.271  0.5673  1.0588 -0.6202
 3436TIP3    H134503   4.756   4.042  15.203 -0.0298  0.6923 -0.2051
 3436TIP3    H234504   4.829   4.075  15.331 -0.5535  0.2548  0.2163
 3437TIP3   OH234505   0.756   2.902  13.999 -0.1686 -0.0307  0.4812
 3437TIP3    H134506   0.767   2.990  14.034 -1.7910  0.0461  0.8771
 3437TIP3    H234507   0.794   2.905  13.912 -0.0062  0.9938  0.5823
 3438TIP3   OH234508   5.400   2.820  17.119  0.1949 -0.3227 -0.0064
 3438TIP3    H134509   5.490   2.822  17.088  0.1252  0.3127 -0.1678
 3438TIP3    H234510   5.401   2.757  17.191  1.1057  0.8750  1.0611
 3439TIP3   OH234511   4.353   6.044  15.907  0.4304 -0.8612 -0.4252
 3439TIP3    H134512   4.366   6.001  15.823 -0.4055  0.0217 -1.0419
 3439TIP3    H234513   4.313   5.977  15.963  1.3283 -1.5593 -0.6003
 3440TIP3   OH234514   0.495   6.138  15.273  0.7064  0.6142  0.4990
 3440TIP3    H134515   0.424   6.194  15.303 -0.4613  0.0771 -1.1654
 3440TIP3    H234516   0.574   6.192  15.281 -0.0276  1.5849  1.3356
 3441TIP3   OH234517   4.171   3.666  15.467 -0.2161 -0.5774 -0.4997
 3441TIP3    H134518   4.098   3.604  15.460 -1.1809  0.5660 -0.8091
 3441TIP3    H234519   4.242   3.624  15.418 -0.7586 -1.5629 -0.4753
 3442TIP3   OH234520   5.561   3.150  16.292  0.1423 -0.3860  0.0130
 3442TIP3    H134521   5.521   3.174  16.209  0.4858 -2.0280 -0.6540
 3442TIP3    H234522   5.494   3.169  16.357 -0.0798  1.0557 -0.5961
 3443TIP3   OH234523   4.489   2.837  17.567 -0.1114  0.1401 -0.1669
 3443TIP3    H134524   4.556   2.868  17.505 -0.3247 -0.2112 -0.5716
 3443TIP3    H234525   4.501   2.742  17.570 -1.3668 -0.0749 -1.1632
 3444TIP3   OH234526   0.291   4.914  15.682  0.0657  0.0795 -0.3232
 3444TIP3    H134527   0.230   4.963  15.626  0.6923  1.1490 -0.1068
 3444TIP3    H234528   0.353   4.875  15.621  1.6143  2.4211 -0.4096
 3445TIP3   OH234529   3.340   6.019  16.828 -0.5561 -0.5209 -0.1159
 3445TIP3    H134530   3.384   5.935  16.818 -0.3550 -0.4322  0.0342
 3445TIP3    H234531   3.350   6.041  16.921 -0.1995 -0.1035 -0.2510
 3446TIP3   OH234532   1.699   3.848  14.682  0.8872  0.0251 -0.4596
 3446TIP3    H134533   1.728   3.866  14.772  0.3436  0.5175 -0.3749
 3446TIP3    H234534   1.753   3.903  14.627  1.8476 -0.9436 -0.5225
 3447TIP3   OH234535   1.708   4.986  15.950 -0.3680 -0.0172  0.4913
 3447TIP3    H134536   1.785   4.971  15.896 -0.4006 -0.1154  0.4716
 3447TIP3    H234537   1.687   4.900  15.986 -0.7861 -0.0909  0.0753
 3448TIP3   OH234538   4.315   4.600  18.266 -0.0343  0.3146 -0.0373
 3448TIP3    H134539   4.309   4.526  18.205 -1.4220  0.1899  0.2165
 3448TIP3    H234540   4.396   4.585  18.315  1.0180  0.3327 -1.7121
 3449TIP3   OH234541   4.358   0.120  17.350  0.5682 -0.2778 -0.9337
 3449TIP3    H134542   4.321   0.202  17.383  0.7000 -0.0794 -1.2731
 3449TIP3    H234543   4.290   0.054  17.367  0.8678 -0.3007  0.2730
 3450TIP3   OH234544   4.473   1.286  14.919  0.6256 -0.6308  0.1552
 3450TIP3    H134545   4.487   1.297  15.013 -0.2792  1.1287  0.1290
 3450TIP3    H234546   4.560   1.274  14.882  1.1874  0.6486  1.0183
 3451TIP3   OH234547   2.928   3.262  17.706  0.6491 -0.0457 -0.8556
 3451TIP3    H134548   3.009   3.290  17.749  0.1144 -0.4176  0.4543
 3451TIP3    H234549   2.956   3.218  17.627  1.7531 -0.4640 -0.2465
 3452TIP3   OH234550   3.597   1.115  17.423 -0.0221  0.3074 -0.0338
 3452TIP3    H134551   3.566   1.071  17.502 -1.2470  0.5890 -0.3519
 3452TIP3    H234552   3.691   1.126  17.438  0.7460 -3.7554 -0.5234
 3453TIP3   OH234553   5.725   3.874  16.372  0.6166 -0.4274 -0.1616
 3453TIP3    H134554   5.706   3.818  16.447 -1.7918  1.9205  1.1524
 3453TIP3    H234555   5.665   3.843  16.303 -0.4626  0.2300  0.4470
 3454TIP3   OH234556   4.028   3.531  16.996 -0.1675 -0.2988 -0.4311
 3454TIP3    H134557   4.100   3.470  16.982 -1.0888 -1.6047  0.3295
 3454TIP3    H234558   4.047   3.604  16.936  1.6875 -0.6570 -0.3406
 3455TIP3   OH234559   5.685   2.909  15.287  0.2261  0.3987 -0.3817
 3455TIP3    H134560   5.623   2.841  15.260 -0.2771  1.3361 -1.7410
 3455TIP3    H234561   5.771   2.873  15.265  0.0409 -0.1961 -0.1607
 3456TIP3   OH234562   0.441   5.306  17.470 -0.2794 -0.6592  0.3391
 3456TIP3    H134563   0.478   5.324  17.383  2.5773 -3.2311  0.8706
 3456TIP3    H234564   0.400   5.389  17.496  0.3870  0.7464 -2.6619
 3457TIP3   OH234565   0.155   2.459  16.660  0.3963  0.2280 -0.5390
 3457TIP3    H134566   0.184   2.433  16.572 -0.5714  1.1757 -1.1618
 3457TIP3    H234567   0.070   2.416  16.670  1.2185 -1.2378  0.6374
 3458TIP3   OH234568   2.340   4.416  18.091 -0.1774 -0.2901  0.1572
 3458TIP3    H134569   2.373   4.341  18.140 -0.1583  1.6457  3.3791
 3458TIP3    H234570   2.418   4.461  18.059  0.1215  0.7560  2.1953
 3459TIP3   OH234571   6.294   3.316  17.697  0.2007 -0.2862 -0.9973
 3459TIP3    H134572   6.324   3.290  17.785  0.0952 -0.2418 -0.9477
 3459TIP3    H234573   6.373   3.322  17.645  0.2175 -0.7794 -1.0262
 3460TIP3   OH234574   0.597   0.111  14.668 -0.3215  0.2136 -0.0476
 3460TIP3    H134575   0.680   0.094  14.625 -0.6265  1.2277 -1.1225
 3460TIP3    H234576   0.531   0.100  14.599 -1.0872 -0.5144  0.7617
 3461TIP3   OH234577   6.409   0.591  16.434 -0.1267  0.3482  0.1778
 3461TIP3    H134578   6.414   0.540  16.515  0.6775 -2.0433 -1.2837
 3461TIP3    H234579   6.319   0.580  16.404  0.3090 -1.2345 -0.6820
 3462TIP3   OH234580   4.957   0.928  14.648 -0.1945  0.3307 -0.5170
 3462TIP3    H134581   4.898   0.965  14.582 -0.2337 -0.3885 -0.8908
 3462TIP3    H234582   5.044   0.959  14.622 -0.3311  0.9041 -0.3043
 3463TIP3   OH234583   1.123   1.238  14.935  0.1206  0.3920 -0.3876
 3463TIP3    H134584   1.204   1.218  14.888 -0.0635 -1.3791 -0.0163
 3463TIP3    H234585   1.054   1.227  14.870  0.1482  2.3628 -0.8320
 3464TIP3   OH234586   2.554   0.584  16.616  0.0377 -0.2892  0.9455
 3464TIP3    H134587   2.486   0.529  16.576  0.8963 -0.5640 -0.1962
 3464TIP3    H234588   2.563   0.658  16.557  0.1190  0.1906  1.5533
 3465TIP3   OH234589   3.582   2.391  17.884 -0.2427  0.1984 -0.0344
 3465TIP3    H134590   3.631   2.419  17.807 -0.8129  1.7143  0.1365
 3465TIP3    H234591   3.645   2.337  17.932 -0.1037 -1.4004 -1.8785
 3466TIP3   OH234592   1.880   2.894  16.427  0.1377  0.3266 -0.1327
 3466TIP3    H134593   1.851   2.911  16.338 -0.1408  0.0188 -0.1038
 3466TIP3    H234594   1.936   2.817  16.421 -0.0425  0.1838 -0.0171
 3467TIP3   OH234595   4.253   5.813  16.129  0.3688  0.0035  0.2107
 3467TIP3    H134596   4.310   5.739  16.112 -1.4365 -1.5275  0.5032
 3467TIP3    H234597   4.165   5.775  16.138 -0.8160  2.2891 -0.7533
 3468TIP3   OH234598   3.464   0.945  17.593  0.1943  0.4861 -0.3474
 3468TIP3    H134599   3.520   0.885  17.642  1.8299  0.1766 -2.4735
 3468TIP3    H234600   3.393   0.891  17.560  0.4585  0.1750 -0.4097
 3469TIP3   OH234601   6.557   3.854  15.331 -0.2749 -0.1593  0.0393
 3469TIP3    H134602   6.475   3.820  15.295 -0.7357 -0.1940  1.0783
 3469TIP3    H234603   6.620   3.783  15.318 -0.5752 -0.3935 -0.1621
 3470TIP3   OH234604   2.355   5.471  16.855 -0.2683 -0.2123 -0.5061
 3470TIP3    H134605   2.367   5.566  16.853 -0.1738 -0.2071  0.0600
 3470TIP3    H234606   2.437   5.436  16.820  0.6635 -0.1254  1.4234
 3471TIP3   OH234607   6.387   6.384  15.253 -0.0658  0.2387 -0.1537
 3471TIP3    H134608   6.399   6.292  15.231 -0.0673  0.2750 -0.3068
 3471TIP3    H234609   6.413   6.390  15.345  1.0382  0.3036 -0.4589
 3472TIP3   OH234610   2.963   5.619  17.244  0.0732  0.2019 -0.3917
 3472TIP3    H134611   2.903   5.545  17.245 -1.4318  1.3624 -0.2626
 3472TIP3    H234612   3.022   5.603  17.318 -0.5978 -0.5685 -0.0068
 3473TIP3   OH234613   6.536   5.910  16.322  0.0153  0.2564 -0.0818
 3473TIP3    H134614   6.443   5.921  16.300 -0.6171  0.3096  2.2758
 3473TIP3    H234615   6.535   5.894  16.417  2.5033  1.2704  0.1640
 3474TIP3   OH234616   0.335   6.492  17.831 -0.2317  0.0232 -0.6031
 3474TIP3    H134617   0.403   6.559  17.821 -0.8753  0.6632 -0.7566
 3474TIP3    H234618   0.360   6.444  17.910  0.4102  0.2364 -0.6705
 3475TIP3   OH234619   0.965   2.674  15.814 -0.0691  0.6903 -0.3227
 3475TIP3    H134620   1.032   2.701  15.876  0.4032  1.7177 -1.2404
 3475TIP3    H234621   0.969   2.578  15.814  0.5566  0.7063  0.5213
 3476TIP3   OH234622   1.591   2.007  15.537 -0.1891  0.6741 -0.3575
 3476TIP3    H134623   1.590   2.077  15.602 -0.0422 -0.1900  0.6032
 3476TIP3    H234624   1.667   2.026  15.482 -0.0486  1.1668  0.0001
 3477TIP3   OH234625   5.190   4.914  16.664 -0.1659  0.2966  0.2649
 3477TIP3    H134626   5.233   4.896  16.748 -0.9766 -0.1659  0.6004
 3477TIP3    H234627   5.201   5.008  16.651  0.4709  0.2737  0.6072
 3478TIP3   OH234628   6.180   4.347  16.257  0.2563 -0.5052  0.1491
 3478TIP3    H134629   6.132   4.314  16.181  1.0176  0.1445 -0.6420
 3478TIP3    H234630   6.256   4.289  16.264 -1.1091 -2.2215  2.0632
 3479TIP3   OH234631   0.717   5.475  17.815 -0.5937  0.3123 -0.3148
 3479TIP3    H134632   0.710   5.428  17.732  1.8929  0.9323 -0.9420
 3479TIP3    H234633   0.729   5.566  17.790 -1.0108  0.6905  0.7818
 3480TIP3   OH234634   3.822   4.370  17.691 -0.0012  0.2635  0.4943
 3480TIP3    H134635   3.849   4.304  17.755 -0.7712 -1.6737 -1.0653
 3480TIP3    H234636   3.771   4.433  17.742  0.6976 -0.3552  2.0381
 3481TIP3   OH234637   2.964   3.857  16.335 -0.0797  0.2420 -0.0444
 3481TIP3    H134638   2.994   3.791  16.273  1.0506 -1.1477  1.8611
 3481TIP3    H234639   2.983   3.941  16.293  1.3312 -0.6461 -1.2584
 3482TIP3   OH234640   5.650   1.145  17.159  0.5075  0.6551  0.1780
 3482TIP3    H134641   5.682   1.064  17.119  0.4527  1.4168 -1.4825
 3482TIP3    H234642   5.555   1.134  17.161  0.4577  0.9027 -0.5835
 3483TIP3   OH234643   1.908   6.410  17.365 -0.9787 -0.7270 -0.3897
 3483TIP3    H134644   1.938   6.475  17.303  0.2408  0.2670  1.1648
 3483TIP3    H234645   1.852   6.458  17.426 -1.6417 -1.5340 -0.3435
 3484TIP3   OH234646   2.604   5.298  15.381  0.1004 -0.1638  0.6388
 3484TIP3    H134647   2.592   5.340  15.296 -0.2879  1.9974  1.6902
 3484TIP3    H234648   2.624   5.206  15.361 -2.5776 -0.3493 -1.6953
 3485TIP3   OH234649   2.674   1.309  15.722  0.4569  0.2265  0.5174
 3485TIP3    H134650   2.703   1.400  15.723  1.6552 -0.1189 -0.4021
 3485TIP3    H234651   2.579   1.314  15.729  0.3944  1.6237 -0.8528
 3486TIP3   OH234652   1.217   2.944  14.632 -0.1421  0.0558 -0.0446
 3486TIP3    H134653   1.276   2.962  14.559  0.8355 -1.3784  0.3479
 3486TIP3    H234654   1.199   2.850  14.626  1.7573 -0.6162  2.8013
 3487TIP3   OH234655   1.710   0.165  16.286 -0.6684  0.3897 -0.1346
 3487TIP3    H134656   1.632   0.220  16.290 -0.6621  0.3681  0.3925
 3487TIP3    H234657   1.781   0.223  16.313 -0.7742 -0.0737  1.1997
 3488TIP3   OH234658   5.680   4.071  16.780  0.7387  0.1046 -0.1898
 3488TIP3    H134659   5.585   4.059  16.785  0.9300 -1.8292 -0.3475
 3488TIP3    H234660   5.715   4.010  16.845  1.8852  0.9632  0.0260
 3489TIP3   OH234661   4.823   2.246  17.604 -0.4098  0.0989 -0.1798
 3489TIP3    H134662   4.870   2.325  17.576  1.3623 -0.7223  0.3117
 3489TIP3    H234663   4.760   2.229  17.535  0.4666  0.9037 -1.2089
 3490TIP3   OH234664   1.959   6.178  17.619 -0.5876  0.4742  0.4556
 3490TIP3    H134665   2.038   6.231  17.620 -0.8012  0.8402 -0.6502
 3490TIP3    H234666   1.888   6.239  17.642 -0.7042  0.4425  0.1877
 3491TIP3   OH234667   0.211   0.233  15.285 -0.4250  0.6390  0.1043
 3491TIP3    H134668   0.224   0.206  15.376  0.2543 -0.4987 -0.3012
 3491TIP3    H234669   0.144   0.300  15.289  0.1373  1.1536  1.5258
 3492TIP3   OH234670   1.017   0.674  16.073  0.0962 -0.1419 -0.2539
 3492TIP3    H134671   1.023   0.579  16.084  0.2369 -0.1518 -0.3988
 3492TIP3    H234672   1.083   0.710  16.133 -0.3125 -0.1097  0.1764
 3493TIP3   OH234673   6.756   0.644  15.108 -0.3688  0.2361 -0.3446
 3493TIP3    H134674   6.795   0.720  15.151 -0.8666  0.7428 -0.7646
 3493TIP3    H234675   6.751   0.669  15.016 -0.0525 -0.5205 -0.5772
 3494TIP3   OH234676   4.872   4.135  14.971  0.3843  0.0261  0.5841
 3494TIP3    H134677   4.797   4.175  15.017  1.0782 -0.1848  1.9638
 3494TIP3    H234678   4.860   4.159  14.880  0.5308  3.0444  1.2531
 3495TIP3   OH234679   1.281   6.697  17.732  0.0361 -0.0683  0.2088
 3495TIP3    H134680   1.246   6.617  17.771  0.2246  0.7787  2.2518
 3495TIP3    H234681   1.205   6.755  17.723  0.0263 -0.1881 -0.5642
 3496TIP3   OH234682   2.905   1.427  17.538  0.3066 -0.6793 -0.3232
 3496TIP3    H134683   2.890   1.520  17.556  2.5853 -0.8434  3.3343
 3496TIP3    H234684   2.928   1.425  17.445 -0.1081  2.3703 -0.6101
 3497TIP3   OH234685   3.064   6.047  14.593  0.2056 -0.0682 -0.2169
 3497TIP3    H134686   3.097   5.996  14.520 -0.5682 -0.1170 -0.5466
 3497TIP3    H234687   3.044   6.133  14.556  1.2037  0.3885  0.2647
 3498TIP3   OH234688   1.635   0.843  17.024 -0.0164 -0.1469 -0.4664
 3498TIP3    H134689   1.550   0.829  17.067 -0.0349  2.5769  0.5986
 3498TIP3    H234690   1.685   0.895  17.088  1.4398  0.6507 -2.1795
 3499TIP3   OH234691   5.991   4.531  17.774 -0.0280 -0.1114  0.1377
 3499TIP3    H134692   6.029   4.456  17.821  1.4780 -0.0049 -0.8538
 3499TIP3    H234693   6.004   4.605  17.833  0.6541 -0.2102  0.1135
 3500TIP3   OH234694   1.361   5.474  17.091  0.5434 -0.0480 -0.0583
 3500TIP3    H134695   1.399   5.533  17.026  1.5762 -0.0181  0.5397
 3500TIP3    H234696   1.431   5.462  17.156 -0.4553 -0.0491  1.0599
 3501TIP3   OH234697   5.824   0.877  17.729  0.6304 -0.2682 -0.0651
 3501TIP3    H134698   5.782   0.820  17.793  1.0140  1.3341  1.7167
 3501TIP3    H234699   5.918   0.857  17.738  0.9809  1.7217  1.8895
 3502TIP3   OH234700   0.092   6.402  17.733 -0.1500  0.2292 -0.2788
 3502TIP3    H134701   0.111   6.312  17.706  0.5819  0.2594  0.1067
 3502TIP3    H234702   0.175   6.435  17.768 -1.1552 -0.0273  2.6515
 3503TIP3   OH234703   5.725   1.946  17.760 -0.1339 -0.2965 -0.1713
 3503TIP3    H134704   5.803   1.898  17.732 -0.1866  0.4583 -1.6683
 3503TIP3    H234705   5.754   2.037  17.766 -0.4721 -0.2513  0.9771
 3504TIP3   OH234706   3.322   4.340  17.773  0.1702  0.3710 -0.3482
 3504TIP3    H134707   3.232   4.332  17.745 -0.9616 -1.4200  3.1786
 3504TIP3    H234708   3.374   4.299  17.704 -1.7207  0.8700 -2.1417
 3505TIP3   OH234709   5.988   5.062  16.582 -0.0317  0.6004 -0.1158
 3505TIP3    H134710   5.934   5.043  16.506 -0.1155 -2.2133  0.5527
 3505TIP3    H234711   6.072   5.090  16.545  0.4598 -2.1861 -1.3929
 3506TIP3   OH234712   5.133   0.284  16.353  0.2547  0.2783 -0.6316
 3506TIP3    H134713   5.201   0.233  16.397  0.7958  1.2546 -0.3264
 3506TIP3    H234714   5.057   0.276  16.410  0.0395 -0.9464 -1.0534
 3507TIP3   OH234715   1.146   4.556  15.067  0.0604 -0.3624  0.0926
 3507TIP3    H134716   1.206   4.558  14.993  1.7640 -1.9621  1.3007
 3507TIP3    H234717   1.142   4.646  15.098  0.8170  0.0033 -0.8256
 3508TIP3   OH234718   5.927   2.439  15.361 -0.3307 -0.4387  0.8834
 3508TIP3    H134719   5.972   2.411  15.441  0.7141  1.3220  0.9651
 3508TIP3    H234720   5.998   2.467  15.303 -1.2269  2.4706  1.0411
 3509TIP3   OH234721   1.522   0.725  16.667 -0.3201 -0.3200  0.1687
 3509TIP3    H134722   1.539   0.661  16.598  1.1215  0.0378  0.1550
 3509TIP3    H234723   1.511   0.672  16.746  0.4264 -0.6142  0.0837
 3510TIP3   OH234724   5.938   3.202  18.021 -0.2318 -0.4363 -0.5116
 3510TIP3    H134725   5.956   3.110  18.041 -1.5270 -0.4924  0.5610
 3510TIP3    H234726   5.843   3.209  18.026 -0.0734  1.5347  2.3772
 3511TIP3   OH234727   5.000   0.677  15.117  0.0346 -0.1234  0.0941
 3511TIP3    H134728   4.962   0.632  15.193 -0.3609 -1.2843 -0.7588
 3511TIP3    H234729   4.929   0.678  15.053  0.5478  0.3237 -0.4689
 3512TIP3   OH234730   3.472   2.220  14.621  0.6999  0.0114  0.2551
 3512TIP3    H134731   3.556   2.212  14.668 -0.5502 -0.8956  2.4694
 3512TIP3    H234732   3.431   2.134  14.630 -0.6098  0.5230 -0.5568
 3513TIP3   OH234733   5.375   5.138  17.192  0.3126 -0.1457 -0.0210
 3513TIP3    H134734   5.287   5.156  17.157 -0.1173 -0.9610  0.5922
 3513TIP3    H234735   5.433   5.153  17.118 -0.4635 -0.6926 -0.7667
 3514TIP3   OH234736   4.397   5.564  17.439 -0.0200  0.1076 -0.0777
 3514TIP3    H134737   4.386   5.576  17.345 -0.5810  1.2540  0.1150
 3514TIP3    H234738   4.336   5.626  17.479  1.5799  1.0442  1.0537
 3515TIP3   OH234739   0.924   0.902  17.445  0.0561  0.4666 -0.5462
 3515TIP3    H134740   0.996   0.928  17.387  0.2524 -0.7193 -0.8642
 3515TIP3    H234741   0.896   0.983  17.487  0.7705  1.1392 -1.3407
 3516TIP3   OH234742   3.900   0.415  14.924  0.0437 -0.3163  0.4683
 3516TIP3    H134743   3.829   0.468  14.960  2.4737  3.1126  0.7322
 3516TIP3    H234744   3.905   0.441  14.832  1.4752  0.2665  0.6798
 3517TIP3   OH234745   4.697   5.990  15.343 -0.1497 -0.5047  0.4777
 3517TIP3    H134746   4.705   6.085  15.345 -3.2987 -0.1318  1.3723
 3517TIP3    H234747   4.696   5.968  15.250  0.2386  0.3813  0.2529
 3518TIP3   OH234748   6.318   0.067  17.059 -0.1328 -0.2064  0.4825
 3518TIP3    H134749   6.261   0.016  17.001 -0.1866 -1.2518  1.4185
 3518TIP3    H234750   6.327   0.152  17.015 -1.2465 -0.5093 -0.3839
 3519TIP3   OH234751   2.486   6.430  15.610  0.7330  0.5783 -0.6648
 3519TIP3    H134752   2.414   6.474  15.656  1.0863 -0.7460  1.2525
 3519TIP3    H234753   2.474   6.455  15.518 -1.5104  1.2862 -0.2462
 3520TIP3   OH234754   4.315   2.253  17.183 -0.7774 -0.0871 -0.3926
 3520TIP3    H134755   4.391   2.310  17.194 -0.0417 -0.7707 -1.7378
 3520TIP3    H234756   4.270   2.258  17.267  0.7791  0.3047  0.4668
 3521TIP3   OH234757   4.471   6.672  16.145  0.5575 -0.1055 -0.0583
 3521TIP3    H134758   4.501   6.581  16.150  1.0585  0.0403 -0.3452
 3521TIP3    H234759   4.408   6.673  16.073 -1.2952 -0.7217  1.4739
 3522TIP3   OH234760   2.656   2.631  17.264 -0.4231  0.4781 -0.1614
 3522TIP3    H134761   2.661   2.655  17.172  0.4197  1.4648  0.1216
 3522TIP3    H234762   2.591   2.691  17.302 -0.5545  0.2718 -0.0598
 3523TIP3   OH234763   1.897   1.658  16.991 -0.4431 -0.1765  0.0437
 3523TIP3    H134764   1.909   1.603  16.914 -1.5341  0.9104 -0.9481
 3523TIP3    H234765   1.922   1.746  16.962  1.1386 -0.0830  1.5522
 3524TIP3   OH234766   3.988   2.552  15.176 -0.3103  0.1240  0.3444
 3524TIP3    H134767   4.005   2.548  15.082 -0.0082 -0.7284  0.4307
 3524TIP3    H234768   4.074   2.564  15.216 -0.2401 -1.1191  0.5972
 3525TIP3   OH234769   1.758   1.983  17.185 -0.3625  0.0183  0.1889
 3525TIP3    H134770   1.670   1.980  17.148 -0.0429  0.3620 -0.6199
 3525TIP3    H234771   1.808   1.918  17.135 -0.1181 -0.0753  0.5492
 3526TIP3   OH234772   2.705   3.385  16.371 -0.0895 -0.1784 -0.0652
 3526TIP3    H134773   2.643   3.313  16.381  0.2359 -0.8015 -1.9797
 3526TIP3    H234774   2.773   3.368  16.436  0.4977 -2.2090 -1.1215
 3527TIP3   OH234775   5.308   3.489  16.878  0.1672  0.0973  0.2035
 3527TIP3    H134776   5.403   3.503  16.879  0.0024  1.2930  0.9744
 3527TIP3    H234777   5.293   3.426  16.949  0.3021  0.5158  0.6078
 3528TIP3   OH234778   3.923   4.601  16.246  0.1654 -0.4250 -0.1930
 3528TIP3    H134779   3.990   4.534  16.257  0.2336 -0.0864  1.7450
 3528TIP3    H234780   3.911   4.608  16.151  2.4008 -0.9415 -0.5517
 3529TIP3   OH234781   3.400   3.373  15.914 -0.3707 -0.2554  0.0689
 3529TIP3    H134782   3.487   3.400  15.885 -1.0294  1.8221 -0.1480
 3529TIP3    H234783   3.345   3.450  15.899 -0.9897  0.9226  6.0254
 3530TIP3   OH234784   5.589   3.733  16.844 -0.0181  0.0459 -0.2769
 3530TIP3    H134785   5.613   3.754  16.934  2.9458  0.0168 -0.9412
 3530TIP3    H234786   5.595   3.637  16.840  0.1372  0.0651 -0.5512
 3531TIP3   OH234787   2.344   2.873  16.042  0.2225  0.3144 -0.0056
 3531TIP3    H134788   2.400   2.871  16.120  0.4651 -0.9716 -0.1966
 3531TIP3    H234789   2.298   2.790  16.043 -1.4057  1.1800 -0.0897
 3532TIP3   OH234790   0.494   4.559  16.460 -0.2089 -0.0585 -0.7323
 3532TIP3    H134791   0.540   4.630  16.506  1.6744 -1.7398  0.1160
 3532TIP3    H234792   0.403   4.568  16.487  0.4534  0.4452  1.4987
 3533TIP3   OH234793   1.347   6.371  16.428 -0.5022  0.0202 -0.0976
 3533TIP3    H134794   1.363   6.350  16.520  1.2739  2.5081  0.2870
 3533TIP3    H234795   1.256   6.347  16.413 -0.1668 -2.7829  1.5409
 3534TIP3   OH234796   2.263   0.426  17.459  0.2936  0.0486  0.4302
 3534TIP3    H134797   2.177   0.423  17.502  1.1373 -1.1293  2.1431
 3534TIP3    H234798   2.250   0.379  17.377 -0.7686  0.1657  0.5160
 3535TIP3   OH234799   6.262   2.838  14.536  0.3081  0.1755 -0.1536
 3535TIP3    H134800   6.263   2.752  14.578 -0.1924  0.6718  0.9185
 3535TIP3    H234801   6.172   2.848  14.505  0.1578  0.6227  0.4124
 3536TIP3   OH234802   1.703   5.793  15.099  0.2232 -0.0484  0.6958
 3536TIP3    H134803   1.634   5.827  15.042 -0.6506  0.0061  1.7496
 3536TIP3    H234804   1.711   5.700  15.075  1.8884  0.5641 -1.4646
 3537TIP3   OH234805   1.194   6.117  17.550 -0.2499 -0.3399 -0.0275
 3537TIP3    H134806   1.187   6.101  17.456 -1.4123 -1.7522  0.2635
 3537TIP3    H234807   1.135   6.192  17.565  0.6971  0.5268 -0.5478
 3538TIP3   OH234808   2.328   5.821  16.259 -0.0682 -0.0144  0.1141
 3538TIP3    H134809   2.401   5.791  16.205  0.9616  0.6214  1.1151
 3538TIP3    H234810   2.335   5.916  16.258  0.1780  0.0051  1.6127
 3539TIP3   OH234811   1.755   1.897  17.695 -0.4147  0.0452 -0.1282
 3539TIP3    H134812   1.818   1.825  17.701 -1.2626 -0.6798  0.3106
 3539TIP3    H234813   1.798   1.970  17.740  0.4055 -0.2166 -0.4709
 3540TIP3   OH234814   2.269   2.607  15.151 -0.3975  0.1837  0.0267
 3540TIP3    H134815   2.225   2.578  15.230 -1.0113 -0.7415 -0.6366
 3540TIP3    H234816   2.277   2.528  15.098  0.4975  0.6839 -0.6044
 3541TIP3   OH234817   0.220   3.592  16.471  0.5966 -0.3022 -0.9303
 3541TIP3    H134818   0.242   3.664  16.412 -1.0482  0.1310 -1.0697
 3541TIP3    H234819   0.125   3.582  16.462 -0.1942  1.3008  3.2265
 3542TIP3   OH234820   4.916   1.744  18.109  0.2950 -0.1051  0.2506
 3542TIP3    H134821   4.954   1.766  18.024  1.0537 -0.4133  0.4983
 3542TIP3    H234822   4.897   1.829  18.149  1.0683  0.0686  0.2673
 3543TIP3   OH234823   0.665   2.879  15.637 -0.4370  0.6772  0.1051
 3543TIP3    H134824   0.700   2.951  15.689  1.3690  2.3219 -3.0712
 3543TIP3    H234825   0.720   2.804  15.658  1.3646  1.7563 -0.5975
 3544TIP3   OH234826   6.459   4.459  16.886  0.0422 -0.5435 -0.5744
 3544TIP3    H134827   6.404   4.522  16.841  0.4928  0.8667  0.7561
 3544TIP3    H234828   6.445   4.376  16.839 -1.3400  0.3051 -1.7281
 3545TIP3   OH234829   5.414   6.346  17.621  0.1449 -0.0237 -0.0933
 3545TIP3    H134830   5.341   6.302  17.664  0.1142 -1.6953 -1.7503
 3545TIP3    H234831   5.491   6.292  17.641  0.8048  1.1925  0.8312
 3546TIP3   OH234832   3.068   4.272  16.539 -0.7259  0.1607 -0.6483
 3546TIP3    H134833   3.087   4.365  16.549  0.2661  0.0402 -1.3002
 3546TIP3    H234834   3.148   4.235  16.501 -0.4541 -1.2686  1.1826
 3547TIP3   OH234835   0.524   0.542  17.896  0.3772  0.2719 -0.1277
 3547TIP3    H134836   0.536   0.449  17.912  3.6603  0.0286 -2.8186
 3547TIP3    H234837   0.595   0.585  17.944 -0.2218  1.2477 -0.0790
 3548TIP3   OH234838   3.782   0.276  16.323 -0.3564  0.1103  0.1033
 3548TIP3    H134839   3.800   0.183  16.315  0.6164  0.1705  1.3067
 3548TIP3    H234840   3.795   0.311  16.235 -0.4754 -0.8420 -0.2937
 3549TIP3   OH234841   3.190   2.192  17.811  0.3713  0.5272 -0.1129
 3549TIP3    H134842   3.165   2.243  17.733 -0.7810 -0.0151 -0.1251
 3549TIP3    H234843   3.185   2.255  17.883  1.6273  1.0822 -0.4793
 3550TIP3   OH234844   3.296   4.802  15.378  0.3749  0.1766 -0.5383
 3550TIP3    H134845   3.387   4.787  15.402  1.2766  0.8536 -3.2318
 3550TIP3    H234846   3.273   4.726  15.324 -1.1125 -0.6026  1.0889
 3551TIP3   OH234847   1.083   3.749  16.960 -0.4132 -0.5920  0.1601
 3551TIP3    H134848   1.155   3.777  17.016 -0.3839  0.1276 -0.2230
 3551TIP3    H234849   1.008   3.744  17.018 -0.3289 -0.0945  0.3206
 3552TIP3   OH234850   3.743   2.016  17.374  0.1485 -0.0391 -0.1749
 3552TIP3    H134851   3.671   2.069  17.339 -0.3229 -0.4220  0.2077
 3552TIP3    H234852   3.822   2.054  17.334 -0.2479  0.4750 -0.4861
 3553TIP3   OH234853   4.578   0.413  17.527 -0.1510  0.2721  0.5773
 3553TIP3    H134854   4.638   0.351  17.485  0.9377  0.0275  2.3691
 3553TIP3    H234855   4.635   0.476  17.570 -1.2489  2.2417 -0.7347
 3554TIP3   OH234856   3.479   2.994  15.625 -0.5972 -0.3149  0.6280
 3554TIP3    H134857   3.546   2.927  15.612  0.0121  0.4719 -0.3397
 3554TIP3    H234858   3.495   3.028  15.713  1.8179  1.5148 -0.4254
 3555TIP3   OH234859   3.921   0.161  17.797 -0.4627  0.2858 -0.3316
 3555TIP3    H134860   4.002   0.110  17.796 -1.2304 -1.0887  1.3261
 3555TIP3    H234861   3.949   0.252  17.801  1.0247 -0.1772  0.5794
 3556TIP3   OH234862   3.978   2.058  17.215  0.3909 -0.4465 -0.7529
 3556TIP3    H134863   4.007   2.143  17.181 -0.3830 -0.3612 -1.2154
 3556TIP3    H234864   4.057   2.020  17.255  0.0970  1.9317  2.5361
 3557TIP3   OH234865   2.221   0.915  15.856  0.5759  0.5140  0.5426
 3557TIP3    H134866   2.183   0.920  15.944  0.3433  1.3843  0.4048
 3557TIP3    H234867   2.315   0.926  15.870  0.4049  2.2355  0.5719
 3558TIP3   OH234868   4.303   1.764  16.807 -0.9940 -0.2258  0.3405
 3558TIP3    H134869   4.234   1.820  16.771  0.0141  1.5749  1.0522
 3558TIP3    H234870   4.276   1.750  16.898 -0.0112  1.3263  0.9237
 3559TIP3   OH234871   0.503   4.090  14.640  0.5577 -0.1786 -0.1773
 3559TIP3    H134872   0.573   4.137  14.594  0.4628  0.4025  0.2552
 3559TIP3    H234873   0.453   4.159  14.683 -0.4816 -0.5535 -0.7441
 3560TIP3   OH234874   3.440   5.771  17.528  0.2986  0.0129 -0.2170
 3560TIP3    H134875   3.422   5.682  17.496 -1.3624  0.0544  0.4913
 3560TIP3    H234876   3.383   5.827  17.477 -1.1944  0.2538  1.6073
 3561TIP3   OH234877   0.839   3.241  14.963  0.4993  0.1524  0.0648
 3561TIP3    H134878   0.778   3.267  14.894  0.1046 -3.3108 -1.0895
 3561TIP3    H234879   0.783   3.220  15.038  0.6154  0.2996  0.1955
 3562TIP3   OH234880   1.390   4.076  17.496  0.4860  0.0615  0.2549
 3562TIP3    H134881   1.344   4.031  17.567  0.1308 -0.0665 -0.0556
 3562TIP3    H234882   1.482   4.054  17.510  0.2232 -1.5665 -0.4647
 3563TIP3   OH234883   5.831   4.314  17.209 -0.2083  0.3634  0.1431
 3563TIP3    H134884   5.842   4.276  17.296 -1.4802  1.1694  0.6749
 3563TIP3    H234885   5.835   4.239  17.150  0.5015 -0.2126  0.9026
 3564TIP3   OH234886   0.731   6.070  15.574 -0.4530 -0.5116  0.0459
 3564TIP3    H134887   0.781   6.035  15.500 -2.0885 -0.8785 -0.9443
 3564TIP3    H234888   0.750   6.010  15.646 -1.5357 -2.2843 -1.0526
 3565TIP3   OH234889   1.428   5.555  15.401  0.4126  0.2921 -0.3657
 3565TIP3    H134890   1.507   5.536  15.350  1.4290  0.9920  0.8640
 3565TIP3    H234891   1.433   5.649  15.419  2.0340 -0.3585  3.8690
 3566TIP3   OH234892   0.698   3.338  17.575  0.2489 -0.2868  0.0629
 3566TIP3    H134893   0.689   3.376  17.488 -0.8196 -0.7832 -0.0588
 3566TIP3    H234894   0.788   3.304  17.578  0.6876  0.7955 -0.4023
 3567TIP3   OH234895   2.140   4.816  15.892  0.3166  0.0659  0.8977
 3567TIP3    H134896   2.142   4.753  15.821  2.8588  1.7212 -0.6513
 3567TIP3    H234897   2.103   4.895  15.853  1.3106  0.8649  1.5131
 3568TIP3   OH234898   0.176   2.958  15.228 -0.6345 -0.5833 -0.0253
 3568TIP3    H134899   0.081   2.968  15.219 -0.5262  0.7778  0.1427
 3568TIP3    H234900   0.196   2.999  15.313  0.2174 -0.0175 -0.4899
 3569TIP3   OH234901   1.123   5.386  15.959  0.6504  0.0949  0.0632
 3569TIP3    H134902   1.040   5.432  15.945  1.1982  0.7771 -1.0924
 3569TIP3    H234903   1.130   5.377  16.054 -1.2283 -0.8997  0.1496
 3570TIP3   OH234904   0.731   4.120  15.410 -0.2090 -0.1621  0.0345
 3570TIP3    H134905   0.660   4.166  15.365 -1.3329 -1.4263  0.4656
 3570TIP3    H234906   0.795   4.103  15.341 -1.3962 -1.0658 -0.8871
 3571TIP3   OH234907   6.700   5.591  15.575 -0.2516 -0.0293  0.1385
 3571TIP3    H134908   6.608   5.572  15.593  0.1155 -1.0971  1.0142
 3571TIP3    H234909   6.701   5.683  15.548 -1.4626  0.2449  0.9423
 3572TIP3   OH234910   2.271   1.520  17.264  0.0820 -0.3190 -0.0532
 3572TIP3    H134911   2.289   1.426  17.267  2.2303  0.0697  0.8526
 3572TIP3    H234912   2.259   1.539  17.171  1.0976 -1.2663 -0.4057
 3573TIP3   OH234913   0.956   6.676  15.772 -0.0775  0.2931 -0.1356
 3573TIP3    H134914   0.959   6.632  15.857 -2.0517 -1.8212 -1.0446
 3573TIP3    H234915   1.046   6.672  15.739  0.2227 -1.1635  0.7800
 3574TIP3   OH234916   4.795   2.273  16.848  0.9930 -0.5021  0.0747
 3574TIP3    H134917   4.862   2.304  16.909  0.5013 -1.1626  0.9533
 3574TIP3    H234918   4.810   2.325  16.769 -0.3360  2.6448  1.7248
 3575TIP3   OH234919   3.308   5.340  17.704  0.0471 -0.3477 -0.4857
 3575TIP3    H134920   3.216   5.348  17.682 -0.0861  1.9479  0.6058
 3575TIP3    H234921   3.317   5.385  17.788  2.0952 -0.8328 -0.3755
 3576TIP3   OH234922   2.555   4.521  15.440 -0.9587  0.4758 -0.0124
 3576TIP3    H134923   2.576   4.585  15.372  1.3400 -1.2025 -1.0265
 3576TIP3    H234924   2.623   4.533  15.506 -0.9165 -0.4328  0.1254
 3577TIP3   OH234925   5.107   3.724  15.373 -0.2489 -0.1935  0.5388
 3577TIP3    H134926   5.108   3.640  15.419 -1.3722 -1.4977 -1.6531
 3577TIP3    H234927   5.197   3.738  15.346  0.0695 -0.3416  1.5070
 3578TIP3   OH234928   6.143   3.590  17.834 -0.5604 -0.2573 -0.1009
 3578TIP3    H134929   6.083   3.515  17.835 -1.4919  0.2739 -3.7289
 3578TIP3    H234930   6.225   3.554  17.799 -0.3999  0.0443 -0.0373
 3579TIP3   OH234931   4.412   0.360  16.961 -0.0240  0.3388  0.0287
 3579TIP3    H134932   4.357   0.346  17.038  1.2994 -0.5394  0.8386
 3579TIP3    H234933   4.349   0.371  16.889 -1.2768  1.1125  1.1926
 3580TIP3   OH234934   5.069   2.763  15.454  0.2708 -0.4485 -0.8644
 3580TIP3    H134935   5.049   2.816  15.531  0.7068 -1.8836  0.2759
 3580TIP3    H234936   5.155   2.793  15.425  0.8375 -0.9725  0.2020
 3581TIP3   OH234937   0.321   4.136  16.546  0.1275  0.2152 -0.4761
 3581TIP3    H134938   0.234   4.106  16.570  0.6097 -0.5472  0.3918
 3581TIP3    H234939   0.317   4.149  16.452 -0.7355 -0.4490 -0.5453
 3582TIP3   OH234940   5.429   2.178  14.893 -0.4838  0.3659  0.3777
 3582TIP3    H134941   5.341   2.184  14.856  0.3221  1.1894 -1.5117
 3582TIP3    H234942   5.464   2.267  14.888  0.4189  0.0788  1.2149
 3583TIP3   OH234943   4.240   6.154  15.051 -0.2109  0.0582 -0.6754
 3583TIP3    H134944   4.184   6.105  14.991  0.2050  0.8379 -1.7360
 3583TIP3    H234945   4.272   6.089  15.113 -0.8087 -0.7356 -1.1781
 3584TIP3   OH234946   3.422   3.128  16.771 -0.8020  0.2860  0.2820
 3584TIP3    H134947   3.473   3.207  16.753 -2.0756  0.8240 -1.0858
 3584TIP3    H234948   3.432   3.114  16.865  0.0659  1.6229  0.4088
 3585TIP3   OH234949   1.935   4.974  15.770  0.4758 -0.2787 -0.2003
 3585TIP3    H134950   1.945   5.052  15.714  0.7400 -0.8683 -0.9878
 3585TIP3    H234951   1.889   4.911  15.715 -0.4808 -0.3928  0.7196
 3586TIP3   OH234952   4.913   5.361  15.662 -0.1204  0.5685 -0.2541
 3586TIP3    H134953   4.980   5.341  15.596  0.8238 -0.3197  0.9150
 3586TIP3    H234954   4.865   5.279  15.672  0.2122  0.4734  0.6560
 3587TIP3   OH234955   2.122   5.422  17.668 -0.4090 -0.6891  0.4584
 3587TIP3    H134956   2.133   5.506  17.712 -1.0107 -0.8296  0.8847
 3587TIP3    H234957   2.211   5.385  17.666 -0.3610 -0.6706  1.5455
 3588TIP3   OH234958   5.034   4.438  15.171 -0.0770  0.0406  0.1847
 3588TIP3    H134959   5.110   4.383  15.188 -0.4155 -0.5170 -0.0838
 3588TIP3    H234960   4.969   4.410  15.236 -0.0193  0.5980  0.4938
 3589TIP3   OH234961   4.667   4.440  16.988  0.2924 -0.1915 -0.1716
 3589TIP3    H134962   4.695   4.528  16.966  1.0153  0.0814  1.6259
 3589TIP3    H234963   4.603   4.452  17.059 -0.4375 -1.0678 -0.6507
 3590TIP3   OH234964   0.744   0.734  16.867 -0.2360 -0.2651  0.3484
 3590TIP3    H134965   0.728   0.808  16.808 -0.7107 -0.4576  0.2356
 3590TIP3    H234966   0.701   0.759  16.949 -1.5129 -0.9717 -0.0873
 3591TIP3   OH234967   3.162   1.206  17.884  0.3113 -0.0779 -0.1667
 3591TIP3    H134968   3.134   1.257  17.961 -0.6945  0.8256 -1.0904
 3591TIP3    H234969   3.167   1.270  17.814  0.6858 -0.9876 -0.9864
 3592TIP3   OH234970   5.107   6.528  17.641 -0.1195  0.1348 -0.0528
 3592TIP3    H134971   5.155   6.609  17.658  0.1267  0.0465 -0.3289
 3592TIP3    H234972   5.022   6.542  17.683  0.6259 -0.2567  1.6591
 3593TIP3   OH234973   1.011   4.671  14.372 -0.4851  0.1731  0.6334
 3593TIP3    H134974   0.974   4.669  14.284 -2.6094 -1.8401  1.4998
 3593TIP3    H234975   0.939   4.698  14.428  0.3604 -0.2884  1.9942
 3594TIP3   OH234976   6.574   0.366  17.043 -0.0819 -0.1403  0.0814
 3594TIP3    H134977   6.600   0.451  17.078  0.6751  0.3960 -1.6387
 3594TIP3    H234978   6.539   0.318  17.118 -0.3879  1.6279  1.1146
 3595TIP3   OH234979   2.403   0.619  17.296  0.1611 -0.0279  0.0891
 3595TIP3    H134980   2.423   0.704  17.335 -0.6231  0.9069 -1.4363
 3595TIP3    H234981   2.341   0.578  17.358  0.9265  0.2683  1.0742
 3596TIP3   OH234982   0.418   2.407  18.001 -0.5851  0.8111  0.4624
 3596TIP3    H134983   0.394   2.425  17.910 -1.7007  0.6231  0.7022
 3596TIP3    H234984   0.505   2.446  18.011 -0.7825  1.5417 -0.4623
 3597TIP3   OH234985   6.724   1.782  17.947 -0.1853 -0.2345  0.2709
 3597TIP3    H134986   6.643   1.811  17.987  1.0977  1.3844  1.8383
 3597TIP3    H234987   6.732   1.835  17.868 -0.0609  0.4836  0.7613
 3598TIP3   OH234988   5.802   6.355  17.906 -0.0737 -0.3397  0.3049
 3598TIP3    H134989   5.745   6.367  17.831  1.3268 -1.7350 -1.0431
 3598TIP3    H234990   5.863   6.429  17.902  0.9093 -1.1716 -0.8390
 3599TIP3   OH234991   2.450   1.425  16.237 -0.2291 -0.3647  0.4369
 3599TIP3    H134992   2.383   1.378  16.188  0.4201 -0.8012 -0.0449
 3599TIP3    H234993   2.449   1.385  16.324 -2.0012  1.0086  1.1083
 3600TIP3   OH234994   1.178   4.940  14.432  0.1547  0.4367  0.1791
 3600TIP3    H134995   1.144   4.852  14.414 -0.1356  0.1909  1.7424
 3600TIP3    H234996   1.235   4.960  14.358  2.2923 -2.1386  0.9707
 3601TIP3   OH234997   3.037   6.241  14.905 -0.7571 -0.0209  0.4613
 3601TIP3    H134998   3.113   6.278  14.860 -1.4558  0.6750 -0.1855
 3601TIP3    H234999   3.060   6.150  14.920  0.5529  0.3766  1.0557
 3602TIP3   OH235000   6.649   5.836  15.403  0.1102 -0.4676 -0.6239
 3602TIP3    H135001   6.556   5.847  15.426  0.1439 -0.1939 -0.6202
 3602TIP3    H235002   6.652   5.854  15.309  0.6413  2.5322 -0.1293
 3603TIP3   OH235003   5.666   5.292  15.901  0.5508 -0.0162 -0.3150
 3603TIP3    H135004   5.573   5.306  15.884  0.1595 -2.2120 -0.2551
 3603TIP3    H235005   5.670   5.212  15.953  2.5281 -0.3946 -0.9517
 3604TIP3   OH235006   3.840   5.621  17.089  0.1655  0.0163  0.5115
 3604TIP3    H135007   3.755   5.603  17.131  1.5691 -1.0657  3.1796
 3604TIP3    H235008   3.875   5.697  17.137  0.6497  0.5413 -0.6500
 3605TIP3   OH235009   0.515   1.067  16.083 -0.3432 -0.6428 -0.6715
 3605TIP3    H135010   0.454   1.133  16.115 -1.0524 -0.1957 -2.8097
 3605TIP3    H235011   0.485   0.985  16.122 -0.1300  0.0912  1.1153
 3606TIP3   OH235012   0.728   5.731  15.480  0.3524  0.0663 -0.1148
 3606TIP3    H135013   0.779   5.783  15.542  1.4379  0.1541 -1.0406
 3606TIP3    H235014   0.666   5.793  15.442  1.2930  0.5993 -0.8311
 3607TIP3   OH235015   0.316   0.867  15.826 -0.2864 -0.3703 -0.1016
 3607TIP3    H135016   0.264   0.794  15.860 -0.2450 -0.1482  0.4413
 3607TIP3    H235017   0.404   0.852  15.860 -0.1000 -0.4797 -0.6199
 3608TIP3   OH235018   4.570   5.862  16.058  0.0185 -0.1068  0.3349
 3608TIP3    H135019   4.638   5.795  16.047  1.5571  1.2019  1.3575
 3608TIP3    H235020   4.554   5.893  15.969 -0.0544 -1.1900 -0.0469
 3609TIP3   OH235021   3.176   4.183  15.935 -0.5954 -0.5333 -0.0466
 3609TIP3    H135022   3.249   4.121  15.937 -0.1228 -0.0069 -0.7634
 3609TIP3    H235023   3.116   4.148  15.869 -0.5756 -0.4912 -0.0864
 3610TIP3   OH235024   6.474   1.174  15.929 -0.1011  0.9865  0.3501
 3610TIP3    H135025   6.528   1.166  16.007  1.3804  1.1890 -0.6275
 3610TIP3    H235026   6.390   1.134  15.954  0.4716  0.6839  1.8934
 3611TIP3   OH235027   3.223   0.041  17.657 -0.1625  0.7361 -0.2310
 3611TIP3    H135028   3.201   0.049  17.564 -0.1575  1.2786 -0.1916
 3611TIP3    H235029   3.317   0.059  17.662 -0.0011 -0.0991 -0.2177
 3612TIP3   OH235030   3.601   3.695  15.397 -0.1097 -0.0085 -0.5251
 3612TIP3    H135031   3.590   3.635  15.323 -0.3824  0.5132 -0.9173
 3612TIP3    H235032   3.563   3.648  15.471  0.5096 -0.6947 -0.6261
 3613TIP3   OH235033   5.787   1.082  16.337  0.7430  0.0270 -0.2227
 3613TIP3    H135034   5.800   0.987  16.327  0.6622  0.0809 -0.9198
 3613TIP3    H235035   5.693   1.095  16.325  0.8033  0.2335 -0.4861
 3614TIP3   OH235036   6.057   4.016  16.338 -0.5394  0.1543 -0.7625
 3614TIP3    H135037   6.019   3.929  16.348 -1.2496  0.6870  2.3992
 3614TIP3    H235038   6.004   4.059  16.271 -2.1450 -0.8823 -0.2092
 3615TIP3   OH235039   4.355   4.419  16.170  0.0203  0.1172 -0.1264
 3615TIP3    H135040   4.449   4.403  16.183  0.0088  0.1653  0.0118
 3615TIP3    H235041   4.346   4.514  16.172 -0.1906  0.0841  0.9565
 3616TIP3   OH235042   4.955   5.869  15.379  0.1040  0.0792 -0.1202
 3616TIP3    H135043   4.864   5.895  15.368 -0.0508 -0.2894  0.2705
 3616TIP3    H235044   5.005   5.946  15.352 -0.3379  0.6094  0.5309
 3617TIP3   OH235045   3.912   6.053  17.382  0.2853 -0.0900  0.2363
 3617TIP3    H135046   3.941   6.077  17.470 -0.8873  2.4465  0.0507
 3617TIP3    H235047   3.833   6.000  17.396  0.8662 -0.8351  0.7029
 3618TIP3   OH235048   1.224   2.354  15.733 -0.1347  0.3586 -0.0890
 3618TIP3    H135049   1.243   2.403  15.813 -0.5866 -0.2747  0.4047
 3618TIP3    H235050   1.217   2.263  15.760 -2.1537  0.3309 -0.5117
 3619TIP3   OH235051   3.304   5.682  18.310 -0.1684  0.2772  0.0192
 3619TIP3    H135052   3.266   5.738  18.242  0.7985 -0.6296 -1.3223
 3619TIP3    H235053   3.354   5.743  18.365 -0.7006  0.9865 -0.2581
 3620TIP3   OH235054   0.717   0.828  16.112  0.5005 -0.2137  0.9569
 3620TIP3    H135055   0.719   0.733  16.126  1.1061 -0.3086  0.2851
 3620TIP3    H235056   0.799   0.859  16.150  1.2621 -0.2323 -0.6171
 3621TIP3   OH235057   5.104   4.501  16.427  0.3949  0.1176  0.0844
 3621TIP3    H135058   5.144   4.416  16.442  3.3166  1.5725  1.4194
 3621TIP3    H235059   5.114   4.548  16.510 -1.0902  1.7990 -0.6159
 3622TIP3   OH235060   4.361   2.522  14.530  0.3057 -0.1324  0.3491
 3622TIP3    H135061   4.298   2.593  14.517  1.0390  0.1134 -2.3761
 3622TIP3    H235062   4.317   2.444  14.497  0.2377 -0.6286  1.5456
 3623TIP3   OH235063   5.056   5.579  17.018  0.2100  0.8497 -0.5830
 3623TIP3    H135064   5.107   5.660  17.028  0.0828  0.7553  1.0690
 3623TIP3    H235065   4.965   5.606  17.027  0.2403  0.2289  2.9672
 3624TIP3   OH235066   3.400   3.452  16.333  0.2250 -0.4675 -0.1057
 3624TIP3    H135067   3.489   3.423  16.353  0.8581  1.2577 -0.2032
 3624TIP3    H235068   3.412   3.533  16.283 -1.4014  0.1823  0.4920
 3625TIP3   OH235069   0.361   3.323  16.589  0.5803 -0.4644 -0.2017
 3625TIP3    H135070   0.443   3.281  16.613  1.1768  0.2106 -0.9812
 3625TIP3    H235071   0.386   3.412  16.562 -0.4594 -0.1003 -0.0328
 3626TIP3   OH235072   1.759   4.253  16.691  0.5009 -0.2282 -0.3619
 3626TIP3    H135073   1.736   4.191  16.761 -0.0977 -1.1389 -1.3492
 3626TIP3    H235074   1.676   4.288  16.661  0.4904 -1.9126 -2.4722
 3627TIP3   OH235075   1.491   1.216  16.487  0.3838 -0.0966  0.8712
 3627TIP3    H135076   1.585   1.199  16.479  0.1353 -1.0182 -0.4726
 3627TIP3    H235077   1.450   1.129  16.482 -0.5613  0.3278  0.9629
 3628TIP3   OH235078   4.394   2.117  18.490 -0.7464 -0.1034 -0.2088
 3628TIP3    H135079   4.460   2.111  18.422 -1.7608  0.2922 -1.2590
 3628TIP3    H235080   4.396   2.031  18.533  2.5097  0.8430  1.8365
 3629TIP3   OH235081   6.089   4.420  17.552 -0.0304  0.8152 -0.4102
 3629TIP3    H135082   6.066   4.450  17.641 -1.2333 -0.8523 -0.1267
 3629TIP3    H235083   6.169   4.369  17.564 -0.8274 -0.4008 -0.0547
 3630TIP3   OH235084   5.227   4.494  16.849 -0.4308  0.9887  0.6805
 3630TIP3    H135085   5.322   4.496  16.864 -0.2146 -0.2940 -0.3887
 3630TIP3    H235086   5.211   4.567  16.788 -0.0695  0.9477  0.5349
 3631TIP3   OH235087   5.553   2.276  16.314  0.3986  0.2059 -0.1683
 3631TIP3    H135088   5.616   2.294  16.384  0.5541  0.8232 -0.4587
 3631TIP3    H235089   5.540   2.360  16.272  1.5477 -0.4239 -1.9225
 3632TIP3   OH235090   6.636   2.543  18.118 -0.2162 -0.1192 -0.2636
 3632TIP3    H135091   6.713   2.598  18.101 -0.9704  1.0264 -0.1103
 3632TIP3    H235092   6.669   2.471  18.170  0.7003  0.5277  0.0817
 3633TIP3   OH235093   6.259   3.483  16.790 -0.1311 -0.1224  0.4602
 3633TIP3    H135094   6.336   3.473  16.847  0.9718 -3.0559 -1.3068
 3633TIP3    H235095   6.285   3.442  16.707 -2.6916  1.2800 -1.1717
 3634TIP3   OH235096   6.464   3.041  16.787 -0.1835  0.0867 -0.2595
 3634TIP3    H135097   6.506   3.078  16.710 -1.2944  1.3773 -0.2765
 3634TIP3    H235098   6.402   2.976  16.752  0.8217 -0.8830 -0.3023
 3635TIP3   OH235099   2.078   6.581  17.217 -0.2775 -0.2118  0.7698
 3635TIP3    H135100   2.031   6.659  17.188  0.5890 -0.7526 -2.6337
 3635TIP3    H235101   2.159   6.614  17.255  0.0891  0.6276 -0.6532
 3636TIP3   OH235102   5.799   5.405  16.386 -0.4878 -0.2182 -0.7315
 3636TIP3    H135103   5.776   5.473  16.450 -0.1373 -0.7052 -0.0713
 3636TIP3    H235104   5.890   5.424  16.363 -0.6083 -0.0546 -1.0778
 3637TIP3   OH235105   2.054   0.111  17.725  0.2023  0.0093 -0.6881
 3637TIP3    H135106   2.072   0.017  17.723  0.0307 -0.1139  1.1749
 3637TIP3    H235107   1.973   0.118  17.776  1.2964  1.2505  0.9871
 3638TIP3   OH235108   1.779   0.603  17.672  0.0092  0.1430  0.4602
 3638TIP3    H135109   1.771   0.691  17.634 -0.9921  0.1498  0.6656
 3638TIP3    H235110   1.837   0.616  17.748  0.1255  0.5600  0.3067
 3639TIP3   OH235111   2.683   3.453  17.101  0.0491 -0.2372 -0.1693
 3639TIP3    H135112   2.756   3.476  17.043  0.0148 -1.4820 -0.7245
 3639TIP3    H235113   2.708   3.370  17.140  1.2295  1.6554  3.5905
 3640TIP3   OH235114   2.503   4.323  17.270 -0.3348  0.0441  0.1182
 3640TIP3    H135115   2.592   4.356  17.264 -0.6105  0.7346 -0.2832
 3640TIP3    H235116   2.503   4.243  17.218 -0.2705  0.7539 -0.9961
 3641TIP3   OH235117   3.294   2.182  16.494 -0.6158  0.3870  0.3369
 3641TIP3    H135118   3.325   2.092  16.504 -0.2736  0.0918 -2.3982
 3641TIP3    H235119   3.214   2.174  16.442  0.7479  1.6739 -2.1952
 3642TIP3   OH235120   4.765   3.108  16.071 -0.7258  0.1496  0.0244
 3642TIP3    H135121   4.795   3.070  15.988 -2.2919 -1.8208  0.2932
 3642TIP3    H235122   4.670   3.093  16.071 -0.9950  1.5787  1.4807
 3643TIP3   OH235123   0.009   2.005  14.557 -0.5289  0.0899 -0.0161
 3643TIP3    H135124   0.102   1.984  14.553 -0.5274  0.2542 -1.7162
 3643TIP3    H235125  -0.014   1.997  14.649  1.2597  0.4647  0.4974
 3644TIP3   OH235126   0.824   0.489  16.808  0.6627 -0.0293 -0.7804
 3644TIP3    H135127   0.773   0.563  16.841  1.1474  0.4816 -1.1559
 3644TIP3    H235128   0.801   0.482  16.716  1.6875  0.5710 -1.0966
 3645TIP3   OH235129   0.881   5.006  16.599 -0.3128 -0.2347 -0.2103
 3645TIP3    H135130   0.955   5.045  16.553 -0.6876  1.9052  0.8832
 3645TIP3    H235131   0.914   4.923  16.633  1.7655  0.9124  0.7083
 3646TIP3   OH235132   5.002   1.027  16.913  0.0877 -0.4853 -0.7110
 3646TIP3    H135133   4.913   1.029  16.947 -0.6152 -1.9973 -2.3214
 3646TIP3    H235134   5.035   0.941  16.938  1.2540  0.1749  0.1416
 3647TIP3   OH235135   3.719   1.058  14.559 -0.7356  0.0329 -0.1364
 3647TIP3    H135136   3.813   1.048  14.546 -0.6535  0.1305  0.3723
 3647TIP3    H235137   3.704   1.153  14.554 -0.9244 -0.0392 -0.9978
 3648TIP3   OH235138   3.727   3.318  17.172 -0.7174 -0.2781  0.4956
 3648TIP3    H135139   3.773   3.254  17.117 -1.3718  0.4548 -0.9719
 3648TIP3    H235140   3.776   3.399  17.160 -1.6682  0.2210 -0.1517
 3649TIP3   OH235141   6.297   6.046  16.447 -0.3467 -0.0730  0.4417
 3649TIP3    H135142   6.356   6.085  16.513 -0.5314 -0.6474  0.9530
 3649TIP3    H235143   6.263   5.968  16.489 -1.5185  0.2766  0.1669
 3650TIP3   OH235144   5.393   5.830  16.863  0.3869  0.1220  0.3241
 3650TIP3    H135145   5.399   5.796  16.774 -2.7946 -0.6002  0.2797
 3650TIP3    H235146   5.332   5.903  16.857  1.0285  0.8162  1.7704
 3651TIP3   OH235147   6.669   3.111  17.210 -0.0931  0.0544  0.1080
 3651TIP3    H135148   6.648   3.049  17.140 -0.9178  3.7031 -3.2191
 3651TIP3    H235149   6.765   3.108  17.216  0.1301  0.5090 -2.1773
 3652TIP3   OH235150   6.201   4.614  15.754  0.2852  0.5262 -0.2636
 3652TIP3    H135151   6.180   4.707  15.757  1.3895  0.8001  2.5311
 3652TIP3    H235152   6.116   4.571  15.748 -0.2936  1.7041 -0.8393
 3653TIP3   OH235153   3.485   5.851  16.448  0.0608 -0.1025 -0.0109
 3653TIP3    H135154   3.533   5.869  16.367 -1.1627  0.5029 -0.6341
 3653TIP3    H235155   3.551   5.814  16.507  2.0510  3.3541  0.2154
 3654TIP3   OH235156   6.026   4.151  14.510  0.5527  0.1754  0.2081
 3654TIP3    H135157   5.998   4.239  14.484  0.3822 -0.4841 -2.0684
 3654TIP3    H235158   5.951   4.116  14.559 -0.0555  0.7327 -0.2937
 3655TIP3   OH235159   6.438   5.882  17.084  0.2283 -0.3405 -0.2219
 3655TIP3    H135160   6.470   5.949  17.144  1.3896 -0.5155 -0.6230
 3655TIP3    H235161   6.396   5.817  17.140  1.2482 -0.4809  0.4033
 3656TIP3   OH235162   2.009   0.864  14.806  0.0514  0.0983  0.2022
 3656TIP3    H135163   2.022   0.862  14.711  0.1850 -0.5109  0.2269
 3656TIP3    H235164   2.065   0.794  14.839 -1.0387 -0.6201  0.5945
 3657TIP3   OH235165   2.809   4.419  16.867 -0.1311  0.6111  0.4778
 3657TIP3    H135166   2.786   4.488  16.928  0.0839 -0.8932  2.3559
 3657TIP3    H235167   2.904   4.423  16.860 -0.1740  0.9250  0.0571
 3658TIP3   OH235168   6.366   5.055  17.106 -0.1155 -0.9074  0.2564
 3658TIP3    H135169   6.391   4.968  17.075 -1.8849 -1.3310 -0.0948
 3658TIP3    H235170   6.270   5.054  17.104 -0.1721  1.3418 -0.5667
 3659TIP3   OH235171   0.750   3.819  15.639  0.5992 -0.6993 -0.2859
 3659TIP3    H135172   0.731   3.801  15.731 -1.3172 -1.7294 -0.8291
 3659TIP3    H235173   0.842   3.795  15.628  0.0940 -3.5038  0.7038
 3660TIP3   OH235174   5.790   3.243  17.615  0.4211  0.3966  0.1038
 3660TIP3    H135175   5.826   3.176  17.557 -0.6140  1.0258 -1.3338
 3660TIP3    H235176   5.697   3.247  17.592 -0.1842  0.2253  2.2915
 3661TIP3   OH235177   3.547   5.365  16.973  0.0920 -0.1838 -0.1532
 3661TIP3    H135178   3.525   5.279  16.936 -0.9397  0.8622 -2.1435
 3661TIP3    H235179   3.636   5.354  17.006 -0.6950 -2.5313  1.4344
 3662TIP3   OH235180   4.001   4.431  16.756 -0.3272 -0.2415  0.4799
 3662TIP3    H135181   4.022   4.448  16.848 -1.6696  0.9703  0.6133
 3662TIP3    H235182   3.956   4.511  16.727  1.2316 -0.0458 -1.6295
 3663TIP3   OH235183   5.710   2.690  15.890  0.0250  0.3328  0.1716
 3663TIP3    H135184   5.754   2.747  15.952 -1.0227  0.4115  0.8599
 3663TIP3    H235185   5.639   2.743  15.853  0.0807  0.0068 -0.4209
 3664TIP3   OH235186   1.079   1.012  15.814 -0.5428  0.1132 -0.1404
 3664TIP3    H135187   1.030   1.088  15.784 -0.7264 -0.5373 -1.5612
 3664TIP3    H235188   1.152   1.003  15.753 -0.2494 -0.5671  0.2873
 3665TIP3   OH235189   0.942   1.021  16.686  0.2497  0.5753 -0.2662
 3665TIP3    H135190   0.954   0.942  16.737 -1.0144  0.4436 -0.1371
 3665TIP3    H235191   0.847   1.036  16.686  0.3253  1.2463 -1.5440
 3666TIP3   OH235192   5.724   0.901  17.031  0.2331  0.0011 -0.0634
 3666TIP3    H135193   5.776   0.947  16.965  2.3923  0.6068  1.9480
 3666TIP3    H235194   5.756   0.811  17.030  0.2411  0.0004  0.1213
 3667TIP3   OH235195   0.855   2.433  17.081  0.0849 -0.3293  0.0726
 3667TIP3    H135196   0.838   2.491  17.007  1.2624  0.9317  0.7570
 3667TIP3    H235197   0.942   2.457  17.112 -0.5708 -0.4791  2.1736
 3668TIP3   OH235198   2.205   6.023  16.665 -0.1298 -0.2033 -0.2792
 3668TIP3    H135199   2.156   5.966  16.725 -1.8610  0.5330 -0.9351
 3668TIP3    H235200   2.166   6.007  16.579  1.2640 -0.0825 -0.9581
 3669TIP3   OH235201   3.782   6.368  17.996  0.3036 -0.5213 -0.5089
 3669TIP3    H135202   3.814   6.412  17.917 -0.5059  0.1840 -0.4610
 3669TIP3    H235203   3.767   6.277  17.969  0.5133 -0.4002 -1.0340
 3670TIP3   OH235204   4.478   1.526  16.876  0.0240 -0.3027  0.2127
 3670TIP3    H135205   4.432   1.600  16.836  1.0202  0.8054  1.0473
 3670TIP3    H235206   4.413   1.484  16.932 -0.2094  0.7810  0.7819
 3671TIP3   OH235207   3.275   3.966  16.167 -0.1832  0.1381  0.0568
 3671TIP3    H135208   3.326   4.001  16.094 -2.6417  4.1027 -0.0697
 3671TIP3    H235209   3.198   3.925  16.126  0.4349 -1.4490  0.3946
 3672TIP3   OH235210   5.348   1.894  14.259  0.8968  0.0147 -0.4261
 3672TIP3    H135211   5.389   1.844  14.188 -0.2442 -0.6879 -0.6262
 3672TIP3    H235212   5.419   1.947  14.295  1.5651  0.1774 -1.9003
 3673TIP3   OH235213   1.252   2.227  16.681  0.0018 -0.8108  0.2322
 3673TIP3    H135214   1.289   2.145  16.713  2.2106 -0.4482 -1.1717
 3673TIP3    H235215   1.256   2.287  16.756  1.3378 -1.1118  0.4287
 3674TIP3   OH235216   4.712   1.438  15.807 -0.2999  0.3811 -0.7948
 3674TIP3    H135217   4.733   1.497  15.735 -3.2312  3.0221  0.2601
 3674TIP3    H235218   4.702   1.495  15.883  0.1075 -1.9633  1.1470
 3675TIP3   OH235219   2.393   2.080  14.813  0.2923 -0.4574 -0.1158
 3675TIP3    H135220   2.471   2.093  14.760 -0.9541 -0.0645 -1.9393
 3675TIP3    H235221   2.425   2.036  14.892  2.1747 -1.4055 -1.3325
 3676TIP3   OH235222   2.517   1.713  15.171  1.1743 -0.2521 -0.6036
 3676TIP3    H135223   2.548   1.670  15.251  2.3281  0.7221 -0.4978
 3676TIP3    H235224   2.422   1.713  15.180  1.2790  0.0030  0.8684
 3677TIP3   OH235225   6.186   6.193  16.274  0.3261 -0.3023  0.6920
 3677TIP3    H135226   6.221   6.151  16.353 -1.0612 -1.5696  0.6863
 3677TIP3    H235227   6.232   6.149  16.202  0.1397 -0.6013  0.7494
 3678TIP3   OH235228   2.916   2.355  15.962  0.1571  0.1814 -0.6353
 3678TIP3    H135229   2.843   2.298  15.941 -0.5193  1.2077 -1.1721
 3678TIP3    H235230   2.925   2.412  15.885  0.7065  0.8828 -0.0703
 3679TIP3   OH235231   5.004   0.998  15.673 -0.0615  0.1836 -0.5298
 3679TIP3    H135232   5.060   0.981  15.748 -0.0695  0.6840 -0.4050
 3679TIP3    H235233   4.943   1.064  15.704 -0.3638  0.0492 -0.8369
 3680TIP3   OH235234   3.927   4.264  16.129 -0.0874  0.0104 -0.3485
 3680TIP3    H135235   3.892   4.346  16.094 -0.1965  0.5749  1.0331
 3680TIP3    H235236   4.001   4.290  16.184 -1.3567 -0.6050  1.7423
 3681TIP3   OH235237   2.160   0.994  15.038 -0.1990 -0.1688  0.6665
 3681TIP3    H135238   2.124   0.906  15.030 -0.3684  0.0678 -2.5031
 3681TIP3    H235239   2.246   0.982  15.078 -0.9301 -1.5175  1.9201
 3682TIP3   OH235240   3.502   5.788  16.777  0.2294 -0.0551 -0.0300
 3682TIP3    H135241   3.518   5.695  16.761  2.0012  0.3468 -0.9381
 3682TIP3    H235242   3.590   5.826  16.786 -0.4559  1.5176  0.4309
 3683TIP3   OH235243   1.393   5.081  14.995 -0.3223  0.0447 -0.2392
 3683TIP3    H135244   1.343   5.159  14.968  1.2548  0.2736 -2.8273
 3683TIP3    H235245   1.356   5.010  14.944 -1.9366 -1.0957  2.3158
 3684TIP3   OH235246   0.627   5.181  14.526 -0.6356 -0.3065  0.2112
 3684TIP3    H135247   0.603   5.212  14.613 -0.9518  0.7242 -0.2329
 3684TIP3    H235248   0.690   5.245  14.494 -0.7030 -0.5431 -0.4105
 3685TIP3   OH235249   0.526   2.380  16.225 -0.1580 -0.6201 -0.3135
 3685TIP3    H135250   0.455   2.393  16.288 -0.6194 -1.6039 -0.6055
 3685TIP3    H235251   0.506   2.440  16.153  0.8143  1.1054  0.8038
 3686TIP3   OH235252   0.612   6.379  15.334 -0.6367 -0.3995  0.2846
 3686TIP3    H135253   0.576   6.433  15.264  0.7665  0.2555  0.0249
 3686TIP3    H235254   0.684   6.431  15.369 -1.1349 -0.8233  2.0520
 3687TIP3   OH235255   0.477   4.950  17.141  0.1106  0.2072 -0.6681
 3687TIP3    H135256   0.482   4.859  17.113 -0.8835  0.2470 -1.0037
 3687TIP3    H235257   0.504   4.948  17.233  1.7792 -0.1576 -1.1176
 3688TIP3   OH235258   2.825   4.934  15.697 -0.0479 -0.0498 -0.0449
 3688TIP3    H135259   2.844   4.843  15.719 -2.1492 -0.2210  1.3233
 3688TIP3    H235260   2.818   4.978  15.782 -1.5886  0.8112 -0.5773
 3689TIP3   OH235261   0.301   0.201  15.039 -0.5367 -0.3473 -0.0613
 3689TIP3    H135262   0.277   0.210  15.131  2.3058 -1.3174  0.8708
 3689TIP3    H235263   0.319   0.290  15.010  2.8860 -0.2603  1.7534
 3690TIP3   OH235264   0.610   5.853  17.116  0.1303  0.6543 -0.1712
 3690TIP3    H135265   0.578   5.782  17.061  0.5021  1.4600 -1.4581
 3690TIP3    H235266   0.569   5.932  17.081 -1.0619  1.0003  1.8496
 3691TIP3   OH235267   5.596   6.363  15.020 -0.2426 -0.2956 -0.8009
 3691TIP3    H135268   5.544   6.359  14.940 -0.7077 -0.0006 -0.5159
 3691TIP3    H235269   5.686   6.375  14.989 -0.3320 -0.8377 -1.3004
 3692TIP3   OH235270   6.352   2.174  15.050 -0.0061  0.6629  0.6216
 3692TIP3    H135271   6.272   2.142  15.009  0.5413  1.7371 -1.4472
 3692TIP3    H235272   6.407   2.096  15.060 -0.7336  0.1504  0.6511
 3693TIP3   OH235273   6.577   4.368  15.457  0.6204 -0.1570  0.2818
 3693TIP3    H135274   6.491   4.400  15.429  1.2309  1.9726  0.6685
 3693TIP3    H235275   6.588   4.403  15.546  2.0268 -0.0577  0.0957
 3694TIP3   OH235276   3.395   4.524  16.238  0.1050 -0.3609 -0.4090
 3694TIP3    H135277   3.339   4.471  16.180  0.0296 -0.0464 -0.6252
 3694TIP3    H235278   3.458   4.565  16.179 -0.4501  0.5668 -0.3682
 3695TIP3   OH235279   1.612   5.643  17.752 -0.5114 -0.3375  0.4666
 3695TIP3    H135280   1.567   5.592  17.820  1.1071 -2.9908 -0.2607
 3695TIP3    H235281   1.704   5.644  17.780 -0.0430 -0.2868 -0.9725
 3696TIP3   OH235282   5.284   4.896  16.904  0.3433 -0.3300  0.3109
 3696TIP3    H135283   5.360   4.931  16.950  0.8192 -1.2588  0.2566
 3696TIP3    H235284   5.226   4.866  16.974  1.1679 -1.9554  0.3516
 3697TIP3   OH235285   2.369   4.551  15.077 -0.3342 -0.1720 -0.1414
 3697TIP3    H135286   2.393   4.606  15.003  1.8284  1.0574  1.3536
 3697TIP3    H235287   2.434   4.480  15.076  0.3992  0.4472  1.1355
 3698TIP3   OH235288   0.522   5.237  16.305  0.3080  0.4555  0.2655
 3698TIP3    H135289   0.492   5.190  16.383 -1.5061  1.5321  0.2858
 3698TIP3    H235290   0.458   5.214  16.237  0.9568  0.7693 -0.4714
 3699TIP3   OH235291   2.288   5.945  17.572  0.4209 -0.2187 -0.0732
 3699TIP3    H135292   2.359   5.991  17.526 -0.7637  0.8347 -0.9289
 3699TIP3    H235293   2.252   6.011  17.631  1.3674 -1.3089  1.8548
 3700TIP3   OH235294   5.249   0.908  14.846 -0.1727  0.2084  0.4296
 3700TIP3    H135295   5.218   0.951  14.766 -0.1432  0.6373  0.6449
 3700TIP3    H235296   5.201   0.952  14.916 -0.7646 -0.6755  0.5965
 3701TIP3   OH235297   6.356   6.605  17.787 -0.0824 -0.1473  0.7259
 3701TIP3    H135298   6.429   6.543  17.784 -0.4000 -0.4838 -0.5395
 3701TIP3    H235299   6.380   6.675  17.726 -0.3152  0.3204  1.1617
 3702TIP3   OH235300   1.039   6.371  17.237 -0.5044 -0.8966 -0.1502
 3702TIP3    H135301   1.020   6.451  17.287 -1.7601 -0.6171 -1.0211
 3702TIP3    H235302   1.129   6.383  17.206 -1.0354  0.7475 -1.2138
 3703TIP3   OH235303   1.213   4.611  14.522 -0.1567 -0.3247 -0.4908
 3703TIP3    H135304   1.293   4.608  14.469  0.5429  1.5545  0.3618
 3703TIP3    H235305   1.145   4.640  14.461  0.0647 -0.7820 -0.9585
 3704TIP3   OH235306   0.212   0.396  14.812 -0.2383  0.7208  0.2635
 3704TIP3    H135307   0.292   0.344  14.803 -0.4958  0.3493  0.0597
 3704TIP3    H235308   0.217   0.433  14.900 -0.0035  0.4235  0.3800
 3705TIP3   OH235309   1.804   0.507  15.529 -0.4178  0.3142 -0.1011
 3705TIP3    H135310   1.869   0.547  15.471 -0.4891  0.1708 -0.2817
 3705TIP3    H235311   1.764   0.580  15.575  0.5678  0.3375  0.7468
 3706TIP3   OH235312   1.026   6.468  14.943  0.4130 -0.1855  0.4096
 3706TIP3    H135313   1.006   6.437  14.855  0.2680 -0.7024  0.6139
 3706TIP3    H235314   1.042   6.387  14.993 -0.3041  0.0437  1.0434
 3707TIP3   OH235315   5.898   5.983  15.414 -0.0840 -0.0856 -0.0622
 3707TIP3    H135316   5.826   5.931  15.379  0.4216 -0.9569  0.1597
 3707TIP3    H235317   5.896   5.965  15.508  1.1934 -1.1359 -0.2051
 3708TIP3   OH235318   5.312   1.498  16.315 -0.2492 -0.2402  0.5216
 3708TIP3    H135319   5.263   1.578  16.298  0.1790 -0.2523 -0.8827
 3708TIP3    H235320   5.245   1.431  16.325 -0.6531  0.4151  2.6246
 3709TIP3   OH235321   6.027   2.165  15.928 -0.0865 -0.1418 -0.5374
 3709TIP3    H135322   6.039   2.107  16.003  0.2471 -1.1046 -1.3212
 3709TIP3    H235323   5.968   2.233  15.960 -0.6804 -1.0411  0.3493
 3710TIP3   OH235324   2.225   0.163  15.751  0.4837 -0.2472 -0.4970
 3710TIP3    H135325   2.201   0.095  15.814  1.1217  0.6223  0.7317
 3710TIP3    H235326   2.282   0.120  15.688  0.6443 -0.9192  0.1003
 3711TIP3   OH235327   4.544   0.771  17.513 -0.3041  0.1010  0.1473
 3711TIP3    H135328   4.586   0.720  17.444 -1.6729 -0.0419 -0.6201
 3711TIP3    H235329   4.565   0.725  17.594  0.0072 -0.6301 -0.3392
 3712TIP3   OH235330   2.346   6.632  17.262 -0.1619 -0.1822 -0.6745
 3712TIP3    H135331   2.402   6.555  17.252  0.0288 -0.1631  0.2121
 3712TIP3    H235332   2.381   6.695  17.198  0.8276 -0.1742 -0.1468
 3713TIP3   OH235333   1.022   2.189  15.415 -0.1461 -0.1073 -0.1223
 3713TIP3    H135334   1.094   2.252  15.405  0.2069 -0.5650 -0.5186
 3713TIP3    H235335   1.017   2.145  15.331  1.0408 -2.1248  0.7970
 3714TIP3   OH235336   5.775   6.695  15.475  0.3693 -0.5545  0.1664
 3714TIP3    H135337   5.793   6.689  15.381 -0.4132 -0.2313 -0.0061
 3714TIP3    H235338   5.715   6.768  15.484 -2.3072 -2.6531  0.5263
 3715TIP3   OH235339   4.270   6.345  16.094 -0.4744  0.0006  0.0974
 3715TIP3    H135340   4.199   6.406  16.114 -0.8712 -0.5483  0.3931
 3715TIP3    H235341   4.242   6.262  16.134  0.2168 -0.2839  0.0003
 3716TIP3   OH235342   6.555   1.182  17.690 -0.2889 -0.8387  0.5127
 3716TIP3    H135343   6.539   1.276  17.692 -0.2069 -0.8186  0.2636
 3716TIP3    H235344   6.617   1.166  17.761 -1.0215 -0.8432  1.1594
 3717TIP3   OH235345   3.124   1.673  15.997 -0.2808  0.5366  0.6453
 3717TIP3    H135346   3.176   1.741  16.040  1.2472 -0.7017  0.8698
 3717TIP3    H235347   3.034   1.688  16.027  0.1014  2.1072  1.0872
 3718TIP3   OH235348   0.579   1.987  15.414  0.3085  0.2251 -0.3908
 3718TIP3    H135349   0.551   1.910  15.464  2.0217 -1.8918 -2.4479
 3718TIP3    H235350   0.628   2.040  15.477 -2.7847  0.9236  1.6645
 3719TIP3   OH235351   0.009   2.590  17.435  0.1344  0.0788  0.2095
 3719TIP3    H135352   0.061   2.525  17.388  0.8464  0.5328  0.3437
 3719TIP3    H235353   0.057   2.604  17.516 -1.1365 -0.7657  1.1292
 3720TIP3   OH235354   4.006   1.307  14.988 -0.7991 -0.3584  0.6874
 3720TIP3    H135355   4.080   1.333  14.932 -0.9135 -1.0404  0.2156
 3720TIP3    H235356   3.963   1.390  15.010  0.2638  0.0782  1.1984
 3721TIP3   OH235357   4.082   3.891  17.752 -0.6045 -0.0674 -0.6639
 3721TIP3    H135358   4.175   3.875  17.739 -0.0700  1.9121  0.3975
 3721TIP3    H235359   4.052   3.819  17.807  0.6406  0.0639  0.2106
 3722TIP3   OH235360   4.970   3.688  17.363 -0.0114  0.0400  0.3735
 3722TIP3    H135361   4.927   3.665  17.281 -1.0913 -2.2593  1.5126
 3722TIP3    H235362   4.918   3.760  17.399 -0.2918  0.1894 -0.3162
 3723TIP3   OH235363   6.155   0.268  16.595  0.2131  0.3280 -0.0329
 3723TIP3    H135364   6.139   0.191  16.540  1.0800  0.4600 -0.4921
 3723TIP3    H235365   6.138   0.238  16.684  1.0922 -0.5709 -0.1485
 3724TIP3   OH235366   6.265   6.113  17.408  0.5274 -0.5897 -0.6353
 3724TIP3    H135367   6.276   6.202  17.375  0.4697 -1.2000 -2.3841
 3724TIP3    H235368   6.246   6.060  17.330 -4.3142 -1.4000  0.7882
 3725TIP3   OH235369   5.651   1.840  16.465  0.2046  0.1259 -0.0670
 3725TIP3    H135370   5.721   1.896  16.432 -0.4775  0.7558 -0.4566
 3725TIP3    H235371   5.597   1.821  16.388 -0.4449  0.2171  0.3583
 3726TIP3   OH235372   6.680   5.606  16.376 -0.0964  0.2105 -0.2514
 3726TIP3    H135373   6.609   5.658  16.412  0.2126 -0.1327  0.9095
 3726TIP3    H235374   6.731   5.667  16.323  0.3666  1.1472  1.2298
 3727TIP3   OH235375   2.589   2.922  15.447  0.3979 -0.3264 -0.4399
 3727TIP3    H135376   2.678   2.932  15.413  0.6901 -0.2208  0.3419
 3727TIP3    H235377   2.553   2.847  15.399  1.2642 -1.0071 -0.0265
 3728TIP3   OH235378   4.719   3.164  17.651  1.2116  0.5101  0.8182
 3728TIP3    H135379   4.716   3.259  17.645  1.3931  0.5053  0.6513
 3728TIP3    H235380   4.689   3.145  17.740  0.9302  0.7066  0.7686
 3729TIP3   OH235381   1.775   2.559  15.554 -0.2450 -0.0260 -0.0311
 3729TIP3    H135382   1.823   2.477  15.563 -0.8858 -0.6629 -1.9219
 3729TIP3    H235383   1.820   2.605  15.483 -0.1849  1.0794  0.6905
 3730TIP3   OH235384   1.445   3.690  14.815  0.1640  0.5169  0.5992
 3730TIP3    H135385   1.370   3.727  14.768 -0.0598 -0.3097  0.2841
 3730TIP3    H235386   1.408   3.621  14.869  0.8321 -0.7856 -0.5327
 3731TIP3   OH235387   3.270   5.475  16.720  0.1432  0.5883  0.2514
 3731TIP3    H135388   3.243   5.397  16.671 -1.1783  0.7665  0.6631
 3731TIP3    H235389   3.361   5.489  16.694  1.0242 -2.1060  1.4855
 3732TIP3   OH235390   0.971   5.842  17.435  0.2432  0.0568  0.2975
 3732TIP3    H135391   0.996   5.880  17.351 -3.0901 -0.3259 -1.0134
 3732TIP3    H235392   1.032   5.881  17.498  2.2328  1.1155 -2.0925
 3733TIP3   OH235393   3.303   1.579  15.601 -0.3381  0.0894  0.4303
 3733TIP3    H135394   3.211   1.601  15.586 -0.3637 -0.9373 -1.2813
 3733TIP3    H235395   3.351   1.657  15.576 -0.6454 -0.1942 -1.1469
 3734TIP3   OH235396   2.362   2.703  16.527 -0.4001 -0.7338 -0.3289
 3734TIP3    H135397   2.393   2.614  16.513 -0.2797 -0.9822  1.2717
 3734TIP3    H235398   2.267   2.695  16.533 -0.3936 -0.7489 -0.2417
 3735TIP3   OH235399   4.450   5.143  16.244  0.5292  0.3490 -0.4851
 3735TIP3    H135400   4.456   5.050  16.223  0.0897 -0.2262  1.6781
 3735TIP3    H235401   4.481   5.187  16.165  1.4282 -1.6319 -1.3186
 3736TIP3   OH235402   3.275   1.374  15.192  0.2453 -0.0240 -0.6295
 3736TIP3    H135403   3.362   1.399  15.221  0.3361  0.6286 -1.4294
 3736TIP3    H235404   3.253   1.297  15.244  0.7433  0.5945  0.5302
 3737TIP3   OH235405   5.952   1.673  14.796 -0.4833  0.5297 -0.1919
 3737TIP3    H135406   5.873   1.636  14.755 -0.8432  0.9363  0.1218
 3737TIP3    H235407   5.919   1.741  14.854  0.1894  1.4917 -0.9122
 3738TIP3   OH235408   4.709   2.138  18.057 -0.1430  0.1900  0.8539
 3738TIP3    H135409   4.693   2.158  17.965 -1.4845  1.3423  1.3028
 3738TIP3    H235410   4.747   2.218  18.092 -0.4808  0.0769  1.4880
 3739TIP3   OH235411   3.053   0.148  17.068 -0.4311  0.3575  0.0683
 3739TIP3    H135412   2.975   0.199  17.048 -0.3412  0.1438 -0.8582
 3739TIP3    H235413   3.100   0.143  16.985  0.1538 -0.2250  0.4276
 3740TIP3   OH235414   3.744   1.566  17.355 -0.0599  0.0120  0.3062
 3740TIP3    H135415   3.666   1.515  17.374 -0.6191  1.0831  0.9836
 3740TIP3    H235416   3.812   1.501  17.336 -1.1028 -0.9324 -0.3114
 3741TIP3   OH235417   2.664   6.615  15.102 -0.2375  0.3307  0.5058
 3741TIP3    H135418   2.642   6.527  15.073  0.3103  0.4896 -0.4249
 3741TIP3    H235419   2.700   6.658  15.025  0.3297  1.0924  1.1683
 3742TIP3   OH235420   3.201   4.886  16.776  0.4457  0.5524  0.3170
 3742TIP3    H135421   3.252   4.810  16.806  0.8868  0.0548 -1.5280
 3742TIP3    H235422   3.264   4.938  16.725 -0.5120  0.6994 -0.7540
 3743TIP3   OH235423   2.575   4.257  16.526 -0.3791  0.2480  0.0511
 3743TIP3    H135424   2.567   4.266  16.621 -0.2682  0.4564  0.0399
 3743TIP3    H235425   2.641   4.188  16.514  0.4851  1.0468  0.1243
 3744TIP3   OH235426   4.967   3.957  15.408  0.4471  0.2116 -0.2578
 3744TIP3    H135427   5.015   3.875  15.419 -1.0525 -0.9482 -1.8499
 3744TIP3    H235428   5.033   4.020  15.378  1.7380 -0.2037  1.5546
 3745TIP3   OH235429   6.602   0.899  17.940 -0.0651 -0.2260  0.1517
 3745TIP3    H135430   6.537   0.940  17.883 -0.3306 -2.8010 -1.5341
 3745TIP3    H235431   6.672   0.964  17.946 -1.5127  1.4836 -0.2772
 3746TIP3   OH235432   1.238   3.574  16.353 -0.5436 -0.1915  0.1102
 3746TIP3    H135433   1.297   3.512  16.309 -0.6360  0.9991 -1.8150
 3746TIP3    H235434   1.297   3.637  16.395 -0.3786  0.9103 -1.6850
 3747TIP3   OH235435   0.727   1.528  17.392 -0.4284  0.6940  0.5297
 3747TIP3    H135436   0.815   1.520  17.429 -0.2438  0.6137  0.0900
 3747TIP3    H235437   0.669   1.536  17.467 -0.1258 -0.0488  0.8506
 3748TIP3   OH235438   4.597   6.545  15.851 -0.2924  0.1616  0.5719
 3748TIP3    H135439   4.616   6.565  15.943 -2.7475 -1.3418  1.4962
 3748TIP3    H235440   4.587   6.450  15.849  1.5462 -0.0683 -1.7081
 3749TIP3   OH235441   1.442   0.339  15.155  0.0622 -0.8671  0.1546
 3749TIP3    H135442   1.400   0.371  15.075  1.5878 -0.3946 -0.4855
 3749TIP3    H235443   1.405   0.393  15.225 -0.5766 -0.6429 -0.3480
 3750TIP3   OH235444   3.364   2.511  18.013 -0.1678 -0.2868  0.5508
 3750TIP3    H135445   3.419   2.469  17.947 -0.5142 -0.6678  0.4965
 3750TIP3    H235446   3.422   2.573  18.057  0.2448 -0.5194  0.3430
 3751TIP3   OH235447   3.677   5.627  16.248  0.0908 -0.0601 -0.3186
 3751TIP3    H135448   3.691   5.685  16.173 -0.1704  0.9052  0.3602
 3751TIP3    H235449   3.713   5.543  16.220  1.6259  0.7421 -0.8849
 3752TIP3   OH235450   2.516   4.804  15.937 -0.1058  0.3848  0.9626
 3752TIP3    H135451   2.529   4.868  15.867  2.1170 -0.4429  0.5469
 3752TIP3    H235452   2.457   4.847  15.999 -0.7849  1.7808 -0.5911
 3753TIP3   OH235453   0.583   3.011  16.887 -0.0500 -0.2803 -0.1018
 3753TIP3    H135454   0.603   2.918  16.898  0.0425 -0.4584 -1.5066
 3753TIP3    H235455   0.650   3.057  16.937  1.8991 -0.9343 -1.9669
 3754TIP3   OH235456   0.564   2.411  15.036  0.2334  0.2529  0.3262
 3754TIP3    H135457   0.642   2.448  14.993  0.2981 -0.5681 -0.2810
 3754TIP3    H235458   0.590   2.323  15.062  0.2063  0.7371  2.1374
 3755TIP3   OH235459   1.406   0.968  16.622 -0.2099  0.9033  0.0622
 3755TIP3    H135460   1.461   0.901  16.662  1.2849  0.9362 -1.7900
 3755TIP3    H235461   1.410   1.042  16.682  1.1433  0.6108  0.3575
 3756TIP3   OH235462   3.096   5.016  15.845 -0.6630  0.0887  0.4734
 3756TIP3    H135463   3.118   5.094  15.795 -1.8643 -0.9718 -1.8663
 3756TIP3    H235464   3.033   5.048  15.910 -3.6996  0.7187 -2.4876
 3757TIP3   OH235465   4.495   1.225  16.531  0.1835 -0.4846 -0.0928
 3757TIP3    H135466   4.530   1.271  16.607  1.7387  0.6108 -1.4170
 3757TIP3    H235467   4.544   1.143  16.529 -0.9281 -1.2091  0.9083
 3758TIP3   OH235468   0.620   5.145  17.009  0.0747 -0.1426 -0.2763
 3758TIP3    H135469   0.684   5.094  16.959  0.1844 -0.7290  0.4346
 3758TIP3    H235470   0.569   5.079  17.055  0.1619  0.3916  0.6036
 3759TIP3   OH235471   3.177   1.255  15.878 -0.0196 -0.1680  0.2044
 3759TIP3    H135472   3.139   1.250  15.966 -0.0825  1.8311  0.3382
 3759TIP3    H235473   3.127   1.193  15.826 -0.7023 -0.5859  1.3386
 3760TIP3   OH235474   5.691   1.922  15.912 -0.4808 -0.0796 -0.2437
 3760TIP3    H135475   5.702   2.014  15.886 -0.8853  0.1101  0.2639
 3760TIP3    H235476   5.773   1.880  15.885 -0.2369  0.4591 -0.3480
 3761TIP3   OH235477   2.034   2.292  15.896 -0.5366  0.2475 -0.3755
 3761TIP3    H135478   2.050   2.335  15.980 -1.4169 -1.9141  0.9766
 3761TIP3    H235479   2.117   2.300  15.849 -0.9015  4.1773 -0.6843
 3762TIP3   OH235480   2.887   1.514  17.919  0.0756 -0.5360 -0.7605
 3762TIP3    H135481   2.936   1.567  17.856  0.4711 -0.6531 -0.5548
 3762TIP3    H235482   2.842   1.449  17.866 -1.0020  0.4487 -1.0888
 3763TIP3   OH235483   1.190   3.652  15.206  0.4639  0.2132  0.4373
 3763TIP3    H135484   1.138   3.607  15.272 -3.8436  3.0162 -0.6651
 3763TIP3    H235485   1.141   3.640  15.124  1.8710  2.5180 -0.8546
 3764TIP3   OH235486   2.777   1.782  17.971 -0.1688 -0.1029 -0.0883
 3764TIP3    H135487   2.740   1.828  17.895  0.4113 -0.2275 -0.4605
 3764TIP3    H235488   2.846   1.728  17.933  0.3933  0.1311  0.5814
 3765TIP3   OH235489   0.379   1.302  16.832  0.0476  0.1948 -0.0159
 3765TIP3    H135490   0.348   1.336  16.916 -0.3387 -1.2290  0.4470
 3765TIP3    H235491   0.368   1.374  16.771 -4.2588 -0.1192  0.0898
 3766TIP3   OH235492   0.683   3.614  17.970 -0.5666 -0.4682 -0.2624
 3766TIP3    H135493   0.635   3.536  17.942 -1.7115 -0.3844  1.3145
 3766TIP3    H235494   0.714   3.593  18.058 -2.1617  1.3059  0.8139
 3767TIP3   OH235495   4.649   1.251  16.005 -0.2419 -0.0826 -0.0038
 3767TIP3    H135496   4.647   1.305  16.084 -2.9553  1.1809 -0.8300
 3767TIP3    H235497   4.688   1.307  15.938  1.5745 -0.9769  0.2242
 3768TIP3   OH235498   0.048   4.528  16.410  0.4247 -0.1052 -0.4670
 3768TIP3    H135499   0.115   4.568  16.466  0.1637  0.0633 -0.2711
 3768TIP3    H235500  -0.024   4.510  16.470  0.7771 -1.4763 -0.4221
 3769TIP3   OH235501   4.859   4.982  15.849 -0.0746 -0.0058  0.2798
 3769TIP3    H135502   4.892   5.009  15.934 -0.0587  0.9075 -0.0099
 3769TIP3    H235503   4.852   4.887  15.855  1.2246 -0.0861  0.8413
 3770TIP3   OH235504   1.782   0.081  14.366 -0.0445 -0.6506 -0.2620
 3770TIP3    H135505   1.869   0.111  14.338  0.0555  0.3263  0.9849
 3770TIP3    H235506   1.722   0.142  14.324  0.0621  0.3418  0.9514
 3771TIP3   OH235507   3.331   6.665  15.813 -0.4597 -0.4772  0.0368
 3771TIP3    H135508   3.386   6.624  15.747  1.2213  0.1807  0.9848
 3771TIP3    H235509   3.243   6.633  15.793 -0.0885 -0.0039 -2.7214
 3772TIP3   OH235510   5.672   0.527  15.969 -0.5413  0.6874 -0.5036
 3772TIP3    H135511   5.625   0.449  15.999 -1.5284  0.8006 -1.6773
 3772TIP3    H235512   5.643   0.597  16.027 -1.0724  0.5570 -0.6111
 3773TIP3   OH235513   2.771   6.289  17.692  0.1531  0.0698  0.2943
 3773TIP3    H135514   2.813   6.279  17.777 -0.4970 -1.5289  0.4737
 3773TIP3    H235515   2.696   6.230  17.696 -1.3809  1.8804 -0.4719
 3774TIP3   OH235516   1.543   6.763  15.400  0.0377  0.0497 -0.0516
 3774TIP3    H135517   1.577   6.850  15.421 -0.0005  0.9511 -3.2956
 3774TIP3    H235518   1.457   6.778  15.363 -1.3877 -1.7293  2.2336
 3775TIP3   OH235519   1.457   0.283  17.213  0.4878  0.6125 -0.1936
 3775TIP3    H135520   1.497   0.299  17.298  1.0020  0.1292 -0.3389
 3775TIP3    H235521   1.363   0.290  17.229  0.5654  4.7865 -0.4156
 3776TIP3   OH235522   4.228   0.360  17.149  0.4211  0.1366  0.2721
 3776TIP3    H135523   4.297   0.406  17.197 -0.6030 -0.0993  2.0843
 3776TIP3    H235524   4.150   0.414  17.162 -0.4384 -1.2165  1.0497
 3777TIP3   OH235525   0.758   0.592  18.038  0.6813  0.6412  0.5288
 3777TIP3    H135526   0.833   0.591  17.979  0.6584 -0.0326  0.5042
 3777TIP3    H235527   0.760   0.506  18.081 -0.7272  0.1456 -0.3202
 3778TIP3   OH235528   1.551   5.585  17.283 -0.0549 -0.3940 -0.2118
 3778TIP3    H135529   1.616   5.614  17.219 -1.4481  0.2223 -1.3748
 3778TIP3    H235530   1.546   5.658  17.345 -1.5660  0.7771 -1.6294
 3779TIP3   OH235531   0.591   3.049  16.537 -0.2584 -0.1718 -0.5740
 3779TIP3    H135532   0.630   3.091  16.461 -0.2949 -0.2107 -0.6141
 3779TIP3    H235533   0.658   2.987  16.567  0.7317  1.4808  0.8363
 3780TIP3   OH235534   2.914   5.888  17.242  0.0043  0.7866 -0.5704
 3780TIP3    H135535   2.921   5.793  17.236  0.7291  0.9292 -4.4577
 3780TIP3    H235536   2.999   5.921  17.213  1.2358  2.8290  4.3600
 3781TIP3   OH235537   3.116   1.363  16.305 -0.0271  0.1226  0.3720
 3781TIP3    H135538   3.182   1.430  16.288  1.9976 -1.6676  0.7127
 3781TIP3    H235539   3.067   1.397  16.380  1.1435  1.1208  0.7275
 3782TIP3   OH235540   6.122   3.311  14.785  0.3437  0.1567 -0.0037
 3782TIP3    H135541   6.172   3.260  14.722 -0.3729 -2.1279  1.1982
 3782TIP3    H235542   6.045   3.341  14.737  0.5196 -0.3139 -0.5800
 3783TIP3   OH235543   6.471   0.866  16.541  0.2746 -0.2093  0.3391
 3783TIP3    H135544   6.467   0.950  16.495  0.9438 -0.0645  0.5405
 3783TIP3    H235545   6.426   0.805  16.483 -0.3524  0.3153  0.2601
 3784TIP3   OH235546   4.023   3.159  16.443  0.1831  0.1129  0.3253
 3784TIP3    H135547   4.030   3.064  16.435 -0.1843  0.0749  0.4783
 3784TIP3    H235548   3.943   3.174  16.493  0.7587  0.4683  1.1576
 3785TIP3   OH235549   0.128   4.521  17.933  0.7035  0.5855  0.6227
 3785TIP3    H135550   0.186   4.594  17.952  1.1452  0.0076  1.5288
 3785TIP3    H235551   0.099   4.537  17.843 -0.4790  2.7423  1.2908
 3786TIP3   OH235552   2.114   0.886  16.126 -0.0183 -0.0318  0.1432
 3786TIP3    H135553   2.140   0.897  16.217  0.4223 -1.2089  0.1690
 3786TIP3    H235554   2.025   0.922  16.121 -0.0263  0.0765  1.0210
 3787TIP3   OH235555   6.626   1.989  14.348 -0.1070 -0.4063 -0.2269
 3787TIP3    H135556   6.637   1.896  14.329 -1.5345 -1.1443  2.1476
 3787TIP3    H235557   6.692   2.009  14.414 -0.1619  0.1180 -0.3257
 3788TIP3   OH235558   2.965   2.408  14.717 -0.2220 -0.1958 -0.0253
 3788TIP3    H135559   3.038   2.348  14.708  0.4543  0.5585  0.2942
 3788TIP3    H235560   2.910   2.392  14.640 -0.0826 -1.2400  0.0873
 3789TIP3   OH235561   6.028   4.402  15.966  0.1691  0.3621  0.0945
 3789TIP3    H135562   5.933   4.390  15.971  0.3543 -0.8229  2.2363
 3789TIP3    H235563   6.044   4.481  16.017  0.2162  1.6325 -1.8176
 3790TIP3   OH235564   4.643   2.044  15.594 -0.3128  0.0192 -0.0087
 3790TIP3    H135565   4.582   2.011  15.528  0.1308  0.2790 -0.5511
 3790TIP3    H235566   4.666   1.966  15.646 -1.2449 -0.0469  0.3263
 3791TIP3   OH235567   3.851   1.514  15.865  0.0850 -0.4526  0.1505
 3791TIP3    H135568   3.884   1.603  15.879  0.6264 -0.7383  0.7278
 3791TIP3    H235569   3.775   1.526  15.809  0.4846  0.3276 -0.2499
 3792TIP3   OH235570   6.474   2.324  16.141 -0.0968  0.1927 -0.2560
 3792TIP3    H135571   6.536   2.260  16.175 -0.0070  0.9157  1.0006
 3792TIP3    H235572   6.518   2.408  16.151 -0.0211  0.4660 -2.3122
 3793TIP3   OH235573   5.945   6.123  17.189  0.2879  1.0437  0.3059
 3793TIP3    H135574   5.917   6.040  17.227  0.0797  0.9462 -0.0545
 3793TIP3    H235575   6.035   6.106  17.160 -0.0007  0.7246 -0.4153
 3794TIP3   OH235576   4.229   3.383  16.881  0.1585  0.5078 -0.3154
 3794TIP3    H135577   4.298   3.325  16.914 -0.2399  0.5941  0.7192
 3794TIP3    H235578   4.163   3.324  16.846 -0.5169  0.2710  1.2692
 3795TIP3   OH235579   2.195   3.479  17.186  0.6847 -0.3314 -0.0123
 3795TIP3    H135580   2.211   3.563  17.229  0.2926  0.1219 -0.7506
 3795TIP3    H235581   2.278   3.459  17.142  0.0407  0.8857 -1.8905
 3796TIP3   OH235582   1.520   3.187  16.029 -0.1259 -0.0786  0.3977
 3796TIP3    H135583   1.487   3.256  15.970  0.2220  0.4459  0.8119
 3796TIP3    H235584   1.589   3.144  15.978  0.3229  0.5143  0.4942
 3797TIP3   OH235585   3.146   5.296  16.518 -0.1855  0.0566  0.1635
 3797TIP3    H135586   3.083   5.369  16.516  0.3810  0.5464 -0.3416
 3797TIP3    H235587   3.133   5.255  16.604  0.4109  1.5965  1.0382
 3798TIP3   OH235588   2.435   0.620  15.072 -0.3096  0.3076 -0.2585
 3798TIP3    H135589   2.451   0.600  15.164 -0.7963  0.5280 -0.1232
 3798TIP3    H235590   2.476   0.705  15.058 -1.2084  0.8020  0.0497
 3799TIP3   OH235591   4.398   5.525  15.501 -0.1232  0.3749  0.7936
 3799TIP3    H135592   4.359   5.522  15.588 -1.4274  1.6132  0.3028
 3799TIP3    H235593   4.396   5.434  15.471  0.4421 -0.0822  2.0715
 3800TIP3   OH235594   0.565   1.892  16.310 -0.4056  0.0123  0.2884
 3800TIP3    H135595   0.559   1.923  16.401 -2.1585 -1.2439  0.6440
 3800TIP3    H235596   0.568   1.972  16.258 -2.2809  0.8210  1.3049
 3801TIP3   OH235597   3.705   2.806  16.422  0.0934 -0.0458  0.3932
 3801TIP3    H135598   3.801   2.799  16.427  0.2601  1.6516  0.0650
 3801TIP3    H235599   3.681   2.855  16.501 -0.4209  0.1569  0.1140
 3802TIP3   OH235600   5.534   1.142  15.496  0.0310  0.2423 -0.5323
 3802TIP3    H135601   5.590   1.117  15.569  0.9783 -1.4710 -1.7493
 3802TIP3    H235602   5.452   1.169  15.536  1.1220  1.1358  1.2243
 3803TIP3   OH235603   0.590   2.517  16.766 -0.1900 -0.0467  0.0284
 3803TIP3    H135604   0.542   2.466  16.702 -0.3928  0.7242 -0.4451
 3803TIP3    H235605   0.681   2.488  16.756 -0.1882  0.1957 -0.7464
 3804TIP3   OH235606   3.236   2.722  16.938  0.0325 -0.1894 -0.0061
 3804TIP3    H135607   3.219   2.674  17.019  1.2465 -0.4156  0.1271
 3804TIP3    H235608   3.179   2.799  16.944  0.9005  0.3761  1.5995
 3805TIP3   OH235609   5.712   6.094  17.886 -0.4061  0.2713 -0.0403
 3805TIP3    H135610   5.632   6.073  17.935 -0.5585  0.7894 -0.0579
 3805TIP3    H235611   5.737   6.181  17.917 -0.5412  0.6343 -0.9228
 3806TIP3   OH235612   1.516   5.390  15.996  0.3078  0.0366 -0.2761
 3806TIP3    H135613   1.500   5.367  15.905  0.9401  0.4767 -0.5114
 3806TIP3    H235614   1.461   5.330  16.047 -1.5883  1.0907 -0.9860
 3807TIP3   OH235615   5.614   1.930  16.190  0.6973 -0.0331 -0.2964
 3807TIP3    H135616   5.534   1.963  16.148  0.4034  1.3112  1.2264
 3807TIP3    H235617   5.681   1.937  16.122  0.9056  4.7853  0.0785
 3808TIP3   OH235618   3.981   5.266  15.755 -0.1335  0.4061 -0.2934
 3808TIP3    H135619   3.956   5.358  15.756  0.0155  0.4461  0.1641
 3808TIP3    H235620   4.028   5.255  15.672  2.2278  1.4052  0.8163
 3809TIP3   OH235621   5.256   1.205  16.566 -0.3891  0.1154 -0.1695
 3809TIP3    H135622   5.243   1.114  16.539  0.3342  0.1419 -0.6307
 3809TIP3    H235623   5.308   1.198  16.646 -1.2406  0.0902  0.3881
 3810TIP3   OH235624   2.972   2.902  16.345 -0.0463  0.0838  0.3403
 3810TIP3    H135625   2.994   2.838  16.413 -0.3399 -0.3836  0.0047
 3810TIP3    H235626   2.957   2.849  16.267  0.3424  0.6194 -0.1056
 3811TIP3   OH235627   6.756   6.094  16.475  0.2255  0.4099 -0.1891
 3811TIP3    H135628   6.851   6.102  16.486  0.6204 -0.8736 -2.1127
 3811TIP3    H235629   6.745   6.060  16.386 -2.0967  1.3183 -0.3283
 3812TIP3   OH235630   1.573   1.995  16.225 -0.0519  0.3399  0.3874
 3812TIP3    H135631   1.657   1.966  16.260  0.2037 -0.4586 -0.8189
 3812TIP3    H235632   1.564   1.948  16.142 -0.9963  1.5510 -0.2293
 3813TIP3   OH235633   2.430   5.719  14.549  0.1352  0.2561 -0.2609
 3813TIP3    H135634   2.493   5.663  14.504 -0.3537  0.5358 -1.3157
 3813TIP3    H235635   2.457   5.808  14.527 -0.5215  0.3806 -0.5636
 3814TIP3   OH235636   4.419   0.249  14.920 -0.0070 -0.2458 -0.5130
 3814TIP3    H135637   4.447   0.335  14.889  0.1203 -0.1217 -0.0693
 3814TIP3    H235638   4.501   0.205  14.946 -0.2940  0.7405  2.3609
 3815TIP3   OH235639   0.892   2.810  14.732 -0.0779  0.1330 -0.1009
 3815TIP3    H135640   0.983   2.782  14.737  0.5623  1.4234 -2.8547
 3815TIP3    H235641   0.880   2.864  14.810  0.8235 -1.7340  1.4054
 3816TIP3   OH235642   2.207   0.774  16.765 -0.4905  0.1808 -0.4474
 3816TIP3    H135643   2.208   0.771  16.670  0.7398  0.2551 -0.4554
 3816TIP3    H235644   2.243   0.861  16.786 -1.5887  0.5251  0.0836
 3817TIP3   OH235645   2.219   5.569  14.661 -0.0380  0.2717  0.0664
 3817TIP3    H135646   2.279   5.632  14.621 -0.9843 -0.2757 -2.4369
 3817TIP3    H235647   2.275   5.496  14.688  0.6373  0.5195 -0.6161
 3818TIP3   OH235648   5.304   3.374  16.255 -0.5495  0.7669  0.0045
 3818TIP3    H135649   5.319   3.325  16.336  1.2944  0.5427 -0.4327
 3818TIP3    H235650   5.209   3.374  16.245 -0.8118  0.5830  2.0234
 3819TIP3   OH235651   3.221   0.402  17.097 -0.0367 -0.5968  0.0041
 3819TIP3    H135652   3.163   0.329  17.119 -0.0586 -0.4778  0.3542
 3819TIP3    H235653   3.282   0.367  17.032 -0.7146 -0.6256 -0.6249
 3820TIP3   OH235654   6.576   6.565  15.165  0.2478 -0.0611 -0.0002
 3820TIP3    H135655   6.519   6.498  15.203  1.7353 -0.6067  1.4142
 3820TIP3    H235656   6.535   6.648  15.189 -0.5223 -0.4475  0.0562
 3821TIP3   OH235657   6.135   1.529  17.532 -0.0884 -0.3169  0.1392
 3821TIP3    H135658   6.148   1.526  17.627 -1.2748  0.0836  0.3358
 3821TIP3    H235659   6.191   1.459  17.498  1.4599  0.4549  0.9833
 3822TIP3   OH235660   5.188   6.233  17.755  0.0916  0.2340 -0.3986
 3822TIP3    H135661   5.165   6.324  17.778 -0.5381 -0.2069  0.8263
 3822TIP3    H235662   5.116   6.204  17.700 -0.0564  0.2579 -0.2185
 3823TIP3   OH235663   5.836   1.000  14.008  0.5052 -0.4985 -0.1797
 3823TIP3    H135664   5.919   1.038  14.036  0.0570  1.1387 -0.9500
 3823TIP3    H235665   5.860   0.936  13.941  1.2588 -1.3995  0.9219
 3824TIP3   OH235666   6.510   4.426  16.569 -0.1133 -0.7109 -0.7448
 3824TIP3    H135667   6.444   4.357  16.577  0.0872 -0.6572  4.4248
 3824TIP3    H235668   6.459   4.506  16.558 -0.6499 -1.0884 -1.0580
 3825TIP3   OH235669   4.049   5.697  16.350  0.3195  0.2467 -0.0045
 3825TIP3    H135670   3.980   5.693  16.284  1.2329 -0.9683 -0.9191
 3825TIP3    H235671   4.041   5.616  16.400  0.8456  0.2612  0.1162
 3826TIP3   OH235672   5.312   2.179  15.565 -0.2662 -0.0360  0.4452
 3826TIP3    H135673   5.288   2.187  15.657  1.0114 -2.2495  1.0628
 3826TIP3    H235674   5.385   2.240  15.554 -1.3874  1.3466  0.4647
 3827TIP3   OH235675   4.021   4.471  14.555 -0.2373 -0.3038 -0.2914
 3827TIP3    H135676   3.926   4.476  14.545  0.0798  3.5229 -3.8712
 3827TIP3    H235677   4.043   4.547  14.609  0.8863 -0.4124 -0.5821
 3828TIP3   OH235678   6.720   3.523  14.682 -0.2971  0.4643  0.0323
 3828TIP3    H135679   6.805   3.514  14.724 -0.1515  1.4186 -0.0512
 3828TIP3    H235680   6.725   3.605  14.633 -1.6174  1.0840  0.8799
 3829TIP3   OH235681   1.192   3.433  14.270 -0.2393  0.4655  0.1320
 3829TIP3    H135682   1.229   3.346  14.285  1.1148  0.7299 -1.3827
 3829TIP3    H235683   1.198   3.476  14.356 -0.9324 -0.9060  0.9036
 3830TIP3   OH235684   3.481   2.980  17.835 -0.3624  0.5030  0.2302
 3830TIP3    H135685   3.559   3.016  17.792  0.3313 -0.8794  0.2697
 3830TIP3    H235686   3.431   2.939  17.764 -1.1399  1.4927  0.1850
 3831TIP3   OH235687   3.752   5.192  15.297  0.1393 -0.5123  0.0859
 3831TIP3    H135688   3.782   5.205  15.207  1.1634  2.6600  0.7453
 3831TIP3    H235689   3.657   5.202  15.293  0.1966 -0.2423 -0.6400
 3832TIP3   OH235690   0.576   6.621  14.735  0.1520 -0.4256 -0.0823
 3832TIP3    H135691   0.601   6.713  14.741  1.4090 -0.7716  0.4458
 3832TIP3    H235692   0.498   6.613  14.789 -0.1863  0.3970 -0.4410
 3833TIP3   OH235693   3.270   3.289  15.471  0.5189 -0.1243 -0.0746
 3833TIP3    H135694   3.273   3.364  15.530  3.2504 -0.7788  0.7838
 3833TIP3    H235695   3.309   3.321  15.390 -1.3416  0.2066 -0.8929
 3834TIP3   OH235696   1.845   1.746  15.395  0.0188 -0.3648 -0.0769
 3834TIP3    H135697   1.816   1.828  15.435  0.5333 -0.5691  0.7355
 3834TIP3    H235698   1.787   1.680  15.431  1.4429 -0.7875  1.6070
 3835TIP3   OH235699   0.567   6.254  15.687 -0.2960 -0.3577 -0.4354
 3835TIP3    H135700   0.606   6.341  15.676 -0.9352 -0.1742 -1.3559
 3835TIP3    H235701   0.634   6.193  15.657  1.1806 -0.4211  2.5473
 3836TIP3   OH235702   2.093   1.137  14.733  0.5008 -0.5536  0.1807
 3836TIP3    H135703   2.150   1.117  14.660 -1.7542 -1.2432 -1.5090
 3836TIP3    H235704   2.056   1.053  14.759 -1.8959  0.1479 -0.7175
 3837TIP3   OH235705   5.252   0.227  14.652 -0.4481 -0.6246 -0.2551
 3837TIP3    H135706   5.266   0.313  14.691 -1.3581  0.3685 -2.0166
 3837TIP3    H235707   5.309   0.227  14.575 -0.3647 -1.6648 -0.2021
 3838TIP3   OH235708   5.470   5.790  15.330 -0.4474 -0.0987 -0.0665
 3838TIP3    H135709   5.401   5.729  15.305 -0.1677 -0.4526  0.0113
 3838TIP3    H235710   5.458   5.803  15.424  2.3022 -3.7688  1.0466
 3839TIP3   OH235711   6.118   2.953  18.113  0.2411  0.0960 -0.6008
 3839TIP3    H135712   6.130   2.859  18.129 -1.8502 -0.2349 -0.7083
 3839TIP3    H235713   6.146   2.965  18.022  0.1375 -0.5157 -0.7207
 3840TIP3   OH235714   4.042   1.801  17.608 -0.3609  0.9430  0.0510
 3840TIP3    H135715   3.998   1.758  17.535 -0.5578 -0.5271  0.9980
 3840TIP3    H235716   3.972   1.834  17.663 -0.2839 -0.0714  0.7854
 3841TIP3   OH235717   4.233   4.337  17.370  0.3149  0.4567 -0.4260
 3841TIP3    H135718   4.214   4.340  17.276  0.6432 -0.4462 -0.5362
 3841TIP3    H235719   4.163   4.387  17.410 -0.4685 -0.0826 -1.0743
 3842TIP3   OH235720   2.142   2.248  17.439  0.2984  0.4241  0.5696
 3842TIP3    H135721   2.097   2.169  17.409  2.9435 -0.5602 -1.2179
 3842TIP3    H235722   2.138   2.308  17.364  1.2653  0.5921  0.6358
 3843TIP3   OH235723   1.724   2.532  16.920  0.4517 -0.5405  0.6008
 3843TIP3    H135724   1.793   2.519  16.855  0.5247  0.3752  0.4726
 3843TIP3    H235725   1.683   2.615  16.895 -0.4467 -0.8830  0.9017
 3844TIP3   OH235726   3.372   0.142  17.391 -0.2161  0.5379  0.1995
 3844TIP3    H135727   3.369   0.048  17.373  1.3391  0.5158 -0.0239
 3844TIP3    H235728   3.422   0.179  17.318  0.0946  1.4016  0.8429
 3845TIP3   OH235729   5.398   3.231  15.760 -0.3106  0.1696 -0.1769
 3845TIP3    H135730   5.351   3.313  15.749 -1.2821 -0.2490  0.6957
 3845TIP3    H235731   5.486   3.256  15.787 -0.4752  0.9204 -0.3277
 3846TIP3   OH235732   3.078   6.360  17.758 -0.2267  0.2706  0.9037
 3846TIP3    H135733   3.029   6.423  17.811 -0.7086  0.1530  0.5938
 3846TIP3    H235734   3.089   6.284  17.816 -1.8902 -0.3762  0.4030
 3847TIP3   OH235735   4.021   5.662  16.045  0.1209 -0.5881  0.1369
 3847TIP3    H135736   4.033   5.592  15.981  0.2978  0.2706 -0.7957
 3847TIP3    H235737   3.968   5.727  15.999  4.2636  2.3730 -1.0796
 3848TIP3   OH235738   4.204   3.054  17.929 -0.0643 -0.4546 -0.0362
 3848TIP3    H135739   4.287   3.024  17.893  0.2908  0.3336  0.1048
 3848TIP3    H235740   4.209   3.149  17.926 -1.3681 -0.3845 -0.9370
 3849TIP3   OH235741   2.762   4.507  15.619 -0.1847 -0.3524  0.2636
 3849TIP3    H135742   2.831   4.533  15.558 -1.2683  0.5490 -0.6429
 3849TIP3    H235743   2.773   4.564  15.695  0.4134 -0.6104  0.3712
 3850TIP3   OH235744   4.411   5.572  17.153  0.3236  0.0095 -0.3469
 3850TIP3    H135745   4.449   5.651  17.115  1.3720 -0.8154 -1.0788
 3850TIP3    H235746   4.461   5.500  17.114 -2.0771 -1.1719 -1.4941
 3851TIP3   OH235747   5.112   6.683  16.302  0.2466  0.4372  0.0282
 3851TIP3    H135748   5.065   6.751  16.255  1.8291  0.7161 -1.2324
 3851TIP3    H235749   5.096   6.603  16.252  2.2688  0.8078 -1.3323
 3852TIP3   OH235750   3.403   3.654  17.961  0.9639  0.5151  0.4692
 3852TIP3    H135751   3.406   3.719  18.031  1.0469 -0.5915  1.5222
 3852TIP3    H235752   3.310   3.632  17.953  1.1367 -0.7024  1.5363
 3853TIP3   OH235753   3.404   0.313  17.595 -0.6271  0.2405 -0.2700
 3853TIP3    H135754   3.498   0.323  17.604 -0.7667  0.6052  1.0173
 3853TIP3    H235755   3.393   0.254  17.521  0.6154 -0.0568 -0.2378
 3854TIP3   OH235756   1.484   1.475  17.768 -0.2949 -0.6498 -0.5546
 3854TIP3    H135757   1.533   1.476  17.686  1.7926 -1.5289  0.6203
 3854TIP3    H235758   1.497   1.563  17.804 -1.6098 -0.1005 -1.3208
 3855TIP3   OH235759   2.494   2.287  17.626 -0.1100 -0.0886  0.2329
 3855TIP3    H135760   2.457   2.375  17.617 -0.3066 -0.1902  0.0469
 3855TIP3    H235761   2.512   2.259  17.536  0.0253 -0.2078  0.2971
 3856TIP3   OH235762   2.854   5.969  14.743 -0.8191 -0.3806  0.6328
 3856TIP3    H135763   2.778   5.978  14.684  0.5288  0.1853 -1.0959
 3856TIP3    H235764   2.928   6.003  14.692  0.7250 -1.5290  2.0179
 3857TIP3   OH235765   5.896   2.378  16.057  0.5092  0.4180  0.2882
 3857TIP3    H135766   5.987   2.378  16.088  0.2449 -1.4645  1.2052
 3857TIP3    H235767   5.847   2.421  16.126  0.4351 -0.4396  0.7814
 3858TIP3   OH235768   6.447   6.544  17.118 -0.2877 -0.2704  0.2381
 3858TIP3    H135769   6.448   6.586  17.032  0.5533  0.5400  0.6361
 3858TIP3    H235770   6.412   6.456  17.101 -1.8093  0.4569 -0.6532
 3859TIP3   OH235771   6.141   1.594  17.193 -0.3662 -0.1834 -0.1980
 3859TIP3    H135772   6.098   1.613  17.110  0.8987 -1.1122 -1.1238
 3859TIP3    H235773   6.099   1.651  17.257 -1.2288  0.7015 -1.5191
 3860TIP3   OH235774   3.413   3.914  18.119 -0.4749  0.5268  0.0375
 3860TIP3    H135775   3.422   3.994  18.066  0.7087  0.5169  0.2004
 3860TIP3    H235776   3.337   3.931  18.175  0.5682  2.1466  1.0598
 3861TIP3   OH235777   2.852   0.804  15.666  0.2409  0.2381  0.4316
 3861TIP3    H135778   2.850   0.736  15.733 -1.3152 -2.3248 -2.0071
 3861TIP3    H235779   2.814   0.881  15.709 -0.2922 -1.1477  2.5955
 3862TIP3   OH235780   2.250   6.170  17.733 -0.5205  0.0642 -0.3000
 3862TIP3    H135781   2.193   6.168  17.809  2.3063 -0.4205  1.9894
 3862TIP3    H235782   2.285   6.259  17.731  1.7607 -0.7059  0.9981
 3863TIP3   OH235783   6.299   0.293  17.511  0.0790 -0.0444  0.7760
 3863TIP3    H135784   6.371   0.314  17.453  0.1504  1.1656  1.2733
 3863TIP3    H235785   6.319   0.339  17.593 -1.5269  0.8186  0.7348
 3864TIP3   OH235786   0.901   4.438  17.499  0.3895 -0.5375 -0.3686
 3864TIP3    H135787   0.818   4.425  17.454 -0.4664  0.4882  0.8539
 3864TIP3    H235788   0.889   4.518  17.549  1.6573 -1.0775  0.8614
 3865TIP3   OH235789   1.851   5.792  16.953  0.6041  0.1099  0.4256
 3865TIP3    H135790   1.822   5.879  16.980  0.5230 -0.4021  2.0974
 3865TIP3    H235791   1.936   5.807  16.911 -0.0021  1.1167 -0.5187
 3866TIP3   OH235792   1.092   4.558  15.632  0.0879 -0.2312  0.3891
 3866TIP3    H135793   1.017   4.516  15.591  0.3375 -0.0425 -0.2885
 3866TIP3    H235794   1.123   4.620  15.566  2.4506 -2.1682 -0.4991
 3867TIP3   OH235795   0.766   5.860  15.808  0.0049 -0.0660  0.0914
 3867TIP3    H135796   0.737   5.877  15.897  0.0198  0.2796  0.0307
 3867TIP3    H235797   0.835   5.794  15.817 -0.1507 -0.1959  0.3159
 3868TIP3   OH235798   2.241   6.629  16.580 -0.8289  0.2748  0.1316
 3868TIP3    H135799   2.290   6.585  16.510  0.1293  2.7040 -0.8363
 3868TIP3    H235800   2.259   6.577  16.658 -1.5139 -2.2238 -1.2706
 3869TIP3   OH235801   5.570   1.652  16.240  0.0644  0.0835  0.2246
 3869TIP3    H135802   5.535   1.720  16.182  0.4324 -0.2966 -0.4530
 3869TIP3    H235803   5.497   1.592  16.253  0.1724 -0.2014 -0.4232
 3870TIP3   OH235804   2.755   2.280  17.290  0.5774 -0.5952  0.6192
 3870TIP3    H135805   2.811   2.328  17.351  0.0417 -0.1469  0.7575
 3870TIP3    H235806   2.668   2.319  17.300  0.6149 -0.0139 -0.9579
 3871TIP3   OH235807   5.561   0.785  16.448  0.1378 -0.5895  0.0566
 3871TIP3    H135808   5.511   0.861  16.417  0.8544  0.1886  0.7698
 3871TIP3    H235809   5.606   0.752  16.370  1.1855  0.7824  0.0571
 3872TIP3   OH235810   1.136   0.995  14.601 -0.3771  0.2424  0.3754
 3872TIP3    H135811   1.102   1.084  14.614 -1.2826  0.3141 -2.0823
 3872TIP3    H235812   1.226   0.999  14.636 -0.0946  2.3765 -0.4312
 3873TIP3   OH235813   0.154   5.887  16.963  0.3187 -0.0614 -0.3193
 3873TIP3    H135814   0.230   5.923  16.916  0.6482 -2.5111 -1.8634
 3873TIP3    H235815   0.086   5.878  16.896 -0.9104  0.8311  0.7570
 3874TIP3   OH235816   4.747   4.072  16.265 -0.5549  0.0287 -0.0960
 3874TIP3    H135817   4.704   4.053  16.181  0.8331 -3.2639 -0.2163
 3874TIP3    H235818   4.841   4.075  16.244 -0.0862 -1.9557  1.4287
 3875TIP3   OH235819   0.719   2.957  15.353  0.2343 -0.2579  0.8730
 3875TIP3    H135820   0.785   3.026  15.356 -1.0333  0.9633  2.3878
 3875TIP3    H235821   0.686   2.951  15.443 -1.9262 -0.5562  0.1315
 3876TIP3   OH235822   4.051   1.108  17.560  0.3794  0.0847  0.5315
 3876TIP3    H135823   4.028   1.122  17.468 -0.9696  0.2500  0.8670
 3876TIP3    H235824   4.121   1.172  17.577 -0.5776  1.3058  0.0749
 3877TIP3   OH235825   0.170   0.051  14.351 -0.1446  0.3247 -0.0446
 3877TIP3    H135826   0.097   0.013  14.301  0.2099 -0.3358 -0.0765
 3877TIP3    H235827   0.158   0.146  14.342 -0.8115  0.2242 -0.3215
 3878TIP3   OH235828   3.207   5.867  14.461 -0.1395  0.2462 -0.2426
 3878TIP3    H135829   3.205   5.802  14.531 -1.9816  0.6990  0.1832
 3878TIP3    H235830   3.270   5.832  14.397 -0.0860 -1.2729  0.6010
 3879TIP3   OH235831   3.436   2.761  15.139  0.3602  0.4368  0.0049
 3879TIP3    H135832   3.361   2.819  15.155 -0.3588 -0.1656 -1.0268
 3879TIP3    H235833   3.462   2.730  15.226 -0.4700  0.7983  0.3936
 3880TIP3   OH235834   4.725   2.674  17.340 -0.4218  0.3092  0.5287
 3880TIP3    H135835   4.648   2.716  17.302 -0.0635  2.3516  1.9049
 3880TIP3    H235836   4.689   2.615  17.407 -0.8134  1.4981  1.3972
 3881TIP3   OH235837   2.407   2.185  15.775  0.3159  0.0502  0.0541
 3881TIP3    H135838   2.381   2.137  15.696  0.4676  0.4009 -0.2131
 3881TIP3    H235839   2.395   2.277  15.752 -0.2428  0.1302  0.6597
 3882TIP3   OH235840   1.568   4.160  15.834 -0.2794  0.4677  0.0592
 3882TIP3    H135841   1.604   4.186  15.919  0.1224  0.6489 -0.1641
 3882TIP3    H235842   1.476   4.140  15.852 -0.4482  1.4675  0.3548
 3883TIP3   OH235843   3.197   3.729  16.560  0.1023  0.3327  0.1544
 3883TIP3    H135844   3.107   3.712  16.531  0.0753  0.5158  0.1284
 3883TIP3    H235845   3.210   3.668  16.633  1.4715 -2.8970 -2.5379
 3884TIP3   OH235846   5.709   4.282  15.012 -0.3335 -0.6406 -0.2477
 3884TIP3    H135847   5.764   4.360  15.020  0.3080 -1.1544  0.5487
 3884TIP3    H235848   5.646   4.304  14.944 -2.0159  1.7011  1.8898
 3885TIP3   OH235849   3.072   0.962  16.113 -0.2827 -0.3340 -1.4067
 3885TIP3    H135850   3.033   1.040  16.152 -1.7853 -1.3121 -0.8679
 3885TIP3    H235851   3.161   0.988  16.092 -0.4555  1.2407 -0.3759
 3886TIP3   OH235852   6.154   3.410  17.478 -0.1128  0.1509  0.1508
 3886TIP3    H135853   6.217   3.446  17.415  0.3594  1.6113  1.3971
 3886TIP3    H235854   6.207   3.381  17.552 -0.7296 -0.7809  0.2470
 3887TIP3   OH235855   4.384   1.574  18.030  0.1574 -0.2039  0.2324
 3887TIP3    H135856   4.478   1.590  18.020  0.2375 -0.9447 -0.2700
 3887TIP3    H235857   4.370   1.488  17.991 -0.9811  0.5580 -1.1493
 3888TIP3   OH235858   4.416   3.643  16.997  0.1652  0.3023  0.4404
 3888TIP3    H135859   4.507   3.621  17.019  0.6646  2.5649  0.8407
 3888TIP3    H235860   4.407   3.619  16.904  0.7219 -1.1579  0.7285
 3889TIP3   OH235861   2.508   6.101  17.972  0.0688 -0.8107  0.0475
 3889TIP3    H135862   2.466   6.173  18.021  0.2502 -0.4576 -0.3117
 3889TIP3    H235863   2.549   6.144  17.897 -0.5505 -1.4055 -0.6378
 3890TIP3   OH235864   5.938   6.600  17.901  0.4605 -0.4372  0.4137
 3890TIP3    H135865   5.961   6.678  17.952 -0.6998  0.4269 -0.3148
 3890TIP3    H235866   6.021   6.563  17.873  1.0225  0.8105  0.3946
 3891TIP3   OH235867   0.108   3.206  17.541 -0.1901  0.1329  0.0060
 3891TIP3    H135868   0.136   3.143  17.475 -1.0185 -0.2226 -0.0214
 3891TIP3    H235869   0.185   3.219  17.596 -0.4210 -2.0743  0.9358
 3892TIP3   OH235870   0.139   6.297  16.623  0.1987  0.0955 -0.5716
 3892TIP3    H135871   0.196   6.371  16.601  1.4440  0.9640  4.2701
 3892TIP3    H235872   0.193   6.219  16.609  1.1990  0.6382  0.1114
 3893TIP3   OH235873   5.070   3.716  17.664 -0.2670  0.0288  0.4243
 3893TIP3    H135874   5.020   3.757  17.594  1.5020 -0.1292 -1.0168
 3893TIP3    H235875   5.127   3.786  17.697  0.5171 -0.4552  0.1250
 3894TIP3   OH235876   1.093   6.428  15.562 -1.0479  0.1694 -0.2684
 3894TIP3    H135877   1.137   6.512  15.573  0.1436 -0.3296 -1.0495
 3894TIP3    H235878   1.125   6.374  15.633 -1.4771  0.2273 -0.0259
 3895TIP3   OH235879   3.565   0.429  17.356 -0.1200  0.7996  0.3449
 3895TIP3    H135880   3.558   0.354  17.297 -0.9215 -0.5458  2.0659
 3895TIP3    H235881   3.648   0.415  17.403 -0.5665  0.6083  1.1073
 3896TIP3   OH235882   5.593   3.162  16.020  0.6084 -0.1069 -0.5240
 3896TIP3    H135883   5.589   3.071  16.047 -1.5683 -0.4431 -1.6942
 3896TIP3    H235884   5.684   3.177  15.996  0.8302 -2.2736 -1.2103
 3897TIP3   OH235885   6.207   1.288  17.260  0.2735 -0.5448 -0.2341
 3897TIP3    H135886   6.123   1.243  17.267 -0.4656  0.9077  0.6892
 3897TIP3    H235887   6.185   1.373  17.220  0.8512  0.8936  2.3019
 3898TIP3   OH235888   3.537   3.288  17.365 -0.2307 -0.3337  0.2459
 3898TIP3    H135889   3.582   3.342  17.430  0.2897 -0.2809 -0.1438
 3898TIP3    H235890   3.594   3.292  17.288 -0.5711 -0.8245 -0.0368
 3899TIP3   OH235891   5.539   1.455  16.697  0.2563 -0.0403 -0.7880
 3899TIP3    H135892   5.516   1.385  16.636 -1.8637  0.3957 -0.5435
 3899TIP3    H235893   5.632   1.470  16.682  1.1613 -3.7507  0.0220
 3900TIP3   OH235894   1.968   0.638  16.791  0.8630  0.2370 -0.2242
 3900TIP3    H135895   2.051   0.683  16.807 -0.0844  2.0924 -0.3402
 3900TIP3    H235896   1.902   0.706  16.796 -0.6844 -1.2095 -0.1210
 3901TIP3   OH235897   2.031   1.862  17.523  0.1349  0.5033 -0.3742
 3901TIP3    H135898   2.066   1.774  17.515  0.7489  0.7828 -0.9479
 3901TIP3    H235899   2.031   1.880  17.617  2.3269  0.7781 -0.3634
 3902TIP3   OH235900   4.321   2.244  16.535 -0.3744  0.0781  0.1249
 3902TIP3    H135901   4.324   2.153  16.562 -0.0250  0.4382  1.3669
 3902TIP3    H235902   4.229   2.269  16.545 -0.4084 -0.0437  0.1171
 3903TIP3   OH235903   0.328   3.069  15.440 -0.0804 -0.2803  0.7418
 3903TIP3    H135904   0.391   3.132  15.406 -0.9720 -0.5346 -1.5489
 3903TIP3    H235905   0.380   2.993  15.466  0.7693  0.4876  1.3181
 3904TIP3   OH235906   1.473   0.807  17.256 -0.1589 -0.3319  0.4693
 3904TIP3    H135907   1.463   0.891  17.301 -2.2106  0.0139 -0.5127
 3904TIP3    H235908   1.403   0.806  17.190  1.8286 -1.4228 -1.7778
 3905TIP3   OH235909   4.665   3.607  14.927 -0.3410 -0.5893 -0.0427
 3905TIP3    H135910   4.610   3.533  14.953 -2.5135  0.9542  0.1021
 3905TIP3    H235911   4.632   3.632  14.840 -0.2385  0.6801  0.2628
 3906TIP3   OH235912   1.812   2.471  17.405  0.2192 -0.7024  0.0674
 3906TIP3    H135913   1.799   2.389  17.453 -0.1879 -0.8235 -0.2455
 3906TIP3    H235914   1.750   2.532  17.445  0.1019 -0.7151 -0.0957
 3907TIP3   OH235915   2.716   3.684  16.826  0.3839  0.0674 -0.0521
 3907TIP3    H135916   2.795   3.725  16.862 -0.1659  1.9492 -0.8779
 3907TIP3    H235917   2.648   3.750  16.836 -0.2285 -0.0623 -2.7049
 3908TIP3   OH235918   6.722   6.236  15.167  0.3188  0.1892 -0.1384
 3908TIP3    H135919   6.639   6.201  15.201  0.5097 -1.0551 -0.9214
 3908TIP3    H235920   6.789   6.177  15.202  0.5941 -0.6196 -1.9209
 3909TIP3   OH235921   2.711   1.252  14.860  0.1058 -0.0158  0.2993
 3909TIP3    H135922   2.696   1.320  14.795  2.0278 -0.4428 -0.6393
 3909TIP3    H235923   2.803   1.263  14.886  0.0724 -1.4244  1.0992
 3910TIP3   OH235924   5.770   1.770  17.117  0.0853  0.2139  0.2262
 3910TIP3    H135925   5.814   1.842  17.163  0.5056  0.1063  0.0045
 3910TIP3    H235926   5.730   1.719  17.187  3.6604 -1.9721  0.9415
 3911TIP3   OH235927   0.512   0.679  15.325  0.4347  0.1614 -0.3891
 3911TIP3    H135928   0.469   0.593  15.321  1.5913 -0.6723  2.6799
 3911TIP3    H235929   0.589   0.670  15.269  0.4133 -0.7040 -0.2921
 3912TIP3   OH235930   0.024   1.413  17.947 -0.1881 -0.2792 -0.4813
 3912TIP3    H135931   0.027   1.491  17.893 -1.2357  0.8658  1.0241
 3912TIP3    H235932   0.071   1.436  18.027  0.9768 -1.7914 -0.6690
 3913TIP3   OH235933   1.902   3.301  15.569 -0.2367 -0.1831 -0.5220
 3913TIP3    H135934   1.938   3.219  15.603  0.1211 -0.0929 -0.6792
 3913TIP3    H235935   1.971   3.365  15.584  0.2254 -0.2840 -2.0621
 3914TIP3   OH235936   4.789   2.512  17.102 -0.0506 -0.2083 -0.1644
 3914TIP3    H135937   4.804   2.590  17.048 -1.7599  0.8844  0.8294
 3914TIP3    H235938   4.761   2.547  17.187 -0.5881 -1.9065  0.3900
 3915TIP3   OH235939   3.444   2.510  16.019  0.4031 -0.6881  0.3410
 3915TIP3    H135940   3.517   2.547  16.069 -0.0501  0.6708  0.0350
 3915TIP3    H235941   3.398   2.454  16.082  0.4999  0.0972  1.1273
 3916TIP3   OH235942   1.519   4.071  15.420 -0.0622 -0.1196  0.3112
 3916TIP3    H135943   1.442   4.095  15.471  0.9888  1.3876  1.2388
 3916TIP3    H235944   1.509   4.120  15.338  0.4770  1.0615  0.9212
 3917TIP3   OH235945   4.864   1.253  15.287 -0.1221  0.3151 -0.4222
 3917TIP3    H135946   4.910   1.283  15.208 -0.2751 -0.3843 -0.7829
 3917TIP3    H235947   4.895   1.164  15.301 -1.6791 -0.3517 -0.9407
 3918TIP3   OH235948   4.046   4.682  15.106  0.3371  0.3422  0.2159
 3918TIP3    H135949   3.981   4.746  15.077  2.2182  2.3192  0.1324
 3918TIP3    H235950   4.117   4.689  15.042  0.8371 -1.4958  0.5080
 3919TIP3   OH235951   6.419   1.583  14.433  0.0714  0.0220  0.4227
 3919TIP3    H135952   6.326   1.588  14.413  0.5018  1.3759 -1.4930
 3919TIP3    H235953   6.436   1.489  14.443 -1.0071 -0.4800 -1.9154
 3920TIP3   OH235954   3.964   6.361  16.791 -0.3269  0.5703 -0.1808
 3920TIP3    H135955   3.988   6.379  16.882  0.8773 -0.6392 -0.2222
 3920TIP3    H235956   4.040   6.391  16.740 -0.5542  0.2834 -0.6895
 3921TIP3   OH235957   5.023   5.682  16.466 -0.6175 -0.0155  0.3136
 3921TIP3    H135958   5.113   5.694  16.435 -1.1315 -2.1046 -2.2471
 3921TIP3    H235959   4.970   5.736  16.408 -1.0915  1.8193  2.2826
 3922TIP3   OH235960   0.929   1.563  17.561 -0.1723  0.2214  0.3366
 3922TIP3    H135961   1.020   1.543  17.584  0.7853  2.5329 -1.1729
 3922TIP3    H235962   0.909   1.643  17.610 -1.6020 -0.4868  0.9908
 3923TIP3   OH235963   1.737   0.806  16.785 -0.3810 -0.0638 -0.4275
 3923TIP3    H135964   1.665   0.786  16.724 -1.1171  0.7943  0.1321
 3923TIP3    H235965   1.694   0.811  16.871  0.8235 -2.4741  0.3978
 3924TIP3   OH235966   1.648   4.737  17.337 -0.2934  0.0658  0.0269
 3924TIP3    H135967   1.568   4.773  17.300  0.0432 -0.5079 -1.3112
 3924TIP3    H235968   1.696   4.814  17.368 -1.3738  0.4080  0.9282
 3925TIP3   OH235969   2.914   5.441  15.163  0.7628  0.0557 -0.1608
 3925TIP3    H135970   2.863   5.506  15.211  0.7908  0.4252 -0.6276
 3925TIP3    H235971   2.946   5.381  15.231 -0.0977 -0.0557  0.1656
 3926TIP3   OH235972   3.049   2.701  16.550  0.2105  0.9015 -0.4934
 3926TIP3    H135973   2.968   2.734  16.588  0.2149  0.4102 -0.0396
 3926TIP3    H235974   3.029   2.611  16.525  1.4850 -0.3824  2.6233
 3927TIP3   OH235975   5.263   4.605  16.048 -0.4205 -0.4667 -0.1933
 3927TIP3    H135976   5.239   4.687  16.005 -1.8313 -0.6716  0.1560
 3927TIP3    H235977   5.257   4.539  15.979  0.1086 -0.3763 -0.3291
 3928TIP3   OH235978   2.291   2.776  17.139 -0.5276 -0.1544 -0.2154
 3928TIP3    H135979   2.207   2.733  17.120 -0.2114 -0.3777 -1.1514
 3928TIP3    H235980   2.349   2.747  17.070  0.2017  0.3806  0.1555
 3929TIP3   OH235981   0.556   4.590  17.693 -0.0175 -0.3071 -0.0045
 3929TIP3    H135982   0.601   4.643  17.758  1.0010 -0.5474 -0.4901
 3929TIP3    H235983   0.604   4.508  17.692 -0.5669 -0.6286 -0.4352
 3930TIP3   OH235984   5.712   4.589  16.179  0.3679 -0.0872 -0.2613
 3930TIP3    H135985   5.689   4.590  16.272  0.4770 -0.2699 -0.2314
 3930TIP3    H235986   5.766   4.667  16.166 -1.4614  1.1780 -0.6460
 3931TIP3   OH235987   0.392   0.219  15.884  0.1794 -0.0520 -0.0979
 3931TIP3    H135988   0.367   0.285  15.819  0.6282  1.2089  0.9418
 3931TIP3    H235989   0.459   0.263  15.937  0.0524 -1.1427  1.0037
 3932TIP3   OH235990   5.153   1.282  16.911  0.5979 -0.6372  1.2566
 3932TIP3    H135991   5.248   1.285  16.900  0.4635  0.5592  0.1507
 3932TIP3    H235992   5.129   1.194  16.883  1.0409  0.1644 -2.1443
 3933TIP3   OH235993   5.621   4.108  16.467 -0.2093 -0.4054 -0.0500
 3933TIP3    H135994   5.646   4.019  16.441 -0.6672 -0.5359 -0.0603
 3933TIP3    H235995   5.586   4.098  16.556 -2.0828 -0.5753 -0.7444
 3934TIP3   OH235996   6.534   2.116  15.289  0.1863 -0.5399  0.1073
 3934TIP3    H135997   6.543   2.073  15.374  1.5811 -0.4917  0.0117
 3934TIP3    H235998   6.518   2.045  15.228  1.5495 -0.8647  0.0864
 3935TIP3   OH235999   2.594   3.115  15.128 -0.2093 -0.7669 -0.4205
 3935TIP3    H136000   2.600   3.020  15.118  0.8144 -0.6146 -1.5134
 3935TIP3    H236001   2.672   3.148  15.085  1.1679  0.4268  2.6914
 3936TIP3   OH236002   1.678   0.063  14.630  0.2847  0.5254 -0.1831
 3936TIP3    H136003   1.684  -0.027  14.662 -0.9023  0.2363 -0.7020
 3936TIP3    H236004   1.726   0.063  14.547  0.6694  0.4818  0.0405
 3937TIP3   OH236005   4.478   2.587  17.513  0.2644  0.3927  0.2447
 3937TIP3    H136006   4.447   2.522  17.450  0.8967 -1.9108  2.1909
 3937TIP3    H236007   4.521   2.536  17.582  1.3989  2.9313  1.5560
 3938TIP3   OH236008   2.973   5.510  16.529  0.1915 -0.2094  0.3063
 3938TIP3    H136009   2.946   5.592  16.488 -0.3787  0.5385  2.0459
 3938TIP3    H236010   2.907   5.494  16.596 -0.9235 -3.2661 -1.3277
 3939TIP3   OH236011   1.687   1.171  17.395 -0.3081  0.2799 -0.0473
 3939TIP3    H136012   1.765   1.217  17.426  0.5735 -0.6033 -0.8760
 3939TIP3    H236013   1.640   1.147  17.475  0.2088  0.9155  0.4605
 3940TIP3   OH236014   4.080   3.321  15.713  0.0770 -0.3180  0.2963
 3940TIP3    H136015   4.061   3.315  15.806  1.6180 -1.2107  0.5830
 3940TIP3    H236016   4.175   3.306  15.706 -0.1501 -1.2798 -1.4986
 3941TIP3   OH236017   6.215   6.636  16.543  0.7492 -0.4232  0.4236
 3941TIP3    H136018   6.293   6.627  16.489  0.1371 -1.7527 -0.2855
 3941TIP3    H236019   6.159   6.697  16.495  0.5393 -0.9965 -0.0802
 3942TIP3   OH236020   4.167   2.228  16.959 -0.0489  0.7595 -0.7342
 3942TIP3    H136021   4.209   2.246  17.043  5.0022  0.0100 -2.7160
 3942TIP3    H236022   4.179   2.308  16.908 -1.2927  0.5480 -1.4124
 3943TIP3   OH236023   1.816   6.168  16.820  0.4397 -0.1476  0.1890
 3943TIP3    H136024   1.895   6.217  16.798  0.8466 -0.3627  1.1212
 3943TIP3    H236025   1.837   6.124  16.902 -1.4404  1.7122  1.7694
 3944TIP3   OH236026   1.991   6.484  16.522  0.6141  0.1421 -0.1652
 3944TIP3    H136027   2.044   6.562  16.507  2.0244 -0.4000  1.6704
 3944TIP3    H236028   2.033   6.439  16.596 -1.6225 -1.0303  0.5105
 3945TIP3   OH236029   0.234   0.047  16.850  0.3027  0.1534 -0.6691
 3945TIP3    H136030   0.266  -0.035  16.886 -0.0864  0.0837 -0.4674
 3945TIP3    H236031   0.312   0.097  16.829  0.5476 -0.5075 -1.3539
 3946TIP3   OH236032   5.043   2.930  15.697  0.4118 -0.4169 -0.1011
 3946TIP3    H136033   5.048   2.841  15.733 -0.4918 -0.2177  0.5420
 3946TIP3    H236034   5.134   2.958  15.691  0.6669 -1.1035  0.4058
 3947TIP3   OH236035   6.554   4.359  17.920 -0.7267  0.4949 -0.0264
 3947TIP3    H136036   6.631   4.345  17.975 -0.1214 -0.1341 -1.0028
 3947TIP3    H236037   6.487   4.302  17.958 -0.9669  1.5802  1.2685
 3948TIP3   OH236038   2.128   6.375  17.508  0.5439 -0.1115  0.1037
 3948TIP3    H136039   2.195   6.370  17.440  0.4091  0.3902 -0.0669
 3948TIP3    H236040   2.046   6.387  17.461  0.1549 -1.9271  0.2428
 3949TIP3   OH236041   4.528   0.528  15.758  0.0437 -0.1899 -0.5906
 3949TIP3    H136042   4.436   0.505  15.770  0.5229 -0.9625  2.5416
 3949TIP3    H236043   4.572   0.444  15.745  0.6243 -0.2110  1.1780
 3950TIP3   OH236044   1.220   0.720  14.714 -0.1384  0.7744 -0.7918
 3950TIP3    H136045   1.163   0.762  14.778  0.8931 -1.1834  1.5515
 3950TIP3    H236046   1.272   0.792  14.677 -0.0853  1.8865  1.3086
 3951TIP3   OH236047   6.761   0.615  14.168 -0.2698  0.3648 -0.1909
 3951TIP3    H136048   6.729   0.705  14.160  1.7484  1.3059  1.3842
 3951TIP3    H236049   6.782   0.589  14.078  0.4109  1.9995 -0.5412
 3952TIP3   OH236050   0.853   6.743  17.112  0.1054 -0.0186  0.5271
 3952TIP3    H136051   0.875   6.709  17.025 -0.6116  1.3795 -0.2345
 3952TIP3    H236052   0.928   6.721  17.166  1.4039  0.7266 -0.9107
 3953TIP3   OH236053   3.744   0.819  16.862  0.0698 -0.0916  0.0574
 3953TIP3    H136054   3.667   0.763  16.870 -0.4234  0.5670 -0.0457
 3953TIP3    H236055   3.792   0.784  16.786 -0.3421 -0.2428 -0.1335
 3954TIP3   OH236056   3.260   1.975  15.565 -0.5687 -0.1229 -0.1728
 3954TIP3    H136057   3.167   1.991  15.579 -0.5007  3.6407 -2.5090
 3954TIP3    H236058   3.263   1.893  15.515 -2.6959  0.0097 -0.6186
 3955TIP3   OH236059   2.118   3.959  17.434  0.1848 -0.6832 -0.1226
 3955TIP3    H136060   2.063   3.920  17.502 -1.3132  1.1278 -0.2208
 3955TIP3    H236061   2.181   4.012  17.483 -0.8015  0.5054 -0.1196
 3956TIP3   OH236062   0.677   2.514  15.920 -0.1659  0.4435  0.0617
 3956TIP3    H136063   0.738   2.484  15.852  0.5561  0.8964  0.4932
 3956TIP3    H236064   0.727   2.508  16.002 -1.2602 -0.7640  0.6611
 3957TIP3   OH236065   0.115   0.805  15.615 -0.2428  0.5882  0.3930
 3957TIP3    H136066   0.166   0.879  15.580  0.4177 -0.4189 -0.8635
 3957TIP3    H236067   0.172   0.767  15.681 -0.2775  0.7622  0.5246
 3958TIP3   OH236068   6.454   1.767  15.916  0.4198  0.2981 -0.0419
 3958TIP3    H136069   6.382   1.828  15.935 -0.8747 -1.3443  0.5421
 3958TIP3    H236070   6.493   1.749  16.001 -0.2274 -0.8766  0.0220
 3959TIP3   OH236071   1.643   4.986  15.505 -0.4712 -0.4542 -0.3809
 3959TIP3    H136072   1.604   5.042  15.439 -1.0243  1.4220  1.4356
 3959TIP3    H236073   1.569   4.944  15.548 -0.4212  1.1526  1.3926
 3960TIP3   OH236074   5.210   0.126  16.855 -0.2710 -0.0981  0.3266
 3960TIP3    H136075   5.187   0.212  16.889  3.3278  0.7737  0.9240
 3960TIP3    H236076   5.235   0.075  16.932 -2.3347 -1.7649 -0.0144
 3961TIP3   OH236077   4.799   0.751  14.087 -0.5350 -0.3026 -0.0674
 3961TIP3    H136078   4.801   0.686  14.017  0.3662 -0.8390  0.4225
 3961TIP3    H236079   4.770   0.832  14.045 -0.0285 -0.6146 -1.0506
 3962TIP3   OH236080   6.249   2.857  16.711 -0.5275 -0.2154  0.4736
 3962TIP3    H136081   6.284   2.768  16.722 -0.4706 -0.2479  0.0741
 3962TIP3    H236082   6.172   2.860  16.768 -0.7620 -0.6579  0.1920
 3963TIP3   OH236083   5.362   4.829  15.635  0.0051 -0.6972  0.3634
 3963TIP3    H136084   5.375   4.924  15.634 -1.3845 -0.4746 -1.2073
 3963TIP3    H236085   5.388   4.800  15.548 -1.9963 -1.3345 -0.0919
 3964TIP3   OH236086   4.849   6.039  16.731  0.1978 -0.0238  0.0314
 3964TIP3    H136087   4.808   5.953  16.720  0.7665 -0.2003 -0.8281
 3964TIP3    H236088   4.859   6.049  16.826 -1.1973 -0.2666  0.2145
 3965TIP3   OH236089   4.817   3.818  17.876  0.2407  0.3388 -0.8005
 3965TIP3    H136090   4.865   3.764  17.813 -0.5459  2.7412 -3.6858
 3965TIP3    H236091   4.852   3.906  17.863 -1.7177  1.3439  0.3289
 3966TIP3   OH236092   3.814   0.909  15.109 -0.2208 -0.1558  0.0537
 3966TIP3    H136093   3.876   0.892  15.180  0.5666 -1.5267 -0.9096
 3966TIP3    H236094   3.839   0.994  15.075  0.7711 -0.4421  0.0445
 3967TIP3   OH236095   3.097   1.717  17.482  0.1162  0.0191 -0.2291
 3967TIP3    H136096   3.069   1.764  17.404 -0.1864 -1.0069 -0.7576
 3967TIP3    H236097   3.116   1.629  17.451  1.9947  0.1286  0.4793
 3968TIP3   OH236098   1.142   5.665  15.474 -0.4290  0.5868 -0.2037
 3968TIP3    H136099   1.217   5.643  15.529 -0.5541 -1.0059 -0.6240
 3968TIP3    H236100   1.074   5.603  15.500 -1.6000  1.9240  0.0920
 3969TIP3   OH236101   5.124   5.418  15.326 -0.2437 -0.1370  0.5059
 3969TIP3    H136102   5.048   5.473  15.307 -1.4206 -1.5255  0.9663
 3969TIP3    H236103   5.194   5.453  15.270 -1.8291 -0.1914 -1.6487
 3970TIP3   OH236104   6.358   2.883  17.251 -0.0398  0.4083  0.4665
 3970TIP3    H136105   6.433   2.824  17.257 -0.5640 -0.2061  1.2201
 3970TIP3    H236106   6.384   2.960  17.303  0.7627  1.0091 -0.7628
 3971TIP3   OH236107   5.869   0.562  16.722 -0.3474  0.1888  0.3696
 3971TIP3    H136108   5.862   0.469  16.745  0.3980 -0.1155 -0.5556
 3971TIP3    H236109   5.779   0.593  16.721 -0.6388 -0.6329  0.2824
 3972TIP3   OH236110   5.957   3.797  16.956  0.9377 -0.2826 -0.3431
 3972TIP3    H136111   5.997   3.774  17.039  0.0736 -1.1597 -0.1444
 3972TIP3    H236112   5.958   3.716  16.905  0.7121  0.0329 -0.8670
 3973TIP3   OH236113   3.003   4.584  15.527  0.3091  0.3367 -0.0591
 3973TIP3    H136114   3.018   4.670  15.567  1.8277 -0.0489  0.2635
 3973TIP3    H236115   3.083   4.535  15.545 -0.2345 -0.9049 -0.8887
 3974TIP3   OH236116   5.819   2.206  17.693 -0.8630 -0.3977  0.1754
 3974TIP3    H136117   5.763   2.280  17.717  0.0795  0.1952  0.5911
 3974TIP3    H236118   5.821   2.208  17.597 -0.7475  0.1950  0.1830
 3975TIP3   OH236119   3.111   6.526  16.816  0.3777  0.4446 -0.4073
 3975TIP3    H136120   3.021   6.546  16.788  0.0251  0.6656  0.8253
 3975TIP3    H236121   3.166   6.574  16.755 -0.3317  0.1354 -1.3158
 3976TIP3   OH236122   2.803   6.541  15.347  0.7399  0.5623 -0.2251
 3976TIP3    H136123   2.869   6.520  15.281  0.4269  1.3429 -0.7927
 3976TIP3    H236124   2.725   6.564  15.298  0.0417 -0.2810  0.4491
 3977TIP3   OH236125   1.335   6.320  16.704 -0.0419 -0.4249 -0.0550
 3977TIP3    H136126   1.425   6.332  16.736  0.5553  0.3011 -1.8691
 3977TIP3    H236127   1.317   6.227  16.717  1.0608 -0.6258  0.1320
 3978TIP3   OH236128   1.966   4.300  17.579 -0.0842 -0.0498 -0.1077
 3978TIP3    H136129   2.050   4.259  17.599  0.4466  1.1589  0.2695
 3978TIP3    H236130   1.989   4.391  17.558 -1.3954  0.6643  1.3117
 3979TIP3   OH236131   5.727   1.089  15.720 -0.2347 -0.3516  0.5750
 3979TIP3    H136132   5.798   1.038  15.681 -0.3497  0.1253 -0.2901
 3979TIP3    H236133   5.740   1.177  15.685 -0.9025 -0.1252  0.8925
 3980TIP3   OH236134   0.323   6.413  15.894  0.6379 -0.3463  0.2962
 3980TIP3    H136135   0.406   6.461  15.892  0.0205  0.7457  0.0102
 3980TIP3    H236136   0.274   6.446  15.819 -0.0387 -1.0242  0.4243
 3981TIP3   OH236137   3.153   3.596  17.917 -0.1878 -0.1828 -0.2268
 3981TIP3    H136138   3.073   3.636  17.884  0.8146  0.5564 -1.9110
 3981TIP3    H236139   3.139   3.502  17.907 -0.3141 -0.0134 -1.9173
 3982TIP3   OH236140   1.772   3.529  15.253 -0.5406 -1.0003  0.7125
 3982TIP3    H136141   1.715   3.567  15.186  0.9962  0.7914  0.3363
 3982TIP3    H236142   1.820   3.459  15.207  1.3734  0.9844 -0.5039
 3983TIP3   OH236143   4.302   1.805  17.245  0.4978  0.3089  0.1468
 3983TIP3    H136144   4.236   1.861  17.286  0.6026 -0.6355  1.7309
 3983TIP3    H236145   4.260   1.772  17.166  0.5264  2.7444 -0.9721
 3984TIP3   OH236146   0.808   4.732  16.038  0.2625  0.6842  0.1052
 3984TIP3    H136147   0.817   4.670  15.965 -1.1427  1.3121 -0.6341
 3984TIP3    H236148   0.758   4.805  16.001  2.1746  2.4733  0.8281
 3985TIP3   OH236149   5.004   0.766  17.016  0.1752 -0.2648 -0.2479
 3985TIP3    H136150   5.023   0.673  16.999  1.0848  0.0276 -0.8989
 3985TIP3    H236151   4.930   0.764  17.078  0.1275 -1.4169 -0.3118
 3986TIP3   OH236152   6.612   1.115  14.939  0.0533  0.1011 -0.0918
 3986TIP3    H136153   6.561   1.143  14.863 -1.1127  1.2023  1.0537
 3986TIP3    H236154   6.567   1.036  14.970  0.5023 -0.3217 -0.4898
 3987TIP3   OH236155   0.967   5.504  17.053 -0.1899 -0.0428 -0.6365
 3987TIP3    H136156   1.011   5.442  16.994 -0.6643 -1.2381  0.2425
 3987TIP3    H236157   1.006   5.487  17.139  0.6576  1.8465 -0.5977
 3988TIP3   OH236158   5.258   0.403  17.649  0.0084 -0.1352 -0.1287
 3988TIP3    H136159   5.213   0.320  17.631 -0.7434  0.0344  0.8696
 3988TIP3    H236160   5.242   0.419  17.742 -0.3934  1.4478 -0.4414
 3989TIP3   OH236161   3.212   2.896  15.239 -0.4858 -0.7206  0.2867
 3989TIP3    H136162   3.232   2.968  15.179  0.7660 -1.4448 -0.2108
 3989TIP3    H236163   3.222   2.934  15.326 -0.7453 -0.0579  0.0296
 3990TIP3   OH236164   0.959   1.400  16.415  0.6613  0.2939 -0.4002
 3990TIP3    H136165   0.891   1.466  16.407 -1.1219 -1.2479  1.2418
 3990TIP3    H236166   0.913   1.320  16.440  3.0512 -0.8651  0.6444
 3991TIP3   OH236167   5.210   4.057  15.348  0.4563 -0.5740  0.3162
 3991TIP3    H136168   5.200   4.150  15.370 -0.8798 -0.3771 -0.9264
 3991TIP3    H236169   5.158   4.046  15.268 -1.7021 -2.9558  1.8649
 3992TIP3   OH236170   2.310   1.178  16.806 -0.1344  0.7879  0.4750
 3992TIP3    H136171   2.221   1.155  16.833 -0.8267  0.9654 -1.5040
 3992TIP3    H236172   2.347   1.222  16.882 -2.2050  1.8960  0.9174
 3993TIP3   OH236173   5.776   3.630  17.344  0.1856 -0.1041  0.1057
 3993TIP3    H136174   5.806   3.595  17.428 -0.0747  1.2976  0.8246
 3993TIP3    H236175   5.820   3.577  17.278  0.6362 -1.0386  1.1286
 3994TIP3   OH236176   1.564   4.055  17.043  0.5113 -0.0665 -0.1953
 3994TIP3    H136177   1.630   4.021  17.105  1.2409 -1.1211 -1.4997
 3994TIP3    H236178   1.540   4.140  17.079  2.2852  0.1725  0.5549
 3995TIP3   OH236179   0.948   2.418  15.755  0.2235  0.5254  0.0611
 3995TIP3    H136180   0.882   2.429  15.687  0.4124  0.0243 -0.2075
 3995TIP3    H236181   1.027   2.392  15.708  0.3110  0.0087  0.4882
 3996TIP3   OH236182   1.264   5.541  16.663  0.0967 -0.2097 -0.2687
 3996TIP3    H136183   1.359   5.542  16.670  0.0935 -0.2027 -0.2231
 3996TIP3    H236184   1.246   5.540  16.569  0.1358  0.5879 -0.2909
 3997TIP3   OH236185   4.123   0.446  16.228 -0.1563 -0.0079 -0.2294
 3997TIP3    H136186   4.120   0.370  16.287 -0.0808 -0.3143 -0.6128
 3997TIP3    H236187   4.205   0.490  16.250 -0.1196 -0.1326 -0.1158
 3998TIP3   OH236188   1.707   1.743  17.465 -0.2013  0.0395 -0.6155
 3998TIP3    H136189   1.753   1.779  17.541  0.8369 -3.0925  0.4201
 3998TIP3    H236190   1.768   1.754  17.393 -0.2503  1.0411 -0.5114
 3999TIP3   OH236191   2.242   6.605  15.084 -0.0199 -0.3281 -0.2835
 3999TIP3    H136192   2.176   6.562  15.138  0.5422  0.5046  1.1090
 3999TIP3    H236193   2.196   6.627  15.003 -2.2689  2.4696  1.5700
 4000TIP3   OH236194   3.918   6.575  17.316 -0.0955 -0.3134 -0.6247
 4000TIP3    H136195   3.919   6.480  17.315  0.1799 -0.3275  0.2108
 4000TIP3    H236196   3.884   6.600  17.230  0.9537 -1.1436 -1.3006
 4001TIP3   OH236197   6.160   1.465  16.720 -0.3159  0.0622  0.0642
 4001TIP3    H136198   6.113   1.548  16.718  0.8671  0.7924 -2.7545
 4001TIP3    H236199   6.252   1.489  16.710  0.0234 -1.5396 -1.1262
 4002TIP3   OH236200   1.396   0.510  15.363  0.2049  0.2603 -0.1716
 4002TIP3    H136201   1.451   0.588  15.375  0.8032  0.2896 -2.4854
 4002TIP3    H236202   1.307   0.541  15.376  0.5727  0.7399  1.3961
 4003TIP3   OH236203   3.242   5.577  15.073 -0.2840  0.4375  0.2498
 4003TIP3    H136204   3.161   5.620  15.100 -0.7770 -0.3894  0.1242
 4003TIP3    H236205   3.265   5.621  14.991 -0.8044  0.4371  0.0953
 4004TIP3   OH236206   2.488   0.673  15.359 -0.7771  0.1879  0.6098
 4004TIP3    H136207   2.500   0.681  15.453 -1.6889  0.3101  0.7176
 4004TIP3    H236208   2.559   0.615  15.331 -0.6014  0.0185  1.3903
 4005TIP3   OH236209   2.256   4.115  16.605  0.1155  0.0880 -0.2026
 4005TIP3    H136210   2.174   4.158  16.629  0.4248  0.7561 -0.3302
 4005TIP3    H236211   2.229   4.034  16.561 -0.4777  0.5434 -0.6911
 4006TIP3   OH236212   2.552   2.079  17.434 -0.6998 -0.1690  0.0097
 4006TIP3    H136213   2.620   2.014  17.454 -0.4001 -0.7243 -2.4674
 4006TIP3    H236214   2.470   2.032  17.445 -0.5365 -0.5439 -0.3375
 4007TIP3   OH236215   4.526   4.846  16.142  0.4789 -0.3664 -0.4068
 4007TIP3    H136216   4.603   4.826  16.194  0.8142  0.0845 -0.7240
 4007TIP3    H236217   4.546   4.812  16.055  0.2266 -0.4444 -0.4358
 4008TIP3   OH236218   3.923   2.136  16.748 -0.0552 -0.1232 -0.2832
 4008TIP3    H136219   3.861   2.077  16.703 -1.3629  0.8074  0.2394
 4008TIP3    H236220   3.875   2.167  16.825  0.9132  0.9688 -0.0958
 4009TIP3   OH236221   4.244   1.319  16.467 -0.2320  0.1623 -0.0318
 4009TIP3    H136222   4.324   1.273  16.493 -0.8118 -0.4751  0.6521
 4009TIP3    H236223   4.272   1.374  16.394  1.1159  0.9164  1.0080
 4010TIP3   OH236224   3.954   1.410  16.846  0.1557 -0.3118 -0.1321
 4010TIP3    H136225   3.868   1.401  16.806  0.5787 -1.4611 -0.8368
 4010TIP3    H236226   3.950   1.353  16.923 -0.7625  2.1278  1.7680
 4011TIP3   OH236227   1.482   4.212  16.482 -0.4636 -0.0753  0.2963
 4011TIP3    H136228   1.568   4.174  16.465 -1.2819 -1.8833 -0.0302
 4011TIP3    H236229   1.474   4.212  16.577 -0.2046 -0.1259  0.3185
 4012TIP3   OH236230   0.303   0.608  17.735  0.1167 -0.1400  0.1379
 4012TIP3    H136231   0.366   0.583  17.803 -0.4488 -1.8945  0.0615
 4012TIP3    H236232   0.279   0.698  17.757  1.5713  0.0780  0.9847
 4013TIP3   OH236233   2.036   0.046  16.475 -0.0093 -0.1615 -0.6388
 4013TIP3    H136234   2.104  -0.012  16.508  0.6675  1.5720  1.2949
 4013TIP3    H236235   2.074   0.087  16.398  1.1686  0.6730  0.3314
 4014TIP3   OH236236   0.840   1.167  15.045  0.0627  0.4229 -0.0801
 4014TIP3    H136237   0.839   1.258  15.014  2.2581  0.6108  0.2740
 4014TIP3    H236238   0.858   1.115  14.967 -2.0938  0.1254 -0.4670
 4015TIP3   OH236239   2.575   2.213  15.050  0.0091 -0.3346 -0.0761
 4015TIP3    H136240   2.666   2.218  15.022  0.0091  0.9245  0.0822
 4015TIP3    H236241   2.558   2.119  15.059  1.8471 -0.5736  1.6714
 4016TIP3   OH236242   4.557   2.308  16.662 -0.1110  0.4817  0.1711
 4016TIP3    H136243   4.477   2.292  16.611  1.1623 -0.0047 -1.7651
 4016TIP3    H236244   4.574   2.224  16.706  0.1003  0.1355 -0.5556
 4017TIP3   OH236245   5.570   2.132  18.016 -0.7282 -0.2428  0.2135
 4017TIP3    H136246   5.666   2.131  18.008 -0.7148 -2.7557 -0.0379
 4017TIP3    H236247   5.553   2.189  18.091  1.1580 -1.6204  1.7928
 4018TIP3   OH236248   4.311   5.471  15.794 -0.2927  0.2456 -0.2178
 4018TIP3    H136249   4.399   5.492  15.823  0.1723 -1.4969 -0.2689
 4018TIP3    H236250   4.275   5.415  15.863 -2.0321  2.2795  0.6465
 4019TIP3   OH236251   1.860   1.312  16.415  0.0401  0.6978 -0.0168
 4019TIP3    H136252   1.818   1.227  16.409 -2.2385  1.7984 -0.8820
 4019TIP3    H236253   1.866   1.343  16.325  0.6821  1.5216  0.2876
 4020TIP3   OH236254   2.550   1.938  16.698  0.1700  0.4702 -0.4299
 4020TIP3    H136255   2.545   1.917  16.791 -0.2882  1.8969 -0.1120
 4020TIP3    H236256   2.630   1.895  16.668 -0.2573 -0.9116  0.3638
 4021TIP3   OH236257   5.056   1.426  17.142 -0.0718 -0.1714 -0.1751
 4021TIP3    H136258   5.114   1.482  17.193  0.3965 -1.3305  0.6255
 4021TIP3    H236259   5.115   1.369  17.093 -0.4909 -1.6524  0.9702
 4022TIP3   OH236260   0.093   1.558  17.721 -0.0099  0.0046  1.1315
 4022TIP3    H136261   0.078   1.469  17.688  0.0949 -0.0523  1.2338
 4022TIP3    H236262   0.186   1.559  17.744  0.4025  0.6482 -0.4189
 4023TIP3   OH236263   4.663   1.823  17.562 -0.3472 -0.4879  0.6719
 4023TIP3    H136264   4.667   1.873  17.644  0.5291 -0.2733  0.5151
 4023TIP3    H236265   4.754   1.818  17.533 -0.5130 -1.5059  0.2708
 4024TIP3   OH236266   1.227   0.765  16.203  0.6998 -0.1121  0.1404
 4024TIP3    H136267   1.271   0.780  16.286  1.1920  0.6611 -0.2452
 4024TIP3    H236268   1.283   0.807  16.138 -0.7441  1.1870 -0.3327
 4025TIP3   OH236269   4.590   0.590  18.017  0.0764  0.5808  0.0277
 4025TIP3    H136270   4.658   0.637  18.065 -0.4568  0.3752  1.0075
 4025TIP3    H236271   4.615   0.498  18.022 -0.2389  0.5096  0.3426
 4026TIP3   OH236272   0.708   5.391  17.005 -0.1541 -0.1817  0.2537
 4026TIP3    H136273   0.722   5.298  16.985 -1.3764 -0.1738 -0.7661
 4026TIP3    H236274   0.796   5.427  17.013  0.4047 -1.0191 -1.4589
 4027TIP3   OH236275   0.889   0.336  15.094  0.3182 -0.1235  0.0377
 4027TIP3    H136276   0.808   0.373  15.128 -0.1091 -1.0525  0.0596
 4027TIP3    H236277   0.917   0.397  15.026 -1.7580 -1.0575 -1.7594
 4028TIP3   OH236278   6.587   6.434  17.706  0.0147 -0.2648 -0.6030
 4028TIP3    H136279   6.681   6.424  17.722 -0.1087 -1.3437 -0.4197
 4028TIP3    H236280   6.560   6.349  17.671 -1.0686 -0.3146  0.2918
 4029TIP3   OH236281   2.120   0.348  15.927 -0.0879  0.2510 -0.0415
 4029TIP3    H136282   2.044   0.393  15.888  0.0532  0.5952  0.0823
 4029TIP3    H236283   2.168   0.314  15.851  0.0246  0.6606 -0.1585
 4030TIP3   OH236284   4.231   3.027  15.568  0.0625  0.0179 -0.2866
 4030TIP3    H136285   4.297   3.021  15.637 -1.3284  1.3287  1.2558
 4030TIP3    H236286   4.203   2.937  15.553  0.8415 -0.3480  0.4093
 4031TIP3   OH236287   3.192   4.396  16.099 -0.2482 -0.0105  0.8116
 4031TIP3    H136288   3.119   4.406  16.160 -0.5149 -0.1710  0.5226
 4031TIP3    H236289   3.172   4.316  16.050  0.0971 -0.0298  0.6984
 4032TIP3   OH236290   6.073   2.385  15.014 -0.6531  0.0184 -0.1268
 4032TIP3    H136291   6.072   2.290  15.000  0.7768 -0.1736  0.8177
 4032TIP3    H236292   6.145   2.417  14.960  0.2729  0.2353  1.1880
 4033TIP3   OH236293   6.230   3.134  15.272  0.3681  0.3313 -1.0018
 4033TIP3    H136294   6.213   3.177  15.356  1.2558 -0.5890 -0.3188
 4033TIP3    H236295   6.178   3.183  15.208  1.1185  2.2354 -0.2304
 4034TIP3   OH236296   1.738   0.325  17.657 -0.8002 -0.0349  0.0164
 4034TIP3    H136297   1.753   0.276  17.738 -0.8936  0.6537  0.4567
 4034TIP3    H236298   1.759   0.415  17.679  0.5831 -0.0463 -1.1309
 4035TIP3   OH236299   2.341   6.253  14.850 -0.4277  0.4749 -0.0690
 4035TIP3    H136300   2.284   6.278  14.777 -1.5447 -0.4932  0.4337
 4035TIP3    H236301   2.395   6.183  14.815 -2.6033 -1.6836  0.6072
 4036TIP3   OH236302   2.992   1.363  17.273  0.2543 -0.5889  0.0348
 4036TIP3    H136303   3.049   1.437  17.254  0.9401 -1.0737  0.1808
 4036TIP3    H236304   3.049   1.287  17.269 -0.3598 -1.0728  0.3052
 4037TIP3   OH236305   0.502   2.281  15.909 -0.2482  0.3959  0.0911
 4037TIP3    H136306   0.529   2.370  15.886  1.2398 -0.0783 -0.1174
 4037TIP3    H236307   0.426   2.293  15.966  0.6293  1.8676  1.0329
 4038TIP3   OH236308   5.430   2.683  15.838  0.3272  0.3580  0.8295
 4038TIP3    H136309   5.373   2.616  15.800  1.0311 -1.0648  2.1142
 4038TIP3    H236310   5.370   2.742  15.884 -0.3082  0.5370 -0.2095
 4039TIP3   OH236311   5.914   5.562  15.498 -0.0597 -0.6024 -0.0138
 4039TIP3    H136312   5.896   5.499  15.428 -0.2833  0.8686 -1.3171
 4039TIP3    H236313   5.842   5.549  15.560 -0.7647 -0.7927 -0.8596
 4040TIP3   OH236314   5.635   0.332  14.718  0.5842 -0.1496  0.4218
 4040TIP3    H136315   5.652   0.425  14.699  1.5905 -0.4685 -0.2923
 4040TIP3    H236316   5.645   0.288  14.634 -1.7375 -0.6854  0.3751
 4041TIP3   OH236317   6.416   2.731  17.724 -0.3946  0.2373  0.3514
 4041TIP3    H136318   6.434   2.665  17.658  0.6059  1.1802 -0.3415
 4041TIP3    H236319   6.421   2.684  17.807 -0.8411 -0.7841 -0.1861
 4042TIP3   OH236320   1.295   0.511  16.088 -0.1859  0.5550 -0.5979
 4042TIP3    H136321   1.280   0.457  16.166  1.6988 -0.4438 -0.8653
 4042TIP3    H236322   1.340   0.588  16.121 -0.2021  0.5595 -0.5871
 4043TIP3   OH236323   5.897   2.980  16.489 -0.0196 -0.4981 -0.0589
 4043TIP3    H136324   5.841   3.014  16.419 -0.5807 -1.2918 -0.0018
 4043TIP3    H236325   5.948   2.911  16.447  2.1456  1.2834 -0.5314
 4044TIP3   OH236326   3.653   2.246  16.845  0.2228  0.0298  0.0494
 4044TIP3    H136327   3.562   2.272  16.838  1.0090  2.8340 -0.8475
 4044TIP3    H236328   3.652   2.151  16.830 -2.2064  0.4087 -3.4382
 4045TIP3   OH236329   6.268   3.516  17.259 -0.0732  0.4730 -0.0454
 4045TIP3    H136330   6.285   3.443  17.199  3.5619 -0.3518  1.6566
 4045TIP3    H236331   6.342   3.575  17.245 -2.4456  3.4954 -0.7023
 4046TIP3   OH236332   1.777   3.566  14.603  0.5983  0.2911  0.4659
 4046TIP3    H136333   1.750   3.580  14.512  1.0942 -0.4459  0.1993
 4046TIP3    H236334   1.751   3.647  14.648 -1.5251 -0.1230  0.1228
 4047TIP3   OH236335   1.913   3.548  17.265  0.0547  0.1804  0.5007
 4047TIP3    H136336   1.900   3.507  17.351 -0.4210  0.5279  0.5991
 4047TIP3    H236337   2.002   3.523  17.240  0.4405  0.5898  1.3844
 4048TIP3   OH236338   5.857   4.937  17.754 -0.7632  0.3597 -0.3322
 4048TIP3    H136339   5.947   4.964  17.770 -0.9912  1.0967 -0.2531
 4048TIP3    H236340   5.860   4.889  17.671  0.0186 -1.3120  0.6191
 4049TIP3   OH236341   5.343   4.345  15.223  0.1537  0.3331 -0.1344
 4049TIP3    H136342   5.387   4.422  15.187  0.5477  0.5713  0.8262
 4049TIP3    H236343   5.408   4.275  15.217  0.2364  0.3842  0.1400
 4050TIP3   OH236344   4.985   2.101  16.295  0.2562  0.0864  0.5176
 4050TIP3    H136345   5.076   2.127  16.310  0.2305  0.5882 -0.1262
 4050TIP3    H236346   4.945   2.178  16.255  0.7943 -1.6628 -3.9061
 4051TIP3   OH236347   0.582   3.389  17.851  0.3130 -0.3640  0.2258
 4051TIP3    H136348   0.498   3.342  17.849 -0.0025  0.2142 -0.2902
 4051TIP3    H236349   0.631   3.355  17.776 -0.2057  0.6313 -0.5945
 4052TIP3   OH236350   1.228   3.533  16.087 -0.0286 -0.2864 -0.2498
 4052TIP3    H136351   1.221   3.603  16.151 -1.6324 -0.7091  0.0807
 4052TIP3    H236352   1.314   3.494  16.103 -0.0211  0.2086  1.0305
 4053TIP3   OH236353   6.741   1.927  17.713 -0.7694  0.0007 -0.3753
 4053TIP3    H136354   6.724   1.858  17.649 -0.1555  0.1499 -0.6981
 4053TIP3    H236355   6.687   2.001  17.683  0.9055  0.7042 -1.7863
 4054TIP3   OH236356   0.641   1.347  17.007  0.2642 -0.3553  0.1003
 4054TIP3    H136357   0.598   1.320  17.088  0.2844  0.3178  0.3343
 4054TIP3    H236358   0.582   1.412  16.969  1.9640  2.1531  1.4375
 4055TIP3   OH236359   6.015   0.920  17.242  0.7969  0.1068  0.5165
 4055TIP3    H136360   5.939   0.866  17.263  1.6884 -1.1519  0.6303
 4055TIP3    H236361   6.012   0.993  17.304  0.6010 -0.8344  1.6302
 4056TIP3   OH236362   4.273   2.429  16.283  0.2019  0.0962 -0.5037
 4056TIP3    H136363   4.318   2.350  16.314  0.8387  0.6028 -0.1197
 4056TIP3    H236364   4.283   2.492  16.354 -0.8538  0.3287 -0.5424
 4057TIP3   OH236365   0.690   3.738  17.020 -0.5054  0.0746 -0.3084
 4057TIP3    H136366   0.644   3.709  17.098 -0.3357 -1.0413 -0.5921
 4057TIP3    H236367   0.677   3.832  17.017 -1.7637 -0.0649  0.2482
 4058TIP3   OH236368   2.366   5.685  15.394  0.3737 -0.0873 -0.5107
 4058TIP3    H136369   2.373   5.726  15.308  0.0787  1.3481  0.1241
 4058TIP3    H236370   2.457   5.665  15.417  0.4543 -0.5070 -1.1522
 4059TIP3   OH236371   2.886   4.710  16.315  0.2333 -0.1153 -0.0659
 4059TIP3    H136372   2.872   4.746  16.402 -0.4337 -1.4813  0.4096
 4059TIP3    H236373   2.982   4.711  16.304  0.5505 -2.4748  1.8310
 4060TIP3   OH236374   3.365   6.086  17.095  0.3007 -0.4125  0.1083
 4060TIP3    H136375   3.423   6.147  17.141  0.4307 -0.7998  0.4624
 4060TIP3    H236376   3.394   5.999  17.124  0.2973 -0.6587 -0.5979
 4061TIP3   OH236377   3.046   6.425  18.134 -0.1162  0.3751 -0.2562
 4061TIP3    H136378   3.120   6.475  18.167  0.0462  0.0724 -0.1557
 4061TIP3    H236379   2.998   6.486  18.078  0.3057  0.5236 -0.4581
 4062TIP3   OH236380   3.863   5.513  15.371 -0.6879 -0.0768 -0.0449
 4062TIP3    H136381   3.855   5.531  15.278 -0.9990  1.1093  0.1916
 4062TIP3    H236382   3.775   5.530  15.406  0.4797  4.8952  1.2733
 4063TIP3   OH236383   3.248   6.609  16.100  0.2306 -0.4169  0.1289
 4063TIP3    H136384   3.306   6.654  16.039 -1.1582  0.6727 -0.4196
 4063TIP3    H236385   3.187   6.560  16.045 -1.3480  0.9632  0.5604
 4064TIP3   OH236386   6.173   0.062  15.310 -0.2304  0.2698  0.9087
 4064TIP3    H136387   6.154   0.009  15.387  0.6307 -0.2157  0.7979
 4064TIP3    H236388   6.099   0.045  15.251 -0.5679  0.1425  1.3637
 4065TIP3   OH236389   5.254   6.248  16.774  0.1783  0.2430  0.2909
 4065TIP3    H136390   5.200   6.170  16.788  0.4784  0.3807  2.4272
 4065TIP3    H236391   5.200   6.304  16.718 -0.6252 -0.8777 -0.0980
 4066TIP3   OH236392   4.494   1.478  17.485 -0.0820 -0.3529  0.0234
 4066TIP3    H136393   4.440   1.487  17.564 -0.6624 -0.5528 -0.3415
 4066TIP3    H236394   4.554   1.552  17.488 -1.1343  0.5369 -0.1360
 4067TIP3   OH236395   0.302   0.484  16.593 -0.3599  0.1076  0.7477
 4067TIP3    H136396   0.209   0.505  16.604 -0.4365 -0.2107  0.7207
 4067TIP3    H236397   0.341   0.564  16.559 -0.8001 -0.0595 -0.1815
 4068TIP3   OH236398   5.602   3.919  15.188  0.1303  0.3010  0.1560
 4068TIP3    H136399   5.647   3.952  15.110 -0.7381  1.3835  0.0680
 4068TIP3    H236400   5.650   3.841  15.213 -0.6851 -1.2433 -2.6043
 4069TIP3   OH236401   6.330   5.306  14.942 -0.2474  0.1403  0.3688
 4069TIP3    H136402   6.320   5.212  14.956 -0.4086  0.0803 -0.1342
 4069TIP3    H236403   6.251   5.344  14.980 -0.3246  0.0496  0.2985
 4070TIP3   OH236404   1.309   1.981  15.258  0.2094  0.2094 -0.1332
 4070TIP3    H136405   1.220   2.017  15.261 -0.2196 -0.8673  0.5583
 4070TIP3    H236406   1.334   1.972  15.350  1.5260  1.6171 -0.3052
 4071TIP3   OH236407   4.906   0.957  16.664 -0.0684 -0.6551 -0.0635
 4071TIP3    H136408   4.969   0.898  16.623 -0.3914 -1.2938  0.3550
 4071TIP3    H236409   4.957   1.005  16.729  0.2629 -0.2356 -0.6235
 4072TIP3   OH236410   2.505   6.350  14.304 -0.2673  0.0214 -0.1118
 4072TIP3    H136411   2.427   6.390  14.263  0.0097  0.1714 -0.5004
 4072TIP3    H236412   2.476   6.262  14.329 -0.5491  0.0577 -0.3024
 4073TIP3   OH236413   5.660   2.176  15.868  0.4483 -0.1615 -0.9543
 4073TIP3    H136414   5.598   2.237  15.909 -0.9883 -1.6099 -0.8805
 4073TIP3    H236415   5.691   2.223  15.790 -2.0181  0.0359 -1.9107
 4074TIP3   OH236416   5.226   0.720  14.519  0.4336 -0.8344  0.3524
 4074TIP3    H136417   5.206   0.686  14.605  2.0649 -0.2650  1.0096
 4074TIP3    H236418   5.239   0.814  14.533  0.3306 -0.6722 -0.5771
 4075TIP3   OH236419   5.441   1.470  15.682 -0.2645  0.1636 -0.1911
 4075TIP3    H136420   5.355   1.474  15.725 -0.2417  3.0479 -0.2555
 4075TIP3    H236421   5.501   1.509  15.744  0.2917  1.6520 -1.5808
 4076TIP3   OH236422   0.497   1.830  17.506  0.4331 -0.5200 -0.1341
 4076TIP3    H136423   0.402   1.824  17.521  0.7984 -2.0133  2.1276
 4076TIP3    H236424   0.507   1.809  17.413 -1.4165 -0.9427 -0.2913
 4077TIP3   OH236425   0.616   2.325  17.030 -0.4401 -1.0292  0.4386
 4077TIP3    H136426   0.683   2.359  17.089  0.6577  0.2586 -1.4084
 4077TIP3    H236427   0.665   2.291  16.955 -1.8174 -0.1282 -0.9439
 4078TIP3   OH236428   0.354   0.529  14.538 -0.3068  0.1769  0.2359
 4078TIP3    H136429   0.379   0.438  14.522 -1.0435  0.1326 -0.7549
 4078TIP3    H236430   0.421   0.580  14.494  0.0684  0.1143  0.7323
 4079TIP3   OH236431   2.910   6.677  17.557  0.2907  0.0969 -0.1048
 4079TIP3    H136432   2.997   6.637  17.557  0.2495 -0.1073 -2.5020
 4079TIP3    H236433   2.859   6.623  17.619  1.5191 -0.5317  0.3944
 4080TIP3   OH236434   5.760   6.671  15.133 -0.3682 -0.4065 -0.7860
 4080TIP3    H136435   5.842   6.632  15.104 -0.3414 -0.8915 -0.0875
 4080TIP3    H236436   5.782   6.762  15.153 -0.1987 -0.3043 -1.4253
 4081TIP3   OH236437   5.982   2.005  17.137  0.2564 -0.3927 -0.6279
 4081TIP3    H136438   6.065   2.052  17.132 -0.0012  0.2933  0.9536
 4081TIP3    H236439   5.997   1.938  17.204 -0.7211  0.3381  0.3551
 4082TIP3   OH236440   2.965   1.039  17.795  0.2710 -0.0927 -0.3332
 4082TIP3    H136441   3.041   1.093  17.818  1.5188 -1.7692 -0.2762
 4082TIP3    H236442   2.896   1.102  17.774  0.8190  1.5515  2.2288
 4083TIP3   OH236443   0.642   5.123  17.836  0.2199  0.3667 -0.6140
 4083TIP3    H136444   0.665   5.174  17.758 -0.7420 -0.7031 -1.6458
 4083TIP3    H236445   0.622   5.189  17.903  0.4268  1.3179 -1.4606
 4084TIP3   OH236446   5.701   5.568  15.964 -0.0759  0.5605 -0.6847
 4084TIP3    H136447   5.680   5.476  15.944 -1.3031  0.5793  0.3830
 4084TIP3    H236448   5.631   5.596  16.024 -0.3103  2.5036 -1.7789
 4085TIP3   OH236449   3.638   6.394  16.364 -0.1704  0.4079 -0.0675
 4085TIP3    H136450   3.660   6.331  16.432 -0.5891 -0.1414 -0.4313
 4085TIP3    H236451   3.692   6.471  16.384 -0.5677  0.4057  1.1023
 4086TIP3   OH236452   2.741   4.199  14.531  0.0153 -0.0288 -0.3791
 4086TIP3    H136453   2.678   4.270  14.539 -1.0748 -1.1264  1.6986
 4086TIP3    H236454   2.769   4.201  14.439 -0.4677  2.6135 -0.5217
 4087TIP3   OH236455   0.466   2.969  14.273 -0.3906  0.2144 -0.5459
 4087TIP3    H136456   0.378   2.933  14.273 -0.1682 -0.5472 -3.0081
 4087TIP3    H236457   0.470   3.020  14.192  0.7295  2.1795  0.6588
 4088TIP3   OH236458   4.231   0.197  15.367 -0.3623  0.0924  0.3072
 4088TIP3    H136459   4.285   0.122  15.393 -0.8146 -0.5738 -0.5835
 4088TIP3    H236460   4.218   0.185  15.273 -1.5099  0.5787  0.3801
 4089TIP3   OH236461   2.513   2.405  15.444  1.0175  0.2393 -0.0076
 4089TIP3    H136462   2.492   2.491  15.480 -1.0258  0.2393 -1.0240
 4089TIP3    H236463   2.578   2.423  15.376  2.0467  0.7077  1.0782
 4090TIP3   OH236464   3.817   2.483  15.371  0.1179  0.0618 -0.5482
 4090TIP3    H136465   3.890   2.478  15.310 -1.2039 -1.2156 -2.1377
 4090TIP3    H236466   3.744   2.515  15.319 -0.7171  0.3655  0.7550
 4091TIP3   OH236467   0.870   2.467  16.692 -0.7519  0.6273 -0.3538
 4091TIP3    H136468   0.903   2.383  16.725 -2.2874  0.4279  0.8191
 4091TIP3    H236469   0.948   2.512  16.660  0.1473 -1.1447 -0.8322
 4092TIP3   OH236470   1.082   1.205  17.278 -0.2728  0.0149 -0.0425
 4092TIP3    H136471   1.052   1.127  17.231 -0.4757 -1.0911  1.8311
 4092TIP3    H236472   1.028   1.277  17.243 -2.3557 -1.2359  0.4291
 4093TIP3   OH236473   1.275   5.549  15.693  0.2183  0.3179  0.0002
 4093TIP3    H136474   1.247   5.508  15.775  0.5752 -0.5795 -0.3122
 4093TIP3    H236475   1.358   5.506  15.672  0.3070  0.7887 -0.6507
 4094TIP3   OH236476   1.114   0.131  17.682 -0.5817 -0.2777 -0.6032
 4094TIP3    H136477   1.080   0.181  17.756  0.5376  0.4298 -0.5489
 4094TIP3    H236478   1.053   0.150  17.610 -1.8682 -1.2426  0.1960
 4095TIP3   OH236479   0.879   4.999  16.957  0.3407 -0.3203  0.4360
 4095TIP3    H136480   0.974   4.990  16.959  0.3057 -0.8292  2.8670
 4095TIP3    H236481   0.863   5.063  16.888  2.3095 -1.4017 -1.1241
 4096TIP3   OH236482   0.762   3.476  16.005  0.5925  0.7098  0.2473
 4096TIP3    H136483   0.743   3.524  16.086  1.4454 -0.1768  1.0071
 4096TIP3    H236484   0.830   3.413  16.031  0.5866  0.1422 -1.0729
 4097TIP3   OH236485   6.130   4.608  16.161 -0.0258 -0.5788  0.0095
 4097TIP3    H136486   6.175   4.678  16.209  0.9036 -1.4824  0.5028
 4097TIP3    H236487   6.142   4.531  16.216 -1.3799 -1.0502 -0.3336
 4098TIP3   OH236488   1.250   0.311  16.284  0.0872 -0.0158 -0.1740
 4098TIP3    H136489   1.253   0.218  16.303 -2.0609 -0.4711 -1.6712
 4098TIP3    H236490   1.167   0.341  16.322  0.1951  1.0061 -0.6977
 4099TIP3   OH236491   6.480   3.382  17.482  0.0246 -0.1258 -0.2273
 4099TIP3    H136492   6.464   3.399  17.389 -1.0423  1.6596  0.2257
 4099TIP3    H236493   6.561   3.431  17.501 -0.1396  0.0952 -0.0836
 4100TIP3   OH236494   5.117   0.079  15.871 -0.2400  0.6075  0.3212
 4100TIP3    H136495   5.195   0.128  15.896 -0.4716  0.8965  0.4814
 4100TIP3    H236496   5.081   0.127  15.797 -0.1858  0.3939  0.1564
 4101TIP3   OH236497   3.156   3.775  15.625  0.3884  0.0200  0.1032
 4101TIP3    H136498   3.100   3.840  15.583 -0.6345 -1.0011 -0.1415
 4101TIP3    H236499   3.224   3.827  15.668 -0.1921  1.2295 -0.3907
 4102TIP3   OH236500   0.679   0.550  14.363  0.4113 -0.5138  0.3465
 4102TIP3    H136501   0.640   0.634  14.386  0.3158 -0.5587  0.3480
 4102TIP3    H236502   0.657   0.493  14.436 -0.8347 -0.9605 -0.3619
 4103TIP3   OH236503   6.632   3.741  16.979  0.2494 -0.7794 -0.5445
 4103TIP3    H136504   6.624   3.833  17.004  0.3583 -1.2064  1.1343
 4103TIP3    H236505   6.723   3.732  16.951  0.5337 -0.6071  0.3091
 4104TIP3   OH236506   4.360   1.288  16.027 -0.2597 -0.2514  0.1096
 4104TIP3    H136507   4.453   1.265  16.026 -0.3372 -0.5476 -0.4337
 4104TIP3    H236508   4.328   1.253  16.110 -0.0192 -0.6930  0.0193
 4105TIP3   OH236509   1.769   4.609  15.378 -0.1143  0.4148 -0.5758
 4105TIP3    H136510   1.797   4.589  15.289 -0.1980  0.8704 -0.7070
 4105TIP3    H236511   1.806   4.539  15.432 -0.6160 -0.2354 -1.0579
 4106TIP3   OH236512   5.815   4.837  16.195 -0.1787 -0.0468 -0.6014
 4106TIP3    H136513   5.798   4.907  16.258  2.0483  0.6948 -0.7439
 4106TIP3    H236514   5.864   4.879  16.124 -1.8569 -1.0423 -2.4693
 4107TIP3   OH236515   6.689   1.776  15.149 -0.0586  0.2280  0.4464
 4107TIP3    H136516   6.680   1.689  15.190 -2.5543  1.8045  3.7296
 4107TIP3    H236517   6.765   1.815  15.193  0.0465  0.3156  0.1880
 4108TIP3   OH236518   3.785   6.066  17.901 -0.2793  0.1137 -0.3451
 4108TIP3    H136519   3.719   6.080  17.832  0.4149  0.5587 -0.9367
 4108TIP3    H236520   3.741   6.090  17.982 -0.7100  0.8265 -0.7816
 4109TIP3   OH236521   5.911   0.287  16.260  0.4207  0.3000 -0.2001
 4109TIP3    H136522   5.886   0.286  16.352  0.0214 -1.3544 -0.3053
 4109TIP3    H236523   5.828   0.284  16.212  0.6666 -1.3857 -0.5745
 4110TIP3   OH236524   1.482   3.289  17.797  0.4100 -0.0474  0.3635
 4110TIP3    H136525   1.505   3.225  17.729  0.1010  1.7556 -1.5578
 4110TIP3    H236526   1.519   3.253  17.878  1.9438 -1.6778 -0.9810
 4111TIP3   OH236527   4.468   4.292  16.477 -0.0988 -1.1516 -0.1820
 4111TIP3    H136528   4.548   4.295  16.529  0.6653 -0.6655 -1.3284
 4111TIP3    H236529   4.446   4.384  16.461 -1.2573 -1.2675  0.6353
 4112TIP3   OH236530   4.799   0.198  16.336 -0.0781  0.2563  0.3917
 4112TIP3    H136531   4.782   0.168  16.425 -1.0734 -2.2913 -0.5682
 4112TIP3    H236532   4.741   0.274  16.325 -0.3308  0.2792  1.7337
 4113TIP3   OH236533   0.157   6.756  16.582 -0.1713 -0.4442  0.1578
 4113TIP3    H136534   0.173   6.771  16.675 -3.2536  0.7168  0.6228
 4113TIP3    H236535   0.178   6.840  16.540 -0.9606 -0.2339  0.1702
 4114TIP3   OH236536   4.350   1.540  15.931 -0.0436  0.1712  0.0219
 4114TIP3    H136537   4.395   1.461  15.961  0.5258 -0.5411 -2.4640
 4114TIP3    H236538   4.415   1.586  15.878 -0.8431  1.5555  0.1967
 4115TIP3   OH236539   2.030   4.257  16.663  0.1490 -0.0459  0.0426
 4115TIP3    H136540   2.070   4.287  16.745  1.8638 -2.7738  0.3191
 4115TIP3    H236541   1.936   4.264  16.679  0.4340  1.5180  1.3827
 4116TIP3   OH236542   1.869   3.267  16.148 -0.4900  0.3644 -0.3501
 4116TIP3    H136543   1.962   3.285  16.161 -0.3396 -1.2286  1.2937
 4116TIP3    H236544   1.847   3.308  16.064  1.4077  1.7117 -0.2333
 4117TIP3   OH236545   1.316   0.905  17.773  0.4347 -0.4911 -0.3888
 4117TIP3    H136546   1.300   0.915  17.867  0.2988 -1.0996 -0.3401
 4117TIP3    H236547   1.247   0.845  17.744  1.7017 -1.9765 -0.4711
 4118TIP3   OH236548   6.458   1.264  16.431 -0.2473 -0.0784 -0.0255
 4118TIP3    H136549   6.372   1.226  16.413 -0.9124  1.3013  0.0864
 4118TIP3    H236550   6.475   1.244  16.522 -1.0015  0.6315  0.2850
 4119TIP3   OH236551   3.716   1.956  16.316 -0.5061  0.0055 -0.3017
 4119TIP3    H136552   3.707   1.896  16.390  1.7748  2.4013  2.1553
 4119TIP3    H236553   3.806   1.944  16.286 -0.8540  0.3529 -1.5597
 4120TIP3   OH236554   2.410   0.855  17.408  0.3014  0.0191  0.1978
 4120TIP3    H136555   2.443   0.862  17.498  1.9159 -0.1626 -0.3486
 4120TIP3    H236556   2.373   0.942  17.390  0.7009  0.3198  0.7711
 4121TIP3   OH236557   2.962   5.149  17.889 -0.6444 -0.3898  0.0213
 4121TIP3    H136558   2.975   5.242  17.871 -0.9543 -0.2545  0.4646
 4121TIP3    H236559   2.869   5.134  17.875 -0.8020 -0.3902  0.9480
 4122TIP3   OH236560   0.772   1.911  15.199 -0.2894  0.1766 -0.0077
 4122TIP3    H136561   0.735   1.841  15.146 -0.0718 -0.3805  0.5713
 4122TIP3    H236562   0.702   1.934  15.260  0.3206 -0.9479  1.1572
 4123TIP3   OH236563   4.385   1.007  14.859  0.5430 -0.1044  0.0233
 4123TIP3    H136564   4.449   1.062  14.904  1.6254 -0.9747 -0.4141
 4123TIP3    H236565   4.316   1.068  14.832  2.2104  1.2543 -1.4159
 4124TIP3   OH236566   4.324   4.928  15.918 -0.1121  0.0970 -0.0750
 4124TIP3    H136567   4.409   4.931  15.874 -0.7778 -0.3458 -1.4541
 4124TIP3    H236568   4.299   4.836  15.915 -1.7540  0.5318 -1.9953
 4125TIP3   OH236569   0.112   6.279  15.421  0.0694 -0.1063 -0.0382
 4125TIP3    H136570   0.159   6.309  15.499 -1.8965 -0.2714  1.2761
 4125TIP3    H236571   0.096   6.186  15.437 -1.3725  0.1204 -0.0565
 4126TIP3   OH236572   1.072   0.787  16.877  0.0343  0.3426 -0.9890
 4126TIP3    H136573   1.153   0.736  16.880 -0.8261 -1.0814  1.6459
 4126TIP3    H236574   1.003   0.722  16.880 -1.1237  1.4759  3.0817
 4127TIP3   OH236575   1.591   4.532  17.102  1.0018 -0.6246 -0.1632
 4127TIP3    H136576   1.640   4.579  17.169  0.6140 -0.8506  0.2936
 4127TIP3    H236577   1.588   4.442  17.135 -0.1167 -0.5176  0.0612
 4128TIP3   OH236578   1.319   5.186  16.615 -0.0580  0.0651 -0.3719
 4128TIP3    H136579   1.312   5.206  16.709 -0.4521 -0.4348 -0.2887
 4128TIP3    H236580   1.233   5.208  16.579 -0.2220 -0.6506 -0.4328
 4129TIP3   OH236581   5.764   5.000  16.406 -0.0971  0.3784 -0.4590
 4129TIP3    H136582   5.749   4.980  16.499 -0.5814 -0.4681 -0.7098
 4129TIP3    H236583   5.677   5.001  16.367  0.0381  1.5434 -0.7661
 4130TIP3   OH236584   1.310   1.445  16.209 -0.3018  0.4750  0.1309
 4130TIP3    H136585   1.228   1.481  16.242 -0.2064  0.3562  0.5090
 4130TIP3    H236586   1.372   1.518  16.215 -0.2829  0.4515  0.2180
 4131TIP3   OH236587   6.173   1.982  17.497  0.2541  0.0943  0.5504
 4131TIP3    H136588   6.217   1.974  17.412 -0.3508 -0.4113  0.2687
 4131TIP3    H236589   6.244   2.000  17.559  0.7278  0.2941 -0.0344
 4132TIP3   OH236590   4.538   0.219  16.562  0.1270  0.4122 -0.3231
 4132TIP3    H136591   4.512   0.189  16.649  1.5790  0.2383  0.0818
 4132TIP3    H236592   4.569   0.309  16.576 -2.2977  1.4436 -1.1809
 4133TIP3   OH236593   1.086   2.661  14.892  0.4010  0.3457  0.0300
 4133TIP3    H136594   1.106   2.640  14.801  0.2427  1.0900 -0.1794
 4133TIP3    H236595   1.158   2.622  14.942 -0.7325 -2.1756 -0.1753
 4134TIP3   OH236596   5.483   0.139  17.441  0.0249 -0.0196  0.0577
 4134TIP3    H136597   5.568   0.181  17.425 -0.2092  0.5631  0.3482
 4134TIP3    H236598   5.459   0.101  17.356  0.3975  0.1312 -0.1172
 4135TIP3   OH236599   0.705   3.384  16.954 -0.0643 -0.2613  0.5700
 4135TIP3    H136600   0.635   3.442  16.985  1.3300  3.1307 -1.9892
 4135TIP3    H236601   0.662   3.328  16.888 -0.6531  0.9968 -0.1550
 4136TIP3   OH236602   4.490   5.248  17.245 -0.1642 -0.0598 -0.3812
 4136TIP3    H136603   4.582   5.264  17.223 -0.2488 -1.7453 -2.2273
 4136TIP3    H236604   4.444   5.253  17.161 -1.3516 -1.6800  0.1337
 4137TIP3   OH236605   3.416   0.224  16.916  0.4559  0.0813  0.3245
 4137TIP3    H136606   3.340   0.184  16.874  0.3225 -1.6549  2.0794
 4137TIP3    H236607   3.462   0.269  16.845 -1.2543 -0.3233 -1.0947
 4138TIP3   OH236608   6.301   0.998  14.759  0.0132 -0.2769  0.4660
 4138TIP3    H136609   6.275   0.966  14.673 -0.7025 -1.5672  1.1304
 4138TIP3    H236610   6.380   1.050  14.743  0.9404 -1.9614 -0.7813
 4139TIP3   OH236611   3.238   4.269  14.816  0.3656  0.2401 -0.5669
 4139TIP3    H136612   3.266   4.360  14.804 -1.2914  0.7888 -0.5061
 4139TIP3    H236613   3.232   4.259  14.911  0.6284  0.0257 -0.5706
 4140TIP3   OH236614   6.500   2.464  15.436 -0.7370 -0.2938  0.4450
 4140TIP3    H136615   6.583   2.421  15.415 -0.1501 -0.4388  2.7382
 4140TIP3    H236616   6.445   2.393  15.470 -0.9450  0.1900  1.1330
 4141TIP3   OH236617   2.952   2.087  17.217  0.0619 -0.0287 -0.1488
 4141TIP3    H136618   2.893   2.162  17.224  0.0765  0.2042 -2.0331
 4141TIP3    H236619   3.026   2.110  17.273 -0.8344  0.4471  0.8833
 4142TIP3   OH236620   0.084   1.282  17.260  0.0001  0.5272 -0.3047
 4142TIP3    H136621   0.126   1.237  17.187  0.8312  0.1946  0.3602
 4142TIP3    H236622  -0.008   1.260  17.252  0.3240 -0.9403 -0.2607
 4143TIP3   OH236623   4.322   5.475  16.823  0.6110  0.4755  0.1910
 4143TIP3    H136624   4.295   5.567  16.820  2.2186  0.9784  0.5067
 4143TIP3    H236625   4.403   5.472  16.772 -0.1102 -1.0378 -0.9362
 4144TIP3   OH236626   5.829   1.570  16.294 -0.3074 -0.2694  0.0711
 4144TIP3    H136627   5.737   1.594  16.295 -0.6360 -1.3081 -1.6670
 4144TIP3    H236628   5.843   1.524  16.377 -1.6361 -1.0874 -0.1376
 4145TIP3   OH236629   3.262   3.018  15.476 -0.4199  0.1033 -0.0502
 4145TIP3    H136630   3.341   3.011  15.529 -1.2797  2.4001  1.7337
 4145TIP3    H236631   3.244   3.112  15.472 -2.3821 -0.2586 -1.4558
 4146TIP3   OH236632   2.203   3.611  16.555 -0.5355  0.0682 -0.5978
 4146TIP3    H136633   2.141   3.600  16.627 -1.0205  3.0854 -0.4390
 4146TIP3    H236634   2.279   3.560  16.581 -1.6671 -0.9808  0.8180
 4147TIP3   OH236635   3.479   2.583  16.742 -0.4639 -0.4985  0.2243
 4147TIP3    H136636   3.456   2.636  16.818 -1.5412  0.4683 -0.7262
 4147TIP3    H236637   3.449   2.495  16.764 -1.3393 -0.1027  0.6821
 4148TIP3   OH236638   6.490   2.013  17.018  0.0270 -0.4121  0.3103
 4148TIP3    H136639   6.521   1.940  16.964  1.7743  0.0064  0.6894
 4148TIP3    H236640   6.446   2.072  16.956  0.1469 -0.9489 -0.2899
 4149TIP3   OH236641   0.262   6.612  15.568  0.4265  0.1426  0.0084
 4149TIP3    H136642   0.253   6.625  15.474 -0.1840  0.2849  0.0856
 4149TIP3    H236643   0.306   6.691  15.600  2.1709 -0.6295 -0.3918
 4150TIP3   OH236644   3.088   0.352  16.156 -0.2534 -0.8761  0.0723
 4150TIP3    H136645   3.031   0.414  16.202  1.2275  0.2805  0.4536
 4150TIP3    H236646   3.079   0.270  16.203 -0.5991 -0.3520  0.9383
 4151TIP3   OH236647   1.478   1.676  16.467 -0.0520  0.5771 -0.3567
 4151TIP3    H136648   1.414   1.607  16.486  0.8397 -0.1373  0.0885
 4151TIP3    H236649   1.469   1.691  16.373  0.9824 -1.4291 -0.8202
 4152TIP3   OH236650   2.682   6.176  16.307 -0.4114  0.5338 -0.1506
 4152TIP3    H136651   2.725   6.184  16.391 -1.0783  0.6822  0.1847
 4152TIP3    H236652   2.744   6.129  16.252  0.5238  1.4932  0.0586
 4153TIP3   OH236653   6.715   1.041  15.440 -0.1983  0.2253  0.2469
 4153TIP3    H136654   6.621   1.058  15.428 -0.2732  0.3063  0.9172
 4153TIP3    H236655   6.725   1.024  15.533  0.2793 -0.9609 -0.0080
 4154TIP3   OH236656   2.203   3.034  17.169  0.1141 -0.2512  0.3631
 4154TIP3    H136657   2.119   2.988  17.171  0.9863 -1.9119  1.3119
 4154TIP3    H236658   2.269   2.965  17.183  1.6039  1.0815  0.2717
 4155TIP3   OH236659   6.537   1.463  17.657  0.0801  0.0075  0.4696
 4155TIP3    H136660   6.529   1.494  17.748 -0.8657  0.4765  0.2477
 4155TIP3    H236661   6.459   1.498  17.614  2.2685  2.9497 -1.4593
 4156TIP3   OH236662   5.915   4.057  17.089 -0.0136 -0.0980 -0.5873
 4156TIP3    H136663   5.981   4.052  17.158 -1.4928  1.3335  1.0562
 4156TIP3    H236664   5.964   4.044  17.008  2.6730  2.6912  0.3645
 4157TIP3   OH236665   6.123   5.008  17.892 -0.0603 -0.3251 -0.2323
 4157TIP3    H136666   6.112   5.103  17.901 -0.1051 -0.4709  1.5020
 4157TIP3    H236667   6.215   4.993  17.910 -0.3845 -0.7594  1.1827
 4158TIP3   OH236668   2.087   1.557  17.937 -0.1030  0.1161  0.4602
 4158TIP3    H136669   2.086   1.504  18.017  0.9631  0.3002  0.6152
 4158TIP3    H236670   2.145   1.630  17.957  0.5215 -0.0573 -0.6192
 4159TIP3   OH236671   0.398   2.044  14.736 -0.0550  0.0837 -0.2405
 4159TIP3    H136672   0.403   2.106  14.664  0.3690  0.8969  0.4726
 4159TIP3    H236673   0.323   2.074  14.788  0.7272  0.5713  0.6197
 4160TIP3   OH236674   1.313   4.851  14.816  0.0601  0.1701  0.0254
 4160TIP3    H136675   1.381   4.809  14.870  1.0777  0.5425 -0.9419
 4160TIP3    H236676   1.352   4.857  14.729 -0.0489  3.0440  0.0762
 4161TIP3   OH236677   6.338   1.554  15.754  0.2724  0.0933  0.0613
 4161TIP3    H136678   6.400   1.627  15.749  2.0037 -1.3633 -1.2423
 4161TIP3    H236679   6.268   1.578  15.694  0.3343  1.0917  0.3738
 4162TIP3   OH236680   4.828   4.492  16.437 -0.1277  0.2831 -0.0338
 4162TIP3    H136681   4.924   4.499  16.436 -0.2177  2.1013 -1.3668
 4162TIP3    H236682   4.810   4.426  16.504  2.0501 -0.1285  0.2426
 4163TIP3   OH236683   2.085   2.213  15.058 -0.2316 -0.2509  0.2194
 4163TIP3    H136684   2.166   2.247  15.021  0.4817 -1.0396  1.0295
 4163TIP3    H236685   2.036   2.291  15.084  1.7221  0.2342  2.8307
 4164TIP3   OH236686   0.740   4.484  14.182  0.0009  0.3241 -0.3837
 4164TIP3    H136687   0.711   4.490  14.273 -2.1713  1.5133 -1.0663
 4164TIP3    H236688   0.664   4.450  14.135  0.5326  1.2064 -1.9728
 4165TIP3   OH236689   3.603   5.860  18.052  0.2986  0.3658 -0.1586
 4165TIP3    H136690   3.620   5.845  17.959  4.3083  1.0404  0.2455
 4165TIP3    H236691   3.599   5.773  18.091  0.7286  0.0963 -0.7041
 4166TIP3   OH236692   6.744   1.133  17.889 -0.0368  0.1170 -0.0008
 4166TIP3    H136693   6.760   1.226  17.908 -0.9739  0.7861 -2.1490
 4166TIP3    H236694   6.827   1.090  17.908  0.3032  1.3228  1.4219
 4167TIP3   OH236695   0.177   0.644  17.007  0.2457 -0.7108  0.6432
 4167TIP3    H136696   0.102   0.593  17.039  1.0209 -1.6444  1.0233
 4167TIP3    H236697   0.253   0.603  17.048  1.0776 -0.5295 -0.6513
 4168TIP3   OH236698   0.304   6.382  15.245 -0.2100  0.4588 -0.2389
 4168TIP3    H136699   0.243   6.339  15.305 -0.0459 -0.1840 -0.5268
 4168TIP3    H236700   0.250   6.411  15.172 -0.0921 -0.7190 -0.8243
 4169TIP3   OH236701   3.492   1.283  17.769 -0.0040  0.5065  0.0813
 4169TIP3    H136702   3.541   1.332  17.703  4.0772 -2.6300  0.3562
 4169TIP3    H236703   3.437   1.224  17.719  1.2447 -0.1663 -0.5563
 4170TIP3   OH236704   5.360   2.274  16.036  0.4921  0.1903 -0.7518
 4170TIP3    H136705   5.422   2.338  16.001  1.4629  0.5037  1.3737
 4170TIP3    H236706   5.281   2.326  16.054  1.1553  0.7552  0.6328
 4171TIP3   OH236707   1.288   3.202  17.409 -0.2704  0.1989 -0.4749
 4171TIP3    H136708   1.216   3.259  17.436  1.7323  1.9185  1.6671
 4171TIP3    H236709   1.322   3.164  17.491 -0.0576 -2.3041 -1.6277
 4172TIP3   OH236710   5.673   3.861  17.619  0.8018  0.0511 -0.4111
 4172TIP3    H136711   5.629   3.873  17.704  1.3921 -0.6149  0.0034
 4172TIP3    H236712   5.765   3.849  17.642  1.1552  1.1015 -1.2443
 4173TIP3   OH236713   3.588   0.889  16.474 -0.3060  0.1328 -0.5537
 4173TIP3    H136714   3.600   0.861  16.383 -1.2899  1.6513 -1.1773
 4173TIP3    H236715   3.668   0.936  16.496  0.0488 -0.4727 -0.5271
 4174TIP3   OH236716   5.461   3.259  15.413  0.1461 -0.7539 -0.2768
 4174TIP3    H136717   5.551   3.291  15.423 -0.0754 -0.2174  0.1003
 4174TIP3    H236718   5.431   3.245  15.503 -0.1113 -1.0236 -0.4047
 4175TIP3   OH236719   0.665   2.426  16.487  0.1018  0.4979  0.4288
 4175TIP3    H136720   0.601   2.486  16.449 -0.4084  0.4374  1.1742
 4175TIP3    H236721   0.734   2.482  16.522 -0.8099  0.7338  1.9389
 4176TIP3   OH236722   4.309   0.848  16.587  0.0599 -0.2590 -0.1315
 4176TIP3    H136723   4.222   0.880  16.610 -0.2067 -2.4347  2.3480
 4176TIP3    H236724   4.369   0.903  16.637  0.2061  1.3130 -1.9244
 4177TIP3   OH236725   1.272   4.455  16.227  0.4908  0.0233  0.8740
 4177TIP3    H136726   1.236   4.538  16.196  0.9626 -0.2258 -0.4056
 4177TIP3    H236727   1.292   4.470  16.319 -2.1773  0.3985  1.4771
 4178TIP3   OH236728   3.016   3.758  17.413  0.7380 -0.4850 -0.2550
 4178TIP3    H136729   3.097   3.808  17.400 -0.0829  1.2784  1.0084
 4178TIP3    H236730   3.044   3.679  17.459  1.8540 -0.3991 -0.7491
 4179TIP3   OH236731   2.661   6.503  15.814  0.4897  0.3516  0.2078
 4179TIP3    H136732   2.610   6.445  15.757  1.2989 -1.8339  1.6016
 4179TIP3    H236733   2.602   6.576  15.833  0.1397  1.1473 -3.2427
 4180TIP3   OH236734   0.570   5.126  15.440  0.2456 -0.2409  0.1232
 4180TIP3    H136735   0.546   5.206  15.393  0.0908 -0.4862 -0.2248
 4180TIP3    H236736   0.662   5.111  15.416  0.3873  0.0370  0.4895
 4181TIP3   OH236737   5.887   6.140  14.570 -0.0935  0.6872  0.2479
 4181TIP3    H136738   5.848   6.179  14.492  0.2123 -0.5030 -0.5237
 4181TIP3    H236739   5.933   6.063  14.538  1.3917  1.0544  1.3964
 4182TIP3   OH236740   2.163   5.711  17.109 -0.6043 -0.9395 -1.0769
 4182TIP3    H136741   2.185   5.627  17.150 -1.3024 -0.5036  0.2649
 4182TIP3    H236742   2.101   5.751  17.170  0.7401  1.1491 -0.9777
 4183TIP3   OH236743   2.824   6.199  16.538  0.2760  0.4492  0.2227
 4183TIP3    H136744   2.749   6.212  16.596 -0.6085  1.1085 -1.0141
 4183TIP3    H236745   2.865   6.285  16.533  1.2402  0.0623  1.0033
 4184TIP3   OH236746   2.265   4.450  17.372  0.3647 -0.5351 -0.2794
 4184TIP3    H136747   2.289   4.542  17.376 -0.2304 -0.3851 -0.1404
 4184TIP3    H236748   2.341   4.407  17.331  1.0597 -0.1431  0.5728
 4185TIP3   OH236749   2.059   3.678  16.162 -0.0013 -0.5744  0.0553
 4185TIP3    H136750   2.013   3.693  16.245  0.8262 -0.7905  0.5599
 4185TIP3    H236751   2.042   3.586  16.142  0.2086 -0.6551  0.2434
 4186TIP3   OH236752   1.514   5.115  17.503 -0.2299 -0.0220 -0.6546
 4186TIP3    H136753   1.568   5.160  17.567 -0.1646  0.2756 -0.9171
 4186TIP3    H236754   1.427   5.112  17.544  0.1323 -1.1509  0.0785
 4187TIP3   OH236755   1.281   4.036  17.260  0.0412 -0.1962  0.0641
 4187TIP3    H136756   1.319   4.054  17.346  0.5518  0.1677 -0.2367
 4187TIP3    H236757   1.190   4.063  17.268  0.4363  1.2110  0.0582
 4188TIP3   OH236758   5.866   1.981  16.892  0.3025 -0.1450  0.2549
 4188TIP3    H136759   5.815   1.914  16.846  0.5657  0.0845 -0.3690
 4188TIP3    H236760   5.877   1.945  16.980 -0.0575 -0.6595  0.0965
 4189TIP3   OH236761   3.385   6.144  15.787  0.5743  0.4958 -0.1026
 4189TIP3    H136762   3.349   6.057  15.776 -0.2330  0.7360  0.5605
 4189TIP3    H236763   3.409   6.149  15.880  0.8119  0.9023 -0.1819
 4190TIP3   OH236764   6.640   2.886  17.773 -0.3029 -0.1391 -0.7555
 4190TIP3    H136765   6.678   2.918  17.691 -1.8436  0.5570 -1.2431
 4190TIP3    H236766   6.572   2.825  17.746 -1.1083  0.4119 -0.0273
 4191TIP3   OH236767   1.272   2.181  16.105  0.8396 -0.2024  0.1694
 4191TIP3    H136768   1.212   2.255  16.110 -1.1248 -1.7440  0.5622
 4191TIP3    H236769   1.321   2.195  16.023  0.4850  1.4631  0.2098
 4192TIP3   OH236770   0.165   5.581  15.417 -0.4180  0.8091 -0.5202
 4192TIP3    H136771   0.175   5.487  15.406 -1.3862  0.8376 -1.9713
 4192TIP3    H236772   0.116   5.591  15.498  0.9702  0.1660  0.4433
 4193TIP3   OH236773   5.298   6.741  17.591  0.1044 -0.3253  0.0144
 4193TIP3    H136774   5.304   6.806  17.660  0.5865 -1.3174  0.9302
 4193TIP3    H236775   5.368   6.763  17.530  1.4594 -1.0552  1.2644
 4194TIP3   OH236776   1.289   5.879  16.909 -0.4480 -1.0365  0.1983
 4194TIP3    H136777   1.276   5.831  16.990 -1.0412  0.4126  1.0008
 4194TIP3    H236778   1.230   5.837  16.846 -0.5815 -1.6576  0.7288
 4195TIP3   OH236779   5.601   3.278  16.602  0.0424  0.4334 -0.2505
 4195TIP3    H136780   5.608   3.185  16.622 -1.1020  0.1404 -1.1019
 4195TIP3    H236781   5.516   3.287  16.559  0.0658  1.8983 -0.0531
 4196TIP3   OH236782   6.469   6.654  16.409 -0.1737 -0.3597 -0.3187
 4196TIP3    H136783   6.561   6.629  16.414 -0.3691 -0.8498  1.7075
 4196TIP3    H236784   6.470   6.745  16.380  0.8829 -0.6380 -1.2050
 4197TIP3   OH236785   3.168   0.119  16.805 -0.5066  0.4096  0.0217
 4197TIP3    H136786   3.152   0.159  16.719  0.5888 -0.4525 -0.6178
 4197TIP3    H236787   3.125   0.034  16.801 -0.7275  0.4984  0.4516
 4198TIP3   OH236788   4.126   1.612  16.299  0.2234 -0.2385 -0.4332
 4198TIP3    H136789   4.217   1.589  16.317 -0.0149  0.1815  1.6243
 4198TIP3    H236790   4.132   1.687  16.239  1.5431  2.7441  2.9818
 4199TIP3   OH236791   4.702   5.793  16.615  0.2744 -0.5842  0.2399
 4199TIP3    H136792   4.756   5.716  16.633  1.7902  0.5124  0.5537
 4199TIP3    H236793   4.685   5.788  16.521  0.0300 -1.5008  0.3234
 4200TIP3   OH236794   6.520   0.640  16.030 -0.4547  0.3068  0.0793
 4200TIP3    H136795   6.485   0.726  16.055  0.0933  0.4091  0.5147
 4200TIP3    H236796   6.447   0.580  16.043  0.0531  0.1652  2.9987
 4201TIP3   OH236797   3.407   5.006  16.641 -0.2646 -0.0579  0.0243
 4201TIP3    H136798   3.481   4.946  16.630  0.7948  0.7585  2.1866
 4201TIP3    H236799   3.423   5.076  16.579  2.2491  1.4011  2.1245
 4202TIP3   OH236800   1.357   3.324  15.418 -1.2027 -0.3335  0.1028
 4202TIP3    H136801   1.418   3.272  15.470 -1.0424  1.1971  1.5454
 4202TIP3    H236802   1.332   3.397  15.476  0.7404  2.8131 -2.6384
 4203TIP3   OH236803   5.371   3.506  15.693  0.3388  0.1850  0.4698
 4203TIP3    H136804   5.450   3.560  15.693  1.2353 -1.0806  1.0566
 4203TIP3    H236805   5.337   3.513  15.782 -0.0625  0.5070  0.2935
 4204TIP3   OH236806   1.316   6.418  15.101 -0.2866  0.1958 -0.2200
 4204TIP3    H136807   1.254   6.368  15.153 -0.1567  0.1604 -0.0986
 4204TIP3    H236808   1.281   6.507  15.100  0.2522  0.4362  0.8112
 4205TIP3   OH236809   5.415   1.898  15.834  0.0702 -0.1114 -0.2279
 4205TIP3    H136810   5.357   1.875  15.907  1.1042  0.8235  0.9087
 4205TIP3    H236811   5.498   1.921  15.875  0.5564  0.8420 -1.6738
 4206TIP3   OH236812   0.173   5.322  17.673 -0.1123  0.0330 -0.5796
 4206TIP3    H136813   0.217   5.403  17.646  0.2200 -0.5437 -1.8167
 4206TIP3    H236814   0.088   5.326  17.630 -0.8905  0.6124  0.9149
 4207TIP3   OH236815   2.693   0.977  17.060 -0.0078 -0.3794  0.4297
 4207TIP3    H136816   2.772   0.987  17.006 -0.6014 -1.7071 -0.7443
 4207TIP3    H236817   2.691   0.884  17.081 -0.9108 -0.2326  1.0263
 4208TIP3   OH236818   2.605   3.211  17.433 -0.1758 -0.8277  0.0756
 4208TIP3    H136819   2.695   3.220  17.404 -0.0014 -2.4312  0.0483
 4208TIP3    H236820   2.570   3.300  17.429  0.7005 -0.5086 -2.1948
 4209TIP3   OH236821   6.656   2.395  17.005 -0.0679 -0.4578 -0.3448
 4209TIP3    H136822   6.605   2.455  16.950  1.0956  0.0110 -0.9621
 4209TIP3    H236823   6.659   2.314  16.954 -0.4939 -0.6011 -0.1424
 4210TIP3   OH236824   1.994   0.134  14.865  0.5858 -0.3096 -0.0356
 4210TIP3    H136825   2.064   0.177  14.816  0.9786  0.2369  0.9679
 4210TIP3    H236826   2.019   0.041  14.867  1.8771  0.0289  1.2173
 4211TIP3   OH236827   4.556   2.789  16.991  0.0539  0.6615 -0.0328
 4211TIP3    H136828   4.510   2.823  16.914  1.8384  2.3251 -0.4586
 4211TIP3    H236829   4.606   2.865  17.024  1.6863 -0.7683  0.9521
 4212TIP3   OH236830   0.380   1.440  17.494  0.3763 -0.2189 -0.0773
 4212TIP3    H136831   0.422   1.504  17.552  1.6026  0.4206 -1.5863
 4212TIP3    H236832   0.406   1.355  17.529  0.0056  0.1269  1.0598
 4213TIP3   OH236833   2.682   0.201  18.114  0.3182 -0.5470 -0.2773
 4213TIP3    H136834   2.685   0.272  18.050  0.9124 -1.2171 -1.0181
 4213TIP3    H236835   2.773   0.183  18.135  0.1262  0.2622  1.4854
 4214TIP3   OH236836   4.847   2.368  18.132 -0.2837 -0.2558  0.6121
 4214TIP3    H136837   4.824   2.460  18.119  0.6437  0.0701  1.2196
 4214TIP3    H236838   4.940   2.369  18.155 -0.1505 -1.3849  0.1755
 4215TIP3   OH236839   4.091   4.811  16.374  0.5037 -0.2089 -0.0475
 4215TIP3    H136840   4.146   4.762  16.312  1.5526 -1.3823  1.6947
 4215TIP3    H236841   4.008   4.764  16.374  0.8159 -0.7837  0.0789
 4216TIP3   OH236842   2.379   6.138  15.576 -0.1380 -0.0176 -0.3714
 4216TIP3    H136843   2.390   6.137  15.481 -0.0786  1.0659 -0.3911
 4216TIP3    H236844   2.420   6.220  15.603  1.8194 -1.2867  0.8378
 4217TIP3   OH236845   5.092   1.361  16.384 -0.2280 -0.0645 -0.1637
 4217TIP3    H136846   5.048   1.280  16.357 -2.6246  1.0938  0.0643
 4217TIP3    H236847   5.134   1.339  16.467 -1.1638 -0.9777  0.0812
 4218TIP3   OH236848   6.418   3.665  17.642 -0.1847  0.4067 -0.3404
 4218TIP3    H136849   6.454   3.581  17.669 -1.3989  0.3499  1.2168
 4218TIP3    H236850   6.474   3.730  17.685  1.6801  0.5246 -2.7088
 4219TIP3   OH236851   0.788   5.878  16.618 -0.9288 -0.4696 -0.5135
 4219TIP3    H136852   0.835   5.929  16.684  0.7577 -1.1910 -1.0853
 4219TIP3    H236853   0.704   5.858  16.658 -1.0929  1.5565  0.2562
 4220TIP3   OH236854   5.005   0.685  17.981  0.1886  0.1745 -0.1927
 4220TIP3    H136855   4.975   0.745  18.050 -0.8745  0.3442 -0.7770
 4220TIP3    H236856   5.041   0.742  17.913  0.9907  0.0234  0.0994
 4221TIP3   OH236857   4.847   2.515  17.623  0.4633 -0.0384  0.0383
 4221TIP3    H136858   4.781   2.569  17.667  0.8745 -0.4583  1.1864
 4221TIP3    H236859   4.922   2.574  17.613  0.3413  0.0812 -0.1976
 4222TIP3   OH236860   3.984   2.009  16.350  0.3522  0.4057 -0.0822
 4222TIP3    H136861   4.072   2.046  16.352 -0.2424  1.9268 -0.2649
 4222TIP3    H236862   3.976   1.959  16.431  1.0585  1.0573  0.3980
 4223TIP3   OH236863   1.919   2.079  17.418 -0.2081  0.8849  0.2019
 4223TIP3    H136864   1.966   2.005  17.458 -0.0748  1.6426  1.4978
 4223TIP3    H236865   1.861   2.037  17.354  0.0534 -0.3271  0.7146
 4224TIP3   OH236866   0.368   2.359  15.655  0.1549  0.0134  0.4494
 4224TIP3    H136867   0.448   2.313  15.681  1.1231  1.0566 -0.5603
 4224TIP3    H236868   0.319   2.294  15.605  0.8326 -0.3609  0.2542
 4225TIP3   OH236869   0.194   5.024  17.765  0.3119 -0.3155 -0.2512
 4225TIP3    H136870   0.267   5.027  17.703  0.6165  1.1776  0.1161
 4225TIP3    H236871   0.147   5.106  17.750  0.2688 -0.0187  1.3095
 4226TIP3   OH236872   2.918   0.236  17.581 -0.3608 -0.4711 -0.4946
 4226TIP3    H136873   2.825   0.218  17.596 -0.1016 -1.8470 -0.3862
 4226TIP3    H236874   2.941   0.182  17.506  0.0997  0.7397 -1.2545
 4227TIP3   OH236875   4.846   2.359  16.296  0.0400 -0.7914 -0.1470
 4227TIP3    H136876   4.887   2.444  16.281  1.0977 -1.4227 -1.0269
 4227TIP3    H236877   4.753   2.378  16.302  0.3078  0.5084  0.3497
 4228TIP3   OH236878   0.991   1.765  14.265 -0.2615 -0.1014  0.3058
 4228TIP3    H136879   1.015   1.677  14.235 -0.1964 -0.2903  0.9046
 4228TIP3    H236880   1.008   1.763  14.359 -0.2592  0.5556  0.3179
 4229TIP3   OH236881   5.653   3.655  14.588  0.0236 -0.3232  0.5614
 4229TIP3    H136882   5.652   3.576  14.641  1.9559  0.6405  2.1930
 4229TIP3    H236883   5.734   3.700  14.614  1.8666 -0.3535 -4.0975
 4230TIP3   OH236884   3.082   5.557  17.507 -0.0472 -0.1925  0.1922
 4230TIP3    H136885   3.110   5.642  17.542  0.3020  0.2277 -1.0625
 4230TIP3    H236886   3.032   5.518  17.578 -1.4741  1.6840  0.3067
 4231TIP3   OH236887   6.741   2.878  15.558  0.1881  0.1425 -0.3344
 4231TIP3    H136888   6.652   2.847  15.542  0.0122  0.8327 -0.7085
 4231TIP3    H236889   6.797   2.805  15.531 -0.2920 -0.9191  1.3980
 4232TIP3   OH236890   4.945   2.991  16.503 -0.0931 -0.0035 -0.0570
 4232TIP3    H136891   5.001   3.032  16.438  1.9610 -2.1694  0.1855
 4232TIP3    H236892   4.879   2.944  16.453 -0.0097  0.3110 -0.4628
 4233TIP3   OH236893   1.736   1.066  16.433 -0.0915 -0.5307  0.6212
 4233TIP3    H136894   1.800   1.054  16.504  0.0058 -0.0668  0.6162
 4233TIP3    H236895   1.697   0.980  16.421  2.0480 -1.3951 -0.8153
 4234TIP3   OH236896   4.195   0.297  16.000 -1.2965 -0.1504 -0.0347
 4234TIP3    H136897   4.155   0.216  16.032 -0.5704  0.0286  1.4252
 4234TIP3    H236898   4.187   0.358  16.073  0.0725  0.4251 -0.3322
 4235TIP3   OH236899   1.218   0.117  15.635 -0.1560 -0.1613  0.2744
 4235TIP3    H136900   1.285   0.178  15.607  0.4482 -0.6931  0.5365
 4235TIP3    H236901   1.135   0.159  15.611  0.2968 -0.1640 -1.4264
 4236TIP3   OH236902   4.045   3.452  16.591 -0.2934  0.0013 -0.2251
 4236TIP3    H136903   4.049   3.372  16.539  0.1528  0.7497 -1.3917
 4236TIP3    H236904   4.134   3.488  16.586 -0.0568 -0.2483  1.6475
 4237TIP3   OH236905   2.314   4.609  15.520  0.1244 -0.8509  0.2232
 4237TIP3    H136906   2.404   4.577  15.512 -0.9933 -3.9048 -2.2037
 4237TIP3    H236907   2.277   4.557  15.592  0.2667  0.4797  1.2910
 4238TIP3   OH236908   2.086   1.916  16.612  0.0075  0.5803  0.6187
 4238TIP3    H136909   2.174   1.952  16.597  1.3471 -2.1304  1.2778
 4238TIP3    H236910   2.073   1.854  16.541 -0.8596  0.0702  1.2035
 4239TIP3   OH236911   3.496   6.485  17.424  0.1080 -0.4885 -0.1227
 4239TIP3    H136912   3.420   6.539  17.449 -0.7094 -0.7277 -1.9471
 4239TIP3    H236913   3.533   6.531  17.349  1.7794 -0.4163  0.7065
 4240TIP3   OH236914   3.009   2.625  17.595  0.2930 -0.3595  0.2482
 4240TIP3    H136915   3.081   2.617  17.657  0.4817 -0.7482 -0.0155
 4240TIP3    H236916   2.959   2.701  17.625  0.4509 -0.4703  0.8035
 4241TIP3   OH236917   3.941   1.946  18.021  0.0416 -0.3952 -1.0306
 4241TIP3    H136918   3.974   1.990  18.099 -1.9457 -0.9795  0.2115
 4241TIP3    H236919   3.970   1.855  18.031 -0.5845 -0.5663 -0.7333
 4242TIP3   OH236920   0.716   3.995  17.642 -0.1337  0.5752  0.8696
 4242TIP3    H136921   0.623   4.000  17.618  0.1495 -0.4149 -0.5891
 4242TIP3    H236922   0.729   3.903  17.667  1.1970 -0.3564 -2.6527
 4243TIP3   OH236923   5.497   0.095  17.146 -0.3878  0.4064  0.0350
 4243TIP3    H136924   5.583   0.069  17.113 -1.5265 -0.3566 -2.6621
 4243TIP3    H236925   5.462   0.017  17.190  0.0968  0.5685  0.7128
 4244TIP3   OH236926   6.118   6.280  14.780  0.2292  0.1340  0.0039
 4244TIP3    H136927   6.171   6.359  14.786  0.0148  0.2530  0.3659
 4244TIP3    H236928   6.176   6.214  14.742  0.6024  0.2934  0.2953
 4245TIP3   OH236929   5.131   6.766  13.990  0.2753 -0.5875  0.2614
 4245TIP3    H136930   5.159   6.813  13.911 -0.7490 -2.4256 -1.3023
 4245TIP3    H236931   5.211   6.757  14.042  0.7003  1.9168  0.1842
 4246TIP3   OH236932   4.547   2.194  15.192  0.0938 -0.4325  0.0756
 4246TIP3    H136933   4.631   2.232  15.167 -1.2220  1.0470 -2.6158
 4246TIP3    H236934   4.509   2.256  15.254 -0.5349  0.9378 -1.6002
 4247TIP3   OH236935   2.789   2.621  15.535  0.5145  0.2474  0.5429
 4247TIP3    H136936   2.710   2.601  15.585  0.5612  0.7175  0.8085
 4247TIP3    H236937   2.757   2.664  15.455  0.3473 -1.6081 -0.4553
 4248TIP3   OH236938   4.261   3.684  17.242  0.3232  0.2687 -0.0269
 4248TIP3    H136939   4.267   3.777  17.218  0.3797  0.4816  0.7760
 4248TIP3    H236940   4.325   3.641  17.186  0.9242  0.8443  0.1885
 4249TIP3   OH236941   4.025   1.400  18.110  0.3096 -0.1121  0.2167
 4249TIP3    H136942   4.110   1.398  18.155  0.4004 -0.4553  0.0295
 4249TIP3    H236943   4.037   1.343  18.035 -1.0010 -2.5938  1.7745
 4250TIP3   OH236944   0.485   3.959  17.450  0.3834 -0.4973 -0.1515
 4250TIP3    H136945   0.416   4.011  17.492  0.1790 -0.8342 -0.0712
 4250TIP3    H236946   0.459   3.868  17.464  0.7969 -0.6256 -0.2023
 4251TIP3   OH236947   6.052   1.511  14.523 -0.2482  0.6712  0.6907
 4251TIP3    H136948   6.109   1.538  14.595  0.2424  0.0260  0.5514
 4251TIP3    H236949   6.081   1.564  14.449 -1.5654  2.2357  1.2399
 4252TIP3   OH236950   6.364   2.241  15.555  0.1834 -0.0586 -0.0331
 4252TIP3    H136951   6.286   2.234  15.500  0.1710  0.7844 -0.1277
 4252TIP3    H236952   6.410   2.158  15.542 -0.9085 -0.7559  0.3594
 4253TIP3   OH236953   2.634   6.494  18.068  0.0851 -0.0226  0.1625
 4253TIP3    H136954   2.664   6.571  18.020 -1.0394  0.1521 -0.2967
 4253TIP3    H236955   2.625   6.524  18.159  1.4176 -0.1261  0.3412
 4254TIP3   OH236956   0.195   2.684  15.205  0.2141  0.0196 -0.2442
 4254TIP3    H136957   0.187   2.767  15.252 -0.3817  0.0401 -0.3656
 4254TIP3    H236958   0.158   2.619  15.265 -0.8320  0.0899 -0.7786
 4255TIP3   OH236959   3.756   5.039  18.146  0.0540  0.7188 -0.0756
 4255TIP3    H136960   3.692   5.028  18.217  0.6952  1.5392  0.6548
 4255TIP3    H236961   3.705   5.074  18.073 -0.2688  1.7873  0.6421
 4256TIP3   OH236962   5.538   0.404  16.346 -0.0687  0.0468  0.0318
 4256TIP3    H136963   5.539   0.323  16.296 -1.2461 -0.0585  0.1437
 4256TIP3    H236964   5.529   0.377  16.437  0.7371  0.2791  0.1914
 4257TIP3   OH236965   2.570   5.190  17.134 -0.2883 -0.4469  0.0255
 4257TIP3    H136966   2.618   5.191  17.051 -1.5878 -0.8043 -0.7475
 4257TIP3    H236967   2.501   5.255  17.123 -1.6798 -1.8748  0.0852
 4258TIP3   OH236968   0.471   0.707  16.463 -0.0468 -0.2246 -0.5964
 4258TIP3    H136969   0.564   0.709  16.485 -0.2620 -0.1836  0.3491
 4258TIP3    H236970   0.466   0.747  16.376  0.8902 -0.8144 -0.9326
 4259TIP3   OH236971   5.235   5.957  16.544  0.2017  0.8142  1.0272
 4259TIP3    H136972   5.221   5.937  16.637 -0.9365  0.4597  0.7983
 4259TIP3    H236973   5.152   5.996  16.516 -1.0407 -2.6835 -0.7873
 4260TIP3   OH236974   0.859   2.017  16.144 -0.3205 -0.2000  0.1793
 4260TIP3    H136975   0.784   2.076  16.135 -1.0607 -1.0203  0.7736
 4260TIP3    H236976   0.931   2.073  16.172 -0.8571  0.5065  0.1700
 4261TIP3   OH236977   0.884   3.889  16.773 -0.3387 -0.1782 -0.3949
 4261TIP3    H136978   0.896   3.851  16.860 -1.7113  0.3227  0.0443
 4261TIP3    H236979   0.971   3.920  16.748 -0.0936  0.5818  1.2554
 4262TIP3   OH236980   2.332   2.391  16.110 -0.3850  0.2666 -0.5006
 4262TIP3    H136981   2.238   2.405  16.124 -0.3277  0.5412 -0.3769
 4262TIP3    H236982   2.339   2.299  16.083 -0.7215  0.3364 -0.8250
 4263TIP3   OH236983   4.257   2.002  16.287 -0.0441 -0.6250 -0.2540
 4263TIP3    H136984   4.302   1.933  16.238  0.5446  0.3258 -1.1029
 4263TIP3    H236985   4.320   2.028  16.354  0.5655  0.4665 -1.2217
 4264TIP3   OH236986   0.759   4.267  16.944 -0.5931 -0.0945 -0.3110
 4264TIP3    H136987   0.824   4.265  16.874  1.4774  1.9148  1.3946
 4264TIP3    H236988   0.696   4.334  16.916 -0.6029 -0.3352 -0.8821
 4265TIP3   OH236989   2.760   5.193  16.938  0.5182 -0.2504  0.2798
 4265TIP3    H136990   2.833   5.132  16.930  0.8903  0.2014  0.2370
 4265TIP3    H236991   2.777   5.260  16.872  1.2273  1.0417  1.7119
 4266TIP3   OH236992   1.454   5.272  17.259  0.0184  0.8865  0.6410
 4266TIP3    H136993   1.366   5.266  17.296 -0.4660  1.6294 -0.3398
 4266TIP3    H236994   1.508   5.217  17.316 -1.2848 -0.4756  0.6154
 4267TIP3   OH236995   2.717   0.528  16.187 -0.2174  0.4946 -0.1762
 4267TIP3    H136996   2.652   0.596  16.169  0.4627  1.3480  0.4996
 4267TIP3    H236997   2.785   0.543  16.122  0.0143  0.5658  0.0840
 4268TIP3   OH236998   4.521   5.023  15.733 -0.2212  0.2971 -0.2274
 4268TIP3    H136999   4.580   5.091  15.702  0.6829 -0.4579 -0.2119
 4268TIP3    H237000   4.433   5.058  15.719  0.1846  2.4946  2.0735
 4269TIP3   OH237001   3.531   4.749  16.672 -0.0800  0.2469 -0.0544
 4269TIP3    H137002   3.542   4.674  16.614  1.9400  0.8896 -0.5669
 4269TIP3    H237003   3.440   4.742  16.703 -0.0783 -2.1335 -0.4276
 4270TIP3   OH237004   6.066   1.663  15.564 -0.2344 -0.0088  0.5943
 4270TIP3    H137005   5.977   1.679  15.532 -0.4930 -0.7938  0.8916
 4270TIP3    H237006   6.053   1.634  15.654  0.3183 -0.2443  0.5973
 4271TIP3   OH237007   1.152   1.082  15.176 -0.6171 -0.3610  0.3382
 4271TIP3    H137008   1.153   1.164  15.225 -2.3881 -0.3704  0.4606
 4271TIP3    H237009   1.125   1.107  15.088  0.2679 -0.6376 -0.0150
 4272TIP3   OH237010   1.054   2.035  15.177 -0.7525 -0.3814  0.0574
 4272TIP3    H137011   0.972   1.986  15.188 -0.5231 -0.8872 -0.4347
 4272TIP3    H237012   1.067   2.038  15.082 -2.2143  3.1109 -0.1664
 4273TIP3   OH237013   2.814   5.673  15.307  0.6522  0.3191  0.0581
 4273TIP3    H137014   2.884   5.731  15.336  1.8410 -0.4807 -1.0617
 4273TIP3    H237015   2.785   5.710  15.224  1.5110 -0.7082 -0.7305
 4274TIP3   OH237016   5.566   4.951  17.306  0.2317  0.2025 -0.7316
 4274TIP3    H137017   5.518   5.029  17.279  0.7166  0.8745  0.2869
 4274TIP3    H237018   5.658   4.972  17.287  0.5706  0.6319  1.1884
 4275TIP3   OH237019   4.450   6.533  17.158 -0.0714 -0.4287  0.0977
 4275TIP3    H137020   4.449   6.572  17.071  0.6716  0.9378  0.6619
 4275TIP3    H237021   4.542   6.536  17.185 -0.3256 -0.5605  1.0332
 4276TIP3   OH237022   5.171   4.249  16.461  0.3789  0.1217  0.2958
 4276TIP3    H137023   5.159   4.247  16.556  0.0805  2.7353  0.3848
 4276TIP3    H237024   5.139   4.164  16.432  0.2626 -0.6760  2.5068
 4277TIP3   OH237025   2.930   6.520  16.239 -0.2500  0.8838 -0.7263
 4277TIP3    H137026   2.945   6.524  16.144  0.1872  1.1204 -0.6523
 4277TIP3    H237027   2.843   6.481  16.248 -0.0369  0.2785 -1.2117
 4278TIP3   OH237028   1.823   3.271  14.168  0.0636 -0.2127  0.1958
 4278TIP3    H137029   1.739   3.311  14.144  0.3569  0.6711  0.6066
 4278TIP3    H237030   1.811   3.242  14.259  0.5214  0.8461  0.6095
 4279TIP3   OH237031   1.475   5.492  17.956  0.0803 -0.0687  0.7648
 4279TIP3    H137032   1.487   5.404  17.920 -1.5044 -0.0217  0.0321
 4279TIP3    H237033   1.422   5.479  18.035 -0.5489  0.2667  0.4006
 4280TIP3   OH237034   5.485   2.038  17.543 -0.0082  0.3034 -0.1589
 4280TIP3    H137035   5.400   2.066  17.510  0.2323 -0.9270 -1.9884
 4280TIP3    H237036   5.464   1.982  17.618 -0.6904  1.4451  0.5333
 4281TIP3   OH237037   4.832   4.390  17.367  0.2326  0.4331 -0.9886
 4281TIP3    H137038   4.860   4.301  17.345  0.6414  0.8660 -2.2797
 4281TIP3    H237039   4.747   4.378  17.409  0.4656 -0.5938 -0.7739
 4282TIP3   OH237040   4.804   1.180  16.452 -0.4632  0.3248 -0.7216
 4282TIP3    H137041   4.768   1.110  16.507 -1.2849  1.2532 -0.0436
 4282TIP3    H237042   4.853   1.134  16.384  1.5399 -0.8818  1.3827
 4283TIP3   OH237043   2.601   1.647  17.222  0.0613 -0.0667 -0.1209
 4283TIP3    H137044   2.554   1.719  17.265 -0.7090 -0.0532 -0.9590
 4283TIP3    H237045   2.543   1.572  17.230 -0.9690  0.3657 -2.7245
 4284TIP3   OH237046   1.810   3.005  16.197  0.7155 -0.0438 -0.3870
 4284TIP3    H137047   1.858   3.083  16.170  1.3755 -0.9042 -1.8008
 4284TIP3    H237048   1.749   2.989  16.126 -0.1179 -0.2606  0.3616
 4285TIP3   OH237049   6.112   2.433  18.151  0.4575  0.0655  0.1275
 4285TIP3    H137050   6.060   2.442  18.231  0.1171  0.5234 -0.1347
 4285TIP3    H237051   6.150   2.520  18.138 -0.9940  0.5517 -1.2091
 4286TIP3   OH237052   4.801   6.231  15.288  0.0053  0.1735  0.4989
 4286TIP3    H137053   4.797   6.218  15.193  0.1068  0.4808  0.4541
 4286TIP3    H237054   4.767   6.319  15.302  0.4063  0.2962  0.7116
 4287TIP3   OH237055   5.156   2.326  16.670  0.1444 -0.6350 -0.1850
 4287TIP3    H137056   5.147   2.397  16.734 -0.3559 -0.5143 -0.3849
 4287TIP3    H237057   5.069   2.320  16.629  0.3300 -1.0240 -0.5231
 4288TIP3   OH237058   1.312   6.076  16.357  0.2005 -0.6842  0.2747
 4288TIP3    H137059   1.263   6.139  16.304 -0.9886 -1.2309  0.6767
 4288TIP3    H237060   1.244   6.025  16.403  1.1461 -0.0381  2.5538
 4289TIP3   OH237061   4.743   5.458  16.357 -0.4756  0.1581 -0.0566
 4289TIP3    H137062   4.666   5.415  16.393 -0.8286  0.7307 -0.1270
 4289TIP3    H237063   4.792   5.387  16.314 -2.0283  0.1200 -1.9005
 4290TIP3   OH237064   6.316   3.967  16.809  0.5088 -0.1871  0.3120
 4290TIP3    H137065   6.277   3.993  16.725 -0.1958  0.7271  0.9076
 4290TIP3    H237066   6.297   3.874  16.817 -1.2258  0.1519  0.3999
 4291TIP3   OH237067   1.261   6.485  17.931 -0.2837  0.9271  0.3663
 4291TIP3    H137068   1.208   6.561  17.954 -1.3753  0.0589  0.7807
 4291TIP3    H237069   1.215   6.445  17.857 -1.0706 -0.6877  1.6804
 4292TIP3   OH237070   1.215   0.623  17.329 -0.2613 -0.1321 -0.3453
 4292TIP3    H137071   1.308   0.601  17.338 -0.2945  0.0140  0.3997
 4292TIP3    H237072   1.202   0.698  17.386 -1.1272 -0.9931  0.6349
 4293TIP3   OH237073   3.682   4.951  15.559 -0.1974  0.3850 -0.0751
 4293TIP3    H137074   3.740   4.951  15.482 -0.0564 -1.3887  0.0005
 4293TIP3    H237075   3.736   4.914  15.629 -1.8465 -3.0616 -0.4160
 4294TIP3   OH237076   1.753   6.323  17.719 -0.4812  0.0482 -0.2645
 4294TIP3    H137077   1.772   6.415  17.702  0.0396  0.0313  0.1831
 4294TIP3    H237078   1.659   6.320  17.736 -0.6335  0.3782 -1.0128
 4295TIP3   OH237079   5.899   5.135  15.501 -0.0030  0.0192 -0.5444
 4295TIP3    H137080   5.919   5.062  15.560  0.6500 -0.7260 -1.6544
 4295TIP3    H237081   5.954   5.207  15.533 -1.4192  0.4109  1.2146
 4296TIP3   OH237082   3.909   3.980  15.629 -0.2893 -0.5239  0.3086
 4296TIP3    H137083   3.855   3.989  15.551 -1.1094  0.0147  0.9156
 4296TIP3    H237084   3.921   4.070  15.660 -0.2403 -0.7494  0.9631
 4297TIP3   OH237085   5.584   5.696  14.823  0.0546  0.4669  0.1038
 4297TIP3    H137086   5.517   5.645  14.868  0.1473 -0.5552 -0.8755
 4297TIP3    H237087   5.659   5.694  14.883  0.5624 -1.8242 -0.5139
 4298TIP3   OH237088   2.798   3.783  15.975 -0.4723 -0.0571  0.2734
 4298TIP3    H137089   2.730   3.831  15.927  0.0761  0.3677 -0.0773
 4298TIP3    H237090   2.778   3.691  15.958 -0.4701  0.0800 -0.5140
 4299TIP3   OH237091   6.013   0.087  18.044  0.1342  0.0841 -0.1507
 4299TIP3    H137092   5.939   0.136  18.009 -0.5739 -2.1041 -1.9541
 4299TIP3    H237093   6.003   0.092  18.139 -2.3764 -0.1624 -0.3294
 4300TIP3   OH237094   2.088   5.807  16.795 -0.8710 -0.7466 -0.0592
 4300TIP3    H137095   2.041   5.746  16.738 -1.6855  0.1126 -0.3412
 4300TIP3    H237096   2.172   5.764  16.813 -0.9279 -1.3866 -1.2470
 4301TIP3   OH237097   0.610   0.505  14.650 -0.3299 -0.1970  0.2510
 4301TIP3    H137098   0.541   0.456  14.693  1.4080 -2.0188  1.1171
 4301TIP3    H237099   0.601   0.594  14.684 -1.2679 -0.7597  1.5358
 4302TIP3   OH237100   0.249   3.629  15.168  0.8845 -0.1348 -0.0902
 4302TIP3    H137101   0.199   3.587  15.239 -1.0428  0.7841 -0.8106
 4302TIP3    H237102   0.297   3.699  15.212  0.2534 -0.0138  0.4354
 4303TIP3   OH237103   4.399   5.622  16.449 -0.3812  0.0379 -0.1874
 4303TIP3    H137104   4.351   5.703  16.466  2.0022  1.8211 -1.3782
 4303TIP3    H237105   4.415   5.585  16.536 -2.6084  0.0905  0.3085
 4304TIP3   OH237106   0.850   1.742  16.372 -0.4145  0.5760  0.0363
 4304TIP3    H137107   0.916   1.718  16.307 -1.1816  0.1807 -0.6255
 4304TIP3    H237108   0.870   1.832  16.396 -0.2075  0.7790 -0.8723
 4305TIP3   OH237109   1.093   3.564  17.597  0.5850  0.0056 -0.0920
 4305TIP3    H137110   1.134   3.489  17.640 -0.2536  0.3589  1.4031
 4305TIP3    H237111   1.155   3.636  17.610  1.1575 -0.2933 -1.0837
 4306TIP3   OH237112   3.032   2.317  17.592 -0.4837 -0.2726 -0.1965
 4306TIP3    H137113   3.018   2.412  17.582 -1.3599 -0.3154  0.4893
 4306TIP3    H237114   2.946   2.283  17.616  0.0364 -1.1149  0.5247
 4307TIP3   OH237115   4.774   1.173  17.138 -0.7891  0.2880  0.0279
 4307TIP3    H137116   4.791   1.209  17.051  0.0689 -0.1455  0.0076
 4307TIP3    H237117   4.704   1.228  17.173  0.6965  2.2099  0.1310
 4308TIP3   OH237118   6.002   3.285  16.463  0.4171  0.8585  0.1743
 4308TIP3    H137119   6.046   3.201  16.476 -0.3725 -0.0356 -2.3705
 4308TIP3    H237120   6.073   3.346  16.444  0.9276  0.5826  1.1291
 4309TIP3   OH237121   4.438   6.016  16.877  0.2410 -0.0336  0.1718
 4309TIP3    H137122   4.517   6.014  16.822 -1.4596  1.4570 -2.5743
 4309TIP3    H237123   4.462   6.073  16.951  2.8388 -2.6582  1.5688
 4310TIP3   OH237124   3.960   6.065  16.786  0.1142 -0.0322  0.3127
 4310TIP3    H137125   3.940   6.157  16.765 -0.8699 -0.0598  1.0566
 4310TIP3    H237126   4.051   6.054  16.759 -0.6225  0.2934 -2.7011
 4311TIP3   OH237127   4.967   0.225  15.693 -0.1731 -0.4544 -0.1206
 4311TIP3    H137128   4.907   0.202  15.764  2.3412  1.6667  3.0168
 4311TIP3    H237129   4.954   0.319  15.680 -0.3366 -0.7408 -2.3390
 4312TIP3   OH237130   0.388   2.471  17.736 -0.1277  0.2033 -0.3697
 4312TIP3    H137131   0.382   2.530  17.661  0.4600  0.6833 -0.0480
 4312TIP3    H237132   0.407   2.385  17.698 -0.1306  0.3865 -0.7884
 4313TIP3   OH237133   4.312   2.187  16.075 -0.2910  0.5314  0.1306
 4313TIP3    H137134   4.267   2.131  16.139 -2.4784  1.4067 -0.5499
 4313TIP3    H237135   4.330   2.129  16.001 -0.1805  0.1436  0.4558
 4314TIP3   OH237136   5.563   4.622  15.951  0.0900 -0.2711  0.1207
 4314TIP3    H137137   5.586   4.612  16.043 -0.8727  0.1797  0.4296
 4314TIP3    H237138   5.503   4.549  15.932 -0.0639 -0.1121 -0.0179
 4315TIP3   OH237139   1.566   6.307  15.064  0.3722  0.1586  0.4483
 4315TIP3    H137140   1.598   6.389  15.028  1.1495 -0.5834 -0.6352
 4315TIP3    H237141   1.471   6.314  15.061  0.4330  0.8579 -0.0055
 4316TIP3   OH237142   2.062   1.529  16.787 -0.4119  0.1768  0.2777
 4316TIP3    H137143   2.038   1.574  16.706  0.2481  0.3704  0.1793
 4316TIP3    H237144   2.095   1.444  16.758 -0.3009  0.1959  0.3454
 4317TIP3   OH237145   4.411   2.345  15.805  0.9112 -0.3049 -0.6387
 4317TIP3    H137146   4.416   2.440  15.815 -1.6303 -0.1909  0.3182
 4317TIP3    H237147   4.362   2.315  15.882  0.2695 -2.1881 -1.6998
 4318TIP3   OH237148   0.207   3.266  16.253 -0.2675  0.4563  0.3419
 4318TIP3    H137149   0.230   3.220  16.334 -1.7355  1.3468  1.3054
 4318TIP3    H237150   0.292   3.283  16.211  0.4865 -0.5658  1.3728
 4319TIP3   OH237151   5.908   3.870  14.854 -0.2278 -0.3466  0.4577
 4319TIP3    H137152   5.836   3.810  14.873 -0.4859 -0.8478 -1.8452
 4319TIP3    H237153   5.982   3.834  14.903 -1.1147 -0.7640  1.5392
 4320TIP3   OH237154   1.579   3.414  15.821  0.4755  0.3980  0.1500
 4320TIP3    H137155   1.629   3.486  15.860  2.3611 -0.3948 -0.7167
 4320TIP3    H237156   1.599   3.419  15.728  1.8251 -2.0889  0.2218
 4321TIP3   OH237157   2.728   4.355  14.980 -0.6761 -0.6891  0.6865
 4321TIP3    H137158   2.721   4.360  15.076 -0.9468 -0.5989  0.6630
 4321TIP3    H237159   2.639   4.371  14.949 -0.4288  0.1434  0.3807
 4322TIP3   OH237160   4.005   2.433  15.593 -0.3514  0.4387  0.1530
 4322TIP3    H137161   3.929   2.430  15.652 -0.6668  1.5122 -0.1594
 4322TIP3    H237162   3.968   2.458  15.508  0.0382 -1.5251 -0.6377
 4323TIP3   OH237163   3.884   3.930  17.225  1.0298  0.0578  0.0166
 4323TIP3    H137164   3.931   3.934  17.309  1.8982  2.0671 -0.5173
 4323TIP3    H237165   3.863   4.021  17.205  1.2754 -0.3360 -2.1991
 4324TIP3   OH237166   5.432   1.993  16.526  0.5444  0.0032 -0.2481
 4324TIP3    H137167   5.374   1.924  16.559  0.0090 -0.0494 -1.2559
 4324TIP3    H237168   5.510   1.946  16.497  0.3590 -0.1436 -0.5253
 4325TIP3   OH237169   1.584   1.086  17.621  0.3132  0.5691  0.5351
 4325TIP3    H137170   1.589   0.994  17.645 -0.3495  0.7709  1.5585
 4325TIP3    H237171   1.636   1.131  17.688 -0.4008  1.0303  0.7988
 4326TIP3   OH237172   0.913   6.580  17.426 -0.0845 -0.9914  0.1320
 4326TIP3    H137173   0.828   6.624  17.422 -0.2736 -1.4330 -1.3885
 4326TIP3    H237174   0.969   6.639  17.476 -0.5604  0.5783 -1.1344
 4327TIP3   OH237175   2.851   2.954  15.322  0.5220 -0.1737  0.5795
 4327TIP3    H137176   2.876   2.876  15.273  0.1725  0.0869 -0.0255
 4327TIP3    H237177   2.844   3.023  15.256 -2.8464 -0.4352  0.4744
 4328TIP3   OH237178   6.603   2.868  15.810 -0.0157 -0.1082 -0.4830
 4328TIP3    H137179   6.567   2.952  15.783 -1.9413 -0.5826  0.4247
 4328TIP3    H237180   6.669   2.847  15.743 -0.4145  1.4953 -1.4245
 4329TIP3   OH237181   4.908   1.565  14.994  0.0243 -0.0347  0.0282
 4329TIP3    H137182   4.931   1.598  14.908 -0.3832 -0.1041 -0.1079
 4329TIP3    H237183   4.837   1.502  14.978 -0.0671 -0.0353  0.4130
 4330TIP3   OH237184   3.301   4.179  16.403 -0.6160 -0.0185  0.1340
 4330TIP3    H137185   3.279   4.129  16.324  0.8797  0.5769 -0.6939
 4330TIP3    H237186   3.357   4.120  16.453 -0.6811 -0.0013  0.2250
 4331TIP3   OH237187   6.169   0.097  15.622 -0.0373  0.3959 -0.1034
 4331TIP3    H137188   6.182   0.072  15.714 -0.6036 -0.5355 -0.2652
 4331TIP3    H237189   6.256   0.119  15.590  0.2399  0.1957  0.5041
 4332TIP3   OH237190   4.848   6.719  15.471  0.4853 -0.4425  0.5063
 4332TIP3    H137191   4.892   6.639  15.441 -0.8858 -1.7815  1.9232
 4332TIP3    H237192   4.806   6.694  15.553 -2.0249  1.0688 -0.2365
 4333TIP3   OH237193   3.946   3.388  15.025 -0.8355  0.2994  0.3350
 4333TIP3    H137194   3.996   3.306  15.032 -0.0332  0.7724  0.2329
 4333TIP3    H237195   3.984   3.445  15.092 -2.9811 -0.2025  2.0859
 4334TIP3   OH237196   0.934   0.783  15.832 -0.0100  0.5258  0.5274
 4334TIP3    H137197   0.987   0.862  15.820 -0.0619  0.2702 -1.8203
 4334TIP3    H237198   0.971   0.740  15.910  2.4870  0.9470 -0.3545
 4335TIP3   OH237199   1.240   2.326  16.946  0.3452  0.6682  0.0950
 4335TIP3    H137200   1.148   2.299  16.947  0.7993 -1.1027 -1.3293
 4335TIP3    H237201   1.267   2.322  17.038 -0.6715  0.0778  0.3876
 4336TIP3   OH237202   6.634   4.128  17.215  0.0970  0.6174  0.2634
 4336TIP3    H137203   6.648   4.085  17.131 -0.7470 -2.1177  1.3931
 4336TIP3    H237204   6.620   4.220  17.194 -0.2343 -0.0066 -2.5803
 4337TIP3   OH237205   4.225   1.728  17.813  0.3822 -0.6064  0.5203
 4337TIP3    H137206   4.251   1.637  17.808  0.3049 -0.5497 -1.2872
 4337TIP3    H237207   4.171   1.743  17.736 -0.8115  0.6097  1.5286
 4338TIP3   OH237208   4.074   0.576  17.252  0.4343  0.2583  0.2970
 4338TIP3    H137209   4.036   0.592  17.338  1.9271  0.9788  0.8447
 4338TIP3    H237210   4.131   0.650  17.236  1.5887 -0.7612 -0.5208
 4339TIP3   OH237211   5.538   0.571  17.502 -0.6709 -0.2117  0.2313
 4339TIP3    H137212   5.602   0.639  17.483 -0.0181 -0.6634  0.7793
 4339TIP3    H237213   5.582   0.490  17.476 -1.1387 -0.4964  0.3247
 4340TIP3   OH237214   6.179   2.359  16.819  0.1638 -0.3276  0.0340
 4340TIP3    H137215   6.151   2.391  16.734  0.2615  1.2955  0.5912
 4340TIP3    H237216   6.098   2.346  16.868  0.1478 -0.4993 -0.0372
 4341TIP3   OH237217   5.080   1.820  17.146 -0.2218  0.3775  0.1311
 4341TIP3    H137218   5.017   1.866  17.090  0.1879  0.5176 -0.2146
 4341TIP3    H237219   5.140   1.778  17.085  0.1121  0.3663  0.4677
 4342TIP3   OH237220   6.080   3.243  15.050 -0.0765  0.4497  0.3926
 4342TIP3    H137221   6.096   3.231  14.956 -1.0802 -1.7257  0.4253
 4342TIP3    H237222   6.053   3.334  15.059  0.0825  0.7093 -1.4286
 4343TIP3   OH237223   4.424   1.861  17.996 -0.4512 -0.5655 -0.3086
 4343TIP3    H137224   4.495   1.804  18.024 -0.1269 -0.3601 -0.6964
 4343TIP3    H237225   4.363   1.803  17.950 -0.0901 -0.5903 -0.7606
 4344TIP3   OH237226   1.854   1.362  15.895 -0.2080  0.3256 -0.6419
 4344TIP3    H137227   1.821   1.328  15.812 -3.5356  0.6580  0.3708
 4344TIP3    H237228   1.892   1.447  15.874  2.0110 -0.9520 -2.1988
 4345TIP3   OH237229   3.607   1.143  17.994  0.1202  0.9674 -0.2976
 4345TIP3    H137230   3.681   1.201  18.014  2.8225 -1.3875 -2.4734
 4345TIP3    H237231   3.567   1.183  17.916 -0.5192  1.8678  0.4658
 4346TIP3   OH237232   0.974   6.292  16.155  0.0388 -0.4285  0.1524
 4346TIP3    H137233   1.028   6.266  16.081  1.8556 -0.3915  1.4004
 4346TIP3    H237234   0.989   6.387  16.164 -0.1459 -0.4332  0.5613
 4347TIP3   OH237235   3.664   3.742  17.889  0.3773  0.3481  0.0910
 4347TIP3    H137236   3.586   3.690  17.908  0.5431  0.4924  1.2023
 4347TIP3    H237237   3.714   3.687  17.828 -0.3432  0.0346 -0.2308
 4348TIP3   OH237238   0.496   3.660  17.230 -0.7295  0.1216 -0.3933
 4348TIP3    H137239   0.449   3.677  17.311 -0.5310 -1.1663  0.0129
 4348TIP3    H237240   0.428   3.637  17.167 -0.7657 -0.4490 -0.1537
 4349TIP3   OH237241   6.370   0.888  16.087  0.2609 -0.3356 -0.0885
 4349TIP3    H137242   6.335   0.895  15.998 -1.1463  0.5572  0.4987
 4349TIP3    H237243   6.340   0.968  16.131 -0.1554 -1.3445  1.5528
 4350TIP3   OH237244   6.525   2.283  14.711  0.1612  0.0758 -0.7980
 4350TIP3    H137245   6.445   2.237  14.690  0.1182 -0.0921 -0.2681
 4350TIP3    H237246   6.496   2.369  14.743  0.1838 -0.0458 -0.4478
 4351TIP3   OH237247   3.923   2.726  17.017 -0.1797  0.0401 -0.4458
 4351TIP3    H137248   3.932   2.780  17.095 -1.8883 -1.8554  1.1795
 4351TIP3    H237249   3.970   2.645  17.038 -0.6005 -0.4736 -1.3965
 4352TIP3   OH237250   6.670   6.326  17.368  0.6243 -0.4025  0.0714
 4352TIP3    H137251   6.678   6.403  17.312  0.1298 -1.2148 -1.1552
 4352TIP3    H237252   6.652   6.362  17.455  3.5054  0.9906  0.2354
 4353TIP3   OH237253   6.686   4.253  15.243 -0.1035  0.4683 -0.0857
 4353TIP3    H137254   6.735   4.333  15.225 -1.7828  1.8737  1.2486
 4353TIP3    H237255   6.673   4.254  15.338 -0.7075 -1.0668 -0.1330
 4354TIP3   OH237256   1.599   2.706  16.508  0.2770  0.3342  0.1138
 4354TIP3    H137257   1.627   2.659  16.429  0.6578  1.1674 -0.2591
 4354TIP3    H237258   1.538   2.646  16.551  0.7088 -0.4709 -0.3794
 4355TIP3   OH237259   6.450   4.390  14.917  0.8395  0.2292 -0.6004
 4355TIP3    H137260   6.463   4.324  14.985 -0.1007  0.6010 -0.0318
 4355TIP3    H237261   6.525   4.379  14.858 -0.4710 -2.9120 -1.8668
 4356TIP3   OH237262   5.419   5.417  15.974 -0.0181  0.5022 -0.3255
 4356TIP3    H137263   5.374   5.475  16.036 -1.2192 -0.7832  0.0505
 4356TIP3    H237264   5.369   5.426  15.893  0.4696  0.8145 -0.5996
 4357TIP3   OH237265   0.765   3.601  16.778 -0.2949 -0.1482  0.1317
 4357TIP3    H137266   0.719   3.519  16.796 -1.2340  0.7466  2.1747
 4357TIP3    H237267   0.723   3.665  16.835  2.3509  1.1251  0.8472
 4358TIP3   OH237268   2.207   4.456  15.754 -0.3632  0.0054  0.5778
 4358TIP3    H137269   2.220   4.361  15.751 -1.1720 -0.1233  0.8296
 4358TIP3    H237270   2.266   4.487  15.822  0.3716 -0.2261  0.0596
 4359TIP3   OH237271   4.847   3.311  14.776  0.1165 -0.6769  0.2345
 4359TIP3    H137272   4.859   3.348  14.689  0.3021 -1.3611 -0.0391
 4359TIP3    H237273   4.907   3.361  14.832 -1.8936  1.5708  0.5237
 4360TIP3   OH237274   5.957   3.454  18.223 -0.3991  0.2103  0.3642
 4360TIP3    H137275   5.872   3.494  18.243 -0.1060  0.0269  2.1886
 4360TIP3    H237276   5.935   3.369  18.186 -1.0391 -0.1446  1.5054
 4361TIP3   OH237277   0.838   5.831  15.027 -0.5081 -0.6985  0.6569
 4361TIP3    H137278   0.914   5.871  15.069  0.1860  0.5136 -1.5894
 4361TIP3    H237279   0.820   5.887  14.951 -3.2515 -1.3353  0.7385
 4362TIP3   OH237280   0.536   0.769  15.919 -0.0505 -0.3217 -1.1197
 4362TIP3    H137281   0.487   0.695  15.957 -2.9926  2.0309  0.0677
 4362TIP3    H237282   0.590   0.801  15.991 -0.7035  0.1943 -0.8513
 4363TIP3   OH237283   5.085   5.258  16.034 -0.8710 -0.1445 -0.1184
 4363TIP3    H137284   5.145   5.192  16.001 -0.2572 -0.0598  0.7849
 4363TIP3    H237285   5.113   5.340  15.993 -1.4488 -0.3806 -1.0094
 4364TIP3   OH237286   1.823   2.734  15.339  0.3468  0.1542  0.2693
 4364TIP3    H137287   1.799   2.664  15.279 -0.9300  0.7120  0.0831
 4364TIP3    H237288   1.758   2.803  15.322  0.1937  0.4789  2.0147
 4365TIP3   OH237289   0.074   0.871  15.246 -0.2674 -0.1635  0.2421
 4365TIP3    H137290   0.034   0.869  15.332 -2.0358  1.0312 -0.5038
 4365TIP3    H237291   0.066   0.962  15.218  0.9909 -0.3634 -0.8693
 4366TIP3   OH237292   6.370   3.351  15.136 -0.1492 -0.4547 -0.1322
 4366TIP3    H137293   6.339   3.261  15.140  0.3893 -0.6583 -0.4241
 4366TIP3    H237294   6.372   3.373  15.043 -0.3582 -0.1120 -0.0583
 4367TIP3   OH237295   5.720   5.745  16.706 -0.5121  0.7023 -0.4992
 4367TIP3    H137296   5.776   5.821  16.693  2.0214 -1.0220 -0.4529
 4367TIP3    H237297   5.712   5.736  16.801  1.2047 -0.3748 -0.4149
 4368TIP3   OH237298   5.956   0.637  15.629 -0.4872  0.3216 -0.3325
 4368TIP3    H137299   5.999   0.612  15.711 -2.5075 -0.4139  0.5764
 4368TIP3    H237300   6.021   0.619  15.561  0.8773 -0.0167  1.0080
 4369TIP3   OH237301   0.290   4.008  16.007 -0.1128 -0.0020  0.0285
 4369TIP3    H137302   0.206   4.030  15.967 -0.8028 -1.5024  0.5992
 4369TIP3    H237303   0.351   4.006  15.934 -0.9581 -0.7619 -0.6745
 4370TIP3   OH237304   1.725   0.928  17.273  0.0169  0.6014  0.3711
 4370TIP3    H137305   1.654   0.874  17.307  1.9807 -1.4387  1.4452
 4370TIP3    H237306   1.714   1.012  17.318 -1.3454  0.1501  0.9482
 4371TIP3   OH237307   3.212   3.434  16.528  0.1110 -0.5183 -0.6114
 4371TIP3    H137308   3.275   3.486  16.578 -0.0173 -1.5147  0.6721
 4371TIP3    H237309   3.256   3.417  16.445  0.1430  1.6054 -1.0905
 4372TIP3   OH237310   1.949   3.185  17.188  0.5139  0.7320 -0.1108
 4372TIP3    H137311   1.955   3.156  17.279 -3.1819  1.5878  0.5766
 4372TIP3    H237312   1.982   3.275  17.190 -1.9387  1.7152  1.1087
 4373TIP3   OH237313   1.038   3.186  15.680 -0.1608  0.4099 -0.1820
 4373TIP3    H137314   1.069   3.199  15.590 -1.6331  1.0407 -0.6338
 4373TIP3    H237315   1.072   3.261  15.728 -2.0043  1.8103 -0.9717
 4374TIP3   OH237316   3.515   0.941  17.216 -0.3116 -0.8020 -0.4293
 4374TIP3    H137317   3.553   0.980  17.296 -1.2400 -1.4415  0.3388
 4374TIP3    H237318   3.568   0.863  17.200  0.6234 -0.0523 -1.1377
 4375TIP3   OH237319   3.174   6.723  15.426 -0.1425 -0.0984  0.2376
 4375TIP3    H137320   3.191   6.629  15.430 -0.0824 -0.0854  0.3024
 4375TIP3    H237321   3.088   6.731  15.385 -0.2765 -0.1944  0.5024
 4376TIP3   OH237322   1.688   0.732  15.671  0.1509  0.1686  0.6778
 4376TIP3    H137323   1.593   0.716  15.666  0.0393 -0.6397  3.6266
 4376TIP3    H237324   1.700   0.782  15.751  2.1587  1.3801 -0.2978
 4377TIP3   OH237325   2.290   6.733  15.331  0.4212  0.3020 -0.1172
 4377TIP3    H137326   2.302   6.663  15.267 -0.4048 -1.4136  1.5352
 4377TIP3    H237327   2.235   6.695  15.399  0.6243  2.3151  1.2606
 4378TIP3   OH237328   5.506   0.235  15.699  0.4241 -0.4286 -0.0918
 4378TIP3    H137329   5.588   0.205  15.739 -1.3671 -2.4576  2.3939
 4378TIP3    H237330   5.442   0.231  15.770 -2.3717 -1.3359 -2.4715
 4379TIP3   OH237331   0.885   5.309  17.289  0.1138 -0.1215  0.3792
 4379TIP3    H137332   0.917   5.358  17.365  0.4178  0.0634  0.1340
 4379TIP3    H237333   0.828   5.371  17.242  0.4192 -0.0324  0.1238
 4380TIP3   OH237334   3.817   2.077  15.209 -0.1685  0.2097  0.1884
 4380TIP3    H137335   3.807   1.983  15.227 -0.3102 -0.2174 -1.8548
 4380TIP3    H237336   3.742   2.117  15.252 -0.3181 -0.6539  0.7698
 4381TIP3   OH237337   5.117   2.402  17.140 -0.2587 -0.8097 -0.4954
 4381TIP3    H137338   5.188   2.359  17.187 -0.9523  0.0212  1.3986
 4381TIP3    H237339   5.037   2.366  17.178 -0.8489  0.2683 -0.6673
 4382TIP3   OH237340   5.521   4.682  17.158  0.5055 -0.7386 -0.1823
 4382TIP3    H137341   5.458   4.736  17.206  0.7956 -1.3713  0.9426
 4382TIP3    H237342   5.483   4.595  17.159  1.1578 -1.0258  0.0889
 4383TIP3   OH237343   5.395   4.619  15.134  0.1840  0.7707  0.0087
 4383TIP3    H137344   5.480   4.661  15.148 -0.5075  2.3620 -0.2969
 4383TIP3    H237345   5.398   4.587  15.044  0.3940  1.0077 -0.0682
 4384TIP3   OH237346   2.193   5.405  17.072 -0.4154  0.3819  0.4362
 4384TIP3    H137347   2.107   5.448  17.067 -0.1757  0.7703 -2.3417
 4384TIP3    H237348   2.232   5.422  16.986  0.9064 -2.9467  0.2577
 4385TIP3   OH237349   3.536   3.021  15.902  0.4293  0.0785 -0.1917
 4385TIP3    H137350   3.608   3.084  15.912 -0.0993  0.7054 -0.2501
 4385TIP3    H237351   3.546   2.962  15.976  0.5191  0.6553  0.2668
 4386TIP3   OH237352   1.132   4.663  17.166  0.4382  0.6780  0.0275
 4386TIP3    H137353   1.166   4.645  17.079 -0.3037  2.9484 -0.8086
 4386TIP3    H237354   1.209   4.686  17.218  0.7918  0.1358 -0.2498
 4387TIP3   OH237355   6.279   5.392  17.228  0.0031  0.1210  0.6880
 4387TIP3    H137356   6.298   5.333  17.154 -1.0403  0.5273  0.0646
 4387TIP3    H237357   6.364   5.425  17.255  0.3689  0.4324 -0.7384
 4388TIP3   OH237358   4.627   3.562  17.171  0.3119 -0.2981 -0.1667
 4388TIP3    H137359   4.720   3.585  17.167  0.1219  0.4036 -1.1970
 4388TIP3    H237360   4.610   3.544  17.263  1.9714 -2.6903 -0.2346
 4389TIP3   OH237361   4.186   2.738  16.113  0.7947 -0.0858 -0.5121
 4389TIP3    H137362   4.091   2.732  16.107  0.7410 -2.3906  1.1645
 4389TIP3    H237363   4.218   2.665  16.059  1.5190 -0.3687  0.2764
 4390TIP3   OH237364   2.536   4.626  17.561 -0.3415  0.2723 -0.4375
 4390TIP3    H137365   2.573   4.640  17.474 -1.7550 -0.1161 -1.1418
 4390TIP3    H237366   2.548   4.533  17.579 -0.2784  0.3023 -0.3184
 4391TIP3   OH237367   5.344   5.583  15.690  0.0188 -0.1085 -0.5896
 4391TIP3    H137368   5.271   5.565  15.750 -0.4995  0.9435 -0.8821
 4391TIP3    H237369   5.355   5.678  15.694  0.7878 -0.1650 -1.2298
 4392TIP3   OH237370   4.437   1.123  17.125 -0.0440  0.3698 -0.1383
 4392TIP3    H137371   4.447   1.148  17.033 -0.9661  2.6942  0.3228
 4392TIP3    H237372   4.492   1.185  17.172  1.3192 -1.5213  0.8502
 4393TIP3   OH237373   2.485   1.866  17.952  0.3984  0.3617 -0.2414
 4393TIP3    H137374   2.539   1.879  17.874  0.9549 -1.1401 -0.1531
 4393TIP3    H237375   2.546   1.831  18.017 -0.1743  1.0698  0.6920
 4394TIP3   OH237376   3.127   6.160  17.958 -0.2482 -0.0982  0.2307
 4394TIP3    H137377   3.219   6.183  17.971  0.0613 -1.1595  0.0688
 4394TIP3    H237378   3.087   6.173  18.044  0.5992 -1.9118  0.9536
 4395TIP3   OH237379   6.132   2.372  16.545  0.0044 -0.0475  0.3277
 4395TIP3    H137380   6.038   2.353  16.540 -0.0232  0.2285 -0.4233
 4395TIP3    H237381   6.172   2.309  16.486 -0.0165  1.6290 -1.6088
 4396TIP3   OH237382   5.829   5.161  16.816 -0.6986  0.2026 -0.2332
 4396TIP3    H137383   5.901   5.157  16.754 -0.4090  1.9059 -0.0791
 4396TIP3    H237384   5.761   5.105  16.779  0.2136 -0.3782 -1.0568
 4397TIP3   OH237385   3.760   5.170  16.904 -0.2381 -0.4401 -0.9644
 4397TIP3    H137386   3.705   5.096  16.876 -0.0800 -0.9105 -0.0681
 4397TIP3    H237387   3.796   5.142  16.988 -3.1923  2.1009  1.3959
 4398TIP3   OH237388   3.873   3.202  17.375 -0.5390 -0.1848 -0.0531
 4398TIP3    H137389   3.833   3.273  17.323  1.5853  0.8603 -0.3788
 4398TIP3    H237390   3.959   3.237  17.400 -0.6451 -1.5006  2.4056
 4399TIP3   OH237391   5.262   3.048  16.711  0.1254  0.0838 -0.4470
 4399TIP3    H137392   5.269   2.957  16.740  0.0411 -0.0440 -0.8346
 4399TIP3    H237393   5.169   3.061  16.694  0.1924  0.1198 -0.7933
 4400TIP3   OH237394   1.665   5.095  16.242 -0.4914 -0.2998 -0.2072
 4400TIP3    H137395   1.709   5.045  16.311  0.8876  1.6879  0.4383
 4400TIP3    H237396   1.697   5.056  16.161  0.2018 -0.7622  0.2736
 4401TIP3   OH237397   5.960   6.548  16.338  0.3766 -0.8987 -0.4375
 4401TIP3    H137398   6.022   6.562  16.266 -0.3056  1.3104 -0.6876
 4401TIP3    H237399   6.006   6.490  16.398  1.6803 -1.3521 -1.7998
 4402TIP3   OH237400   3.840   2.304  17.094  0.1081  0.3125 -0.0926
 4402TIP3    H137401   3.761   2.334  17.050  0.9138  1.7017 -0.6570
 4402TIP3    H237402   3.822   2.213  17.117 -2.3634  1.1102  1.4893
 4403TIP3   OH237403   0.847   6.001  16.857 -0.3349  0.3883  0.2635
 4403TIP3    H137404   0.878   5.975  16.943 -0.9467  1.9957  0.9976
 4403TIP3    H237405   0.759   6.034  16.872  0.6668  3.7052 -0.3809
 4404TIP3   OH237406   3.430   0.484  15.574  0.3919 -0.8818  0.3152
 4404TIP3    H137407   3.494   0.435  15.624  0.3138 -1.7949 -0.4621
 4404TIP3    H237408   3.416   0.433  15.495 -1.1567 -0.6185  0.3729
 4405TIP3   OH237409   2.395   4.532  15.962  0.2737 -0.0863  0.3683
 4405TIP3    H137410   2.433   4.618  15.983  1.1141 -0.7488  1.7503
 4405TIP3    H237411   2.464   4.487  15.913 -0.0771 -0.0547 -0.1555
 4406TIP3   OH237412   4.920   4.066  17.747  0.1657  0.2036 -0.5171
 4406TIP3    H137413   4.867   4.145  17.744  0.6827  0.5742 -0.0738
 4406TIP3    H237414   5.010   4.097  17.760  0.1805 -0.5018  1.4095
 4407TIP3   OH237415   2.367   3.711  17.050  0.0081  0.0472  0.4180
 4407TIP3    H137416   2.387   3.617  17.050  0.4879  0.1257 -0.7867
 4407TIP3    H237417   2.430   3.749  17.112  0.8991 -0.2483 -0.2750
 4408TIP3   OH237418   1.702   1.050  18.003 -0.3779  0.4000  0.0994
 4408TIP3    H137419   1.644   0.973  18.001  0.0741  0.0646 -0.6309
 4408TIP3    H237420   1.652   1.118  17.957 -0.1097  0.0367 -0.7585
 4409TIP3   OH237421   5.893   5.768  17.683  0.2331 -0.2732 -0.6583
 4409TIP3    H137422   5.951   5.835  17.646  0.1062  0.0284 -0.3135
 4409TIP3    H237423   5.841   5.815  17.748  0.6902 -0.8745  0.1510
 4410TIP3   OH237424   3.122   4.032  14.778  0.0145  0.4465 -0.2737
 4410TIP3    H137425   3.174   4.111  14.789  1.0272 -0.0745 -1.0709
 4410TIP3    H237426   3.177   3.962  14.814 -1.5699  0.2868  1.9909
 4411TIP3   OH237427   3.321   6.244  17.452 -0.1870 -0.0106 -0.4518
 4411TIP3    H137428   3.254   6.290  17.401 -1.6437 -0.7433  0.7350
 4411TIP3    H237429   3.400   6.248  17.397 -0.8677  1.8903 -1.3791
 4412TIP3   OH237430   6.503   2.011  15.548 -0.3750  0.0086  0.0316
 4412TIP3    H137431   6.441   1.939  15.534  0.8189 -0.9451 -0.5597
 4412TIP3    H237432   6.555   1.984  15.624  1.4004 -0.7662 -1.3707
 4413TIP3   OH237433   1.880   5.150  15.399  0.1194 -0.3218 -0.2179
 4413TIP3    H137434   1.829   5.072  15.421 -0.6546 -0.0156 -0.8645
 4413TIP3    H237435   1.854   5.171  15.309  0.7003  0.3869 -0.2322
 4414TIP3   OH237436   0.582   3.064  17.530 -0.1082  0.4552 -0.2152
 4414TIP3    H137437   0.610   3.145  17.571  0.3319  0.1315  0.1290
 4414TIP3    H237438   0.488   3.076  17.514 -0.7238 -0.0704  2.5158
 4415TIP3   OH237439   4.417   1.530  16.305  0.2964 -0.1986 -0.1996
 4415TIP3    H137440   4.425   1.572  16.391 -0.5650  1.0584 -0.7127
 4415TIP3    H237441   4.489   1.467  16.302  0.1106 -0.5500  1.5998
 4416TIP3   OH237442   0.272   2.302  16.076  0.1671 -0.0551  0.5331
 4416TIP3    H137443   0.263   2.356  16.155  1.2501  2.6733 -1.0506
 4416TIP3    H237444   0.207   2.337  16.015  0.3426 -1.1212 -0.2907
 4417TIP3   OH237445   3.280   2.872  16.321 -0.7600  0.4415  0.0359
 4417TIP3    H137446   3.298   2.828  16.404  1.5661  0.1958 -0.5245
 4417TIP3    H237447   3.269   2.801  16.258  0.9445  0.5738 -0.4746
 4418TIP3   OH237448   5.546   6.334  16.230 -0.0693 -0.0577  0.2738
 4418TIP3    H137449   5.550   6.339  16.326 -1.0278 -1.2805  0.4055
 4418TIP3    H237450   5.518   6.421  16.203 -1.8326 -0.2511  1.2871
 4419TIP3   OH237451   5.340   6.209  17.352  0.5082 -0.5002 -0.1326
 4419TIP3    H137452   5.370   6.240  17.437 -0.7918 -0.7209  0.4291
 4419TIP3    H237453   5.391   6.130  17.336  0.5550 -0.6267  0.5989
 4420TIP3   OH237454   5.367   5.548  17.306 -0.5039  0.3355 -0.4296
 4420TIP3    H137455   5.420   5.623  17.333 -1.6245  1.1858 -0.5053
 4420TIP3    H237456   5.283   5.586  17.281 -1.4471 -1.0514  0.4787
 4421TIP3   OH237457   5.246   3.067  17.157  0.4604  0.4235 -0.1096
 4421TIP3    H137458   5.297   2.987  17.141  0.1650 -0.2821  2.1108
 4421TIP3    H237459   5.224   3.063  17.250 -4.4595  0.1896 -1.0319
 4422TIP3   OH237460   1.805   1.258  18.197  0.4081  0.2513 -0.1522
 4422TIP3    H137461   1.727   1.224  18.154  1.2447  0.2453 -1.7444
 4422TIP3    H237462   1.842   1.182  18.242  0.0516  0.0118 -0.2554
 4423TIP3   OH237463   4.339   1.297  17.936  0.1980  0.7539 -0.6631
 4423TIP3    H137464   4.246   1.280  17.919  0.3691  0.9523 -1.9311
 4423TIP3    H237465   4.378   1.210  17.947 -0.0097  0.6355 -0.8708
 4424TIP3   OH237466   0.296   3.346  15.260 -0.2982  0.3175  0.6930
 4424TIP3    H137467   0.279   3.284  15.189  0.4285  0.2219  0.6033
 4424TIP3    H237468   0.389   3.339  15.277 -0.5206  0.1259  1.8707
 4425TIP3   OH237469   5.287   0.127  17.820  0.3715  0.2402 -0.0563
 4425TIP3    H137470   5.228   0.172  17.880 -0.5065  0.8148 -1.3034
 4425TIP3    H237471   5.343   0.074  17.877 -0.4997  0.6615  1.2471
 4426TIP3   OH237472   6.153   0.573  16.843 -0.1324 -0.2154 -0.2390
 4426TIP3    H137473   6.152   0.654  16.894 -1.4242 -0.0522 -0.4867
 4426TIP3    H237474   6.070   0.574  16.795 -0.4089 -1.9441  0.1468
 4427TIP3   OH237475   0.845   5.076  16.119 -0.6820  0.9871  0.0419
 4427TIP3    H137476   0.774   5.053  16.058  0.7892  1.1999 -1.8274
 4427TIP3    H237477   0.917   5.020  16.094  0.4197  2.0749  0.6787
 4428TIP3   OH237478   5.963   0.284  15.597  0.3052  0.3984 -0.1599
 4428TIP3    H137479   6.030   0.215  15.591 -1.0820 -1.1140  0.8561
 4428TIP3    H237480   5.943   0.305  15.506  0.9740 -0.3249 -0.4883
 4429TIP3   OH237481   1.992   2.172  16.585 -0.3960  0.3538  0.2029
 4429TIP3    H137482   2.040   2.110  16.639  0.6152  0.4489 -0.5614
 4429TIP3    H237483   1.924   2.206  16.643 -0.1070 -0.4451  1.0404
 4430TIP3   OH237484   5.183   4.205  17.763  0.1360 -0.0597  0.2452
 4430TIP3    H137485   5.262   4.244  17.801 -0.3691 -0.3152  1.6366
 4430TIP3    H237486   5.158   4.265  17.692  0.4402  1.1422  1.1112
 4431TIP3   OH237487   4.808   0.493  17.656  0.0245 -0.2589 -0.2267
 4431TIP3    H137488   4.792   0.572  17.707  1.4907 -0.3936  0.5164
 4431TIP3    H237489   4.843   0.430  17.720  1.6121 -0.5371 -1.2938
 4432TIP3   OH237490   5.693   6.415  17.193  0.0893  0.5127 -0.5309
 4432TIP3    H137491   5.656   6.336  17.155  0.3857  0.4023 -0.5957
 4432TIP3    H237492   5.652   6.422  17.279  1.5728 -0.8633  0.3477
 4433TIP3   OH237493   3.568   6.463  18.119  0.4070 -0.8509  0.4823
 4433TIP3    H137494   3.596   6.550  18.148 -2.0155 -0.4238  1.7584
 4433TIP3    H237495   3.648   6.423  18.083  1.5413  1.9337 -0.3319
 4434TIP3   OH237496   6.097   0.265  14.480  0.0757 -0.8334  0.0125
 4434TIP3    H137497   6.111   0.199  14.412  0.8230 -0.0405 -0.6309
 4434TIP3    H237498   6.019   0.312  14.452  0.8438  0.0331 -0.7871
 4435TIP3   OH237499   3.938   6.363  15.456  0.3730 -0.4602 -0.3681
 4435TIP3    H137500   4.016   6.419  15.451 -0.3701  0.4969 -1.9049
 4435TIP3    H237501   3.922   6.354  15.550  2.2246 -0.5459 -0.0088
 4436TIP3   OH237502   2.822   3.249  16.762  0.3118 -0.2620  0.0304
 4436TIP3    H137503   2.877   3.248  16.684  1.5415 -0.0130  0.8687
 4436TIP3    H237504   2.864   3.311  16.821  0.2386 -1.5223  1.4757
 4437TIP3   OH237505   6.238   5.113  17.522 -0.1874 -0.4537  0.2221
 4437TIP3    H137506   6.208   5.156  17.442  0.7152  0.9222  0.5797
 4437TIP3    H237507   6.160   5.107  17.577 -1.4470 -3.6959 -1.6090
 4438TIP3   OH237508   2.524   5.836  18.029  0.4583  0.5351 -0.0402
 4438TIP3    H137509   2.449   5.821  18.086 -0.1667 -0.2336 -1.0188
 4438TIP3    H237510   2.524   5.931  18.015 -0.7787  0.4823 -0.5800
 4439TIP3   OH237511   1.396   4.514  17.387 -0.2240 -0.2808  0.1854
 4439TIP3    H137512   1.345   4.439  17.356 -0.2748 -0.0487 -0.2941
 4439TIP3    H237513   1.486   4.481  17.394 -0.4944 -0.8116  1.4427
 4440TIP3   OH237514   2.069   6.006  17.415 -0.0081 -0.5187  0.5859
 4440TIP3    H137515   2.016   6.073  17.458  0.5513  0.3305 -0.0192
 4440TIP3    H237516   2.119   5.966  17.485  0.2505  0.2528  0.8534
 4441TIP3   OH237517   1.110   3.330  17.035 -0.2478 -0.4301  0.1761
 4441TIP3    H137518   1.135   3.263  17.098  2.0687  1.4098  1.3563
 4441TIP3    H237519   1.037   3.377  17.076  0.1024 -0.3481  0.7053
 4442TIP3   OH237520   6.341   4.065  15.984  0.2042 -0.8033 -0.2981
 4442TIP3    H137521   6.249   4.046  16.003  0.5502 -0.7896  1.4692
 4442TIP3    H237522   6.347   4.161  15.988  0.2275 -0.7817 -0.7801
 4443TIP3   OH237523   2.030   4.913  17.408 -0.0683  0.1836 -0.3666
 4443TIP3    H137524   2.090   4.980  17.443  0.0780 -0.1189 -0.0276
 4443TIP3    H237525   1.954   4.917  17.466  1.0002 -1.7100  1.3241
 4444TIP3   OH237526   4.042   2.578  16.685  0.1055 -0.0023 -0.2219
 4444TIP3    H137527   4.052   2.578  16.590  0.9963  1.1088 -0.1545
 4444TIP3    H237528   3.955   2.542  16.700 -0.4860  0.8072 -1.5180
 4445TIP3   OH237529   1.750   3.880  16.199 -0.2909 -0.0447  0.1607
 4445TIP3    H137530   1.790   3.825  16.266  0.4831  2.0172  1.4924
 4445TIP3    H237531   1.818   3.889  16.132  0.3393  0.8929  0.9087
 4446TIP3   OH237532   6.326   1.308  17.515 -0.0282 -0.7486 -0.0374
 4446TIP3    H137533   6.326   1.280  17.423  1.5298  0.2905 -0.3959
 4446TIP3    H237534   6.356   1.231  17.563  2.8133 -0.2895 -0.8612
 4447TIP3   OH237535   3.903   4.683  16.659  0.7505 -0.0455  1.0684
 4447TIP3    H137536   3.854   4.678  16.577  0.7154  0.1350  1.0783
 4447TIP3    H237537   3.961   4.758  16.648  3.2930 -2.0418 -0.1798
 4448TIP3   OH237538   0.842   6.498  15.951  0.2336 -0.0302  0.0260
 4448TIP3    H137539   0.760   6.471  15.992  0.2078 -1.5329 -0.9121
 4448TIP3    H237540   0.901   6.516  16.025  0.3516 -3.1578  0.8390
 4449TIP3   OH237541   5.425   4.400  16.093 -0.8805 -0.1113 -0.2732
 4449TIP3    H137542   5.465   4.397  16.180 -0.9749 -0.9909 -0.2450
 4449TIP3    H237543   5.360   4.470  16.098  0.5901  1.3047 -0.3019
 4450TIP3   OH237544   5.285   5.602  16.132 -0.1500  0.0818  0.2039
 4450TIP3    H137545   5.292   5.627  16.224  0.9007  2.4263 -0.4302
 4450TIP3    H237546   5.333   5.670  16.085  1.7500 -2.5153 -1.9151
 4451TIP3   OH237547   6.315   6.426  17.398  0.0937 -0.3258  0.1280
 4451TIP3    H137548   6.398   6.472  17.390 -0.1427  0.4672  1.8574
 4451TIP3    H237549   6.250   6.495  17.414 -0.7671 -1.0027 -0.3315
 4452TIP3   OH237550   6.044   5.206  17.694 -0.3654  0.0180 -0.0361
 4452TIP3    H137551   5.978   5.181  17.630  1.9064  0.1281 -2.5789
 4452TIP3    H237552   6.047   5.302  17.690 -0.0772  0.0170  0.1150
 4453TIP3   OH237553   6.525   5.962  16.814  0.3406 -0.3738  0.0990
 4453TIP3    H137554   6.616   5.942  16.789  0.3981  1.2530 -1.1492
 4453TIP3    H237555   6.515   5.922  16.901  1.9797 -1.2918 -0.0904
 4454TIP3   OH237556   1.656   1.593  15.953 -0.4049 -0.2230  0.6905
 4454TIP3    H137557   1.732   1.607  15.896  0.1168 -1.1731  1.1227
 4454TIP3    H237558   1.603   1.528  15.908 -1.1848  0.7414  0.1965
 4455TIP3   OH237559   1.987   5.532  14.808  0.3894  0.1071  0.3369
 4455TIP3    H137560   2.023   5.599  14.866  4.1994 -0.7467 -0.7838
 4455TIP3    H237561   2.051   5.522  14.739 -0.7505 -3.5778 -0.4442
 4456TIP3   OH237562   0.756   3.439  15.556 -0.7241 -0.0784  0.6696
 4456TIP3    H137563   0.742   3.495  15.480  0.1903  0.6528  1.0132
 4456TIP3    H237564   0.816   3.489  15.612 -0.6915 -0.9698  1.4653
 4457TIP3   OH237565   5.476   4.840  16.311  0.2448  0.4441 -0.0522
 4457TIP3    H137566   5.489   4.766  16.371  0.2029  1.2396  0.9610
 4457TIP3    H237567   5.502   4.806  16.226  0.2790 -0.7274  0.4014
 4458TIP3   OH237568   3.976   3.179  18.079 -0.3699 -0.2876 -0.5679
 4458TIP3    H137569   3.960   3.201  18.171 -2.2608 -0.7858 -0.7257
 4458TIP3    H237570   4.032   3.101  18.083 -0.2794 -0.1939  0.1614
 4459TIP3   OH237571   6.707   1.037  15.726  0.7324  0.3499 -0.1373
 4459TIP3    H137572   6.695   1.126  15.693  0.2649  0.3519  0.0377
 4459TIP3    H237573   6.704   1.045  15.821 -1.7753 -0.1638 -0.1148
 4460TIP3   OH237574   4.532   5.561  15.926 -0.4388  0.6557 -0.2162
 4460TIP3    H137575   4.608   5.618  15.934 -1.4267  1.7982  1.6847
 4460TIP3    H237576   4.484   5.573  16.008 -2.6110 -0.1013 -1.3038
 4461TIP3   OH237577   6.422   5.175  16.581 -0.0691 -0.0581  0.2565
 4461TIP3    H137578   6.396   5.215  16.663  2.2204  2.0254  0.0981
 4461TIP3    H237579   6.469   5.096  16.606 -1.1844 -0.5556  0.8117
 4462TIP3   OH237580   2.629   6.257  16.732 -0.2605 -0.3270 -0.2313
 4462TIP3    H137581   2.620   6.180  16.788  1.5118 -0.3092  0.1443
 4462TIP3    H237582   2.688   6.315  16.780 -0.6490  0.7615 -1.0332
 4463TIP3   OH237583   1.480   3.619  17.294 -0.1601  0.3871  0.3477
 4463TIP3    H137584   1.482   3.552  17.225  1.1730 -0.7617  1.4295
 4463TIP3    H237585   1.434   3.693  17.254  0.2845 -0.3408 -1.6636
 4464TIP3   OH237586   1.797   3.062  15.126 -0.3919 -0.1524 -0.3950
 4464TIP3    H137587   1.778   3.143  15.078  1.1524  0.3372 -0.2278
 4464TIP3    H237588   1.722   3.051  15.184 -0.9604  0.7713 -0.9283
 4465TIP3   OH237589   1.788   1.531  18.078 -0.3433 -0.0977 -0.6940
 4465TIP3    H137590   1.878   1.556  18.095 -0.1624 -1.1372 -0.0337
 4465TIP3    H237591   1.774   1.453  18.132 -0.8218 -1.5132 -2.7424
 4466TIP3   OH237592   1.756   1.843  16.688  0.5600  0.2862 -0.0016
 4466TIP3    H137593   1.727   1.935  16.690 -0.5414 -0.0679  0.9616
 4466TIP3    H237594   1.831   1.841  16.748  0.4351  0.5021  0.1648
 4467TIP3   OH237595   4.550   5.324  16.966  0.0358  0.8771 -0.1613
 4467TIP3    H137596   4.556   5.346  16.873  1.6252  0.6931 -0.1280
 4467TIP3    H237597   4.508   5.238  16.968 -0.5505  1.1445 -0.6641
 4468TIP3   OH237598   0.899   6.047  16.437 -0.3138 -0.0526  0.5213
 4468TIP3    H137599   0.845   5.992  16.495 -1.7310 -0.0395 -0.7275
 4468TIP3    H237600   0.845   6.060  16.359  1.9204 -0.8937 -1.2608
 4469TIP3   OH237601   1.130   0.225  14.939  0.2840  0.2728 -0.2007
 4469TIP3    H137602   1.085   0.305  14.912 -1.4936 -0.4954  0.3895
 4469TIP3    H237603   1.221   0.253  14.952 -0.0974  1.9782 -0.9270
 4470TIP3   OH237604   5.234   3.297  14.583 -0.6110 -0.4314 -0.2887
 4470TIP3    H137605   5.202   3.384  14.608 -1.2337 -0.2270 -1.7401
 4470TIP3    H237606   5.323   3.293  14.620  0.3679  1.7703 -2.1584
 4471TIP3   OH237607   0.124   4.636  16.154  0.5583  0.6884 -0.7657
 4471TIP3    H137608   0.074   4.569  16.200  1.3383 -0.2377 -1.2304
 4471TIP3    H237609   0.215   4.618  16.177  0.8981  0.6568 -2.0831
 4472TIP3   OH237610   6.706   5.497  17.412 -0.0249 -0.1938  0.4522
 4472TIP3    H137611   6.713   5.403  17.430  1.1782  0.0078  1.1373
 4472TIP3    H237612   6.638   5.504  17.345 -0.4205 -1.5137  0.6936
 4473TIP3   OH237613   1.402   1.048  17.421 -0.3236  0.0086 -0.2024
 4473TIP3    H137614   1.382   1.138  17.396  0.1420  0.0754 -0.3542
 4473TIP3    H237615   1.439   1.055  17.509 -0.8358 -0.0990  0.0243
 4474TIP3   OH237616   2.805   2.271  16.792  0.4181 -0.1850  0.0124
 4474TIP3    H137617   2.776   2.316  16.713  0.9695  0.5533  0.2153
 4474TIP3    H237618   2.803   2.338  16.860 -1.1995 -1.1031  0.9131
 4475TIP3   OH237619   6.683   6.422  16.548 -0.0279  0.6206 -0.0129
 4475TIP3    H137620   6.713   6.506  16.515  1.3551 -0.1133 -0.7178
 4475TIP3    H237621   6.763   6.369  16.557 -0.7283 -0.2379  1.5448
 4476TIP3   OH237622   5.472   1.076  17.378  0.5023  0.5464  0.4348
 4476TIP3    H137623   5.423   1.081  17.296 -0.1609  1.1622  0.8627
 4476TIP3    H237624   5.411   1.035  17.440  0.5762  1.1724  0.9278
 4477TIP3   OH237625   6.437   6.210  17.602 -0.1758  0.4999 -0.2525
 4477TIP3    H137626   6.426   6.143  17.534 -0.0526 -0.9700  1.1093
 4477TIP3    H237627   6.349   6.223  17.637  0.0514 -0.2326  0.6237
 4478TIP3   OH237628   2.690   0.307  16.316  0.1684  0.7378  0.3252
 4478TIP3    H137629   2.716   0.386  16.269 -1.4225  0.5145 -1.0033
 4478TIP3    H237630   2.595   0.305  16.309  0.1579 -1.1342  0.6117
 4479TIP3   OH237631   1.191   3.815  16.150  0.5829  0.5888 -0.5419
 4479TIP3    H137632   1.179   3.898  16.102 -0.0331  2.6290  2.8082
 4479TIP3    H237633   1.264   3.831  16.209 -1.0651 -0.3012  1.9094
 4480TIP3   OH237634   3.097   3.986  15.459  0.1114  0.1253 -0.1008
 4480TIP3    H137635   3.157   3.936  15.404  1.6037  1.1752  0.5252
 4480TIP3    H237636   3.031   4.020  15.397 -0.5028 -1.9128 -0.6346
 4481TIP3   OH237637   2.781   3.005  16.939 -0.6873 -0.2897  0.0667
 4481TIP3    H137638   2.784   3.023  17.033 -2.1715 -1.9636  0.4979
 4481TIP3    H237639   2.793   3.091  16.898 -0.9495  0.6276  1.8064
 4482TIP3   OH237640   5.206   6.414  16.237 -0.1890  0.4327 -0.2171
 4482TIP3    H137641   5.152   6.361  16.178  1.2804 -0.0332 -1.1956
 4482TIP3    H237642   5.266   6.461  16.179  2.2261 -1.0481  0.8997
 4483TIP3   OH237643   4.574   4.419  17.430  0.0189  0.0135 -0.8284
 4483TIP3    H137644   4.524   4.338  17.420 -1.4321  0.9186 -1.2457
 4483TIP3    H237645   4.553   4.449  17.518  1.1187 -0.4007 -0.4053
 4484TIP3   OH237646   6.270   3.446  16.338 -0.7513 -0.6690  0.3744
 4484TIP3    H137647   6.269   3.400  16.254 -2.1092 -0.4995  0.2731
 4484TIP3    H237648   6.226   3.530  16.321  0.7593  0.2567  0.7991
 4485TIP3   OH237649   6.745   3.445  17.480  0.0375  0.5854 -0.3554
 4485TIP3    H137650   6.774   3.355  17.493  0.5367  0.6288 -1.1040
 4485TIP3    H237651   6.789   3.495  17.549  0.9217  0.4756 -0.8222
 4486TIP3   OH237652   1.873   5.610  15.408 -0.0576  0.3423  0.1812
 4486TIP3    H137653   1.964   5.616  15.434  0.4615  0.8863 -1.6219
 4486TIP3    H237654   1.834   5.692  15.439 -0.0842 -0.1154  1.4036
 4487TIP3   OH237655   6.222   1.911  15.908 -0.0937 -0.3098  0.1483
 4487TIP3    H137656   6.181   1.900  15.993  1.3294  0.6907  0.9949
 4487TIP3    H237657   6.163   1.970  15.860 -1.2177 -1.3778  0.1772
 4488TIP3   OH237658   3.927   4.833  18.032 -0.0912  0.1525 -0.1922
 4488TIP3    H137659   3.902   4.919  18.066  0.1630 -0.1227  0.7297
 4488TIP3    H237660   4.022   4.828  18.047  0.2940  0.5689 -2.2388
 4489TIP3   OH237661   5.869   4.551  17.425 -0.3297 -0.5190  0.3762
 4489TIP3    H137662   5.922   4.488  17.473  1.5771  1.4152  0.9973
 4489TIP3    H237663   5.779   4.527  17.443  0.3218 -2.9619  0.6434
 4490TIP3   OH237664   6.704   3.016  15.152 -0.4541 -0.4244 -0.2545
 4490TIP3    H137665   6.705   3.102  15.194  0.9099 -0.7547  0.4322
 4490TIP3    H237666   6.612   3.003  15.128 -1.1692  0.1379  1.8947
 4491TIP3   OH237667   3.787   2.327  17.525 -0.7454  0.4041 -0.2041
 4491TIP3    H137668   3.764   2.382  17.600 -1.5049  2.1420 -1.6466
 4491TIP3    H237669   3.705   2.285  17.500 -0.6055  0.2326 -0.3768
 4492TIP3   OH237670   4.972   3.727  15.102  0.4464  0.9547  0.1368
 4492TIP3    H137671   4.879   3.745  15.115  0.4568  1.2254 -0.1658
 4492TIP3    H237672   5.012   3.748  15.187  0.1665  0.3731  0.4186
 4493TIP3   OH237673   1.550   5.775  17.491  0.3403  0.0210  0.3430
 4493TIP3    H137674   1.616   5.843  17.502  2.9769 -2.2511 -0.3955
 4493TIP3    H237675   1.541   5.735  17.578  2.6581 -1.8758 -0.1773
 4494TIP3   OH237676   0.427   2.833  16.631 -0.3846 -0.4227  0.5172
 4494TIP3    H137677   0.376   2.908  16.599 -0.8813 -0.0337  2.1454
 4494TIP3    H237678   0.518   2.861  16.625 -0.2573 -1.0874 -2.3428
 4495TIP3   OH237679   2.242   5.478  15.116  0.0194  0.0782 -0.2263
 4495TIP3    H137680   2.220   5.404  15.059 -0.1176 -0.0597  0.0029
 4495TIP3    H237681   2.196   5.459  15.198  1.8102 -0.7378  0.6322
 4496TIP3   OH237682   6.734   0.073  17.574  0.3958 -0.0533 -0.2440
 4496TIP3    H137683   6.674   0.105  17.641 -0.1279 -1.2852 -0.0997
 4496TIP3    H237684   6.738   0.144  17.509 -0.5630  0.3857  0.1607
 4497TIP3   OH237685   0.875   1.932  14.083  0.1913  0.4078 -0.3667
 4497TIP3    H137686   0.902   1.886  14.163 -0.6076  2.5572  1.2305
 4497TIP3    H237687   0.957   1.958  14.042  0.6947  1.7157  1.3088
 4498TIP3   OH237688   0.915   6.263  15.220  0.7908 -0.2327 -0.0834
 4498TIP3    H137689   0.907   6.249  15.125  3.4445  1.7813 -0.7435
 4498TIP3    H237690   1.007   6.245  15.239  1.2560  2.9060  1.3224
 4499TIP3   OH237691   4.896   3.032  15.288 -0.0537  0.4294 -0.1441
 4499TIP3    H137692   4.869   3.123  15.279  0.4221  0.5192 -0.7497
 4499TIP3    H237693   4.991   3.033  15.273 -0.3988 -0.4975 -2.9012
 4500TIP3   OH237694   1.594   3.018  18.272 -0.2875 -0.6295 -0.5259
 4500TIP3    H137695   1.504   2.990  18.290  0.4039 -1.7235  1.6413
 4500TIP3    H237696   1.647   2.964  18.331  1.6488  1.1353 -0.5765
 4501TIP3   OH237697   4.210   2.472  16.006  0.0815 -0.4594  0.6155
 4501TIP3    H137698   4.146   2.407  15.978  0.2826 -0.7624  0.8520
 4501TIP3    H237699   4.263   2.427  16.072  1.0387 -0.4602 -0.1310
 4502TIP3   OH237700   2.459   0.828  14.850 -0.3392  0.1665  0.1817
 4502TIP3    H137701   2.475   0.918  14.820  2.2417  0.2081  1.3754
 4502TIP3    H237702   2.542   0.783  14.835 -0.8589 -1.3901  1.6411
 4503TIP3   OH237703   0.929   1.242  15.764 -0.0398  0.4243  0.4918
 4503TIP3    H137704   0.899   1.249  15.673  2.5488 -0.4315 -0.5351
 4503TIP3    H237705   0.987   1.318  15.775 -2.7727  2.4162  2.6134
 4504TIP3   OH237706   4.691   4.759  17.716 -0.0277  0.0819  0.1596
 4504TIP3    H137707   4.763   4.820  17.700  1.1144 -0.7580  1.7943
 4504TIP3    H237708   4.621   4.788  17.657  0.7631  2.4267  0.2723
 4505TIP3   OH237709   4.307   4.201  16.685 -0.4982  0.0585  0.0677
 4505TIP3    H137710   4.355   4.224  16.605 -1.8922 -1.6704 -1.3334
 4505TIP3    H237711   4.307   4.282  16.737  2.6218  0.5324 -0.4821
 4506TIP3   OH237712   1.320   5.034  15.246 -0.7462  0.7524  0.6032
 4506TIP3    H137713   1.382   5.080  15.301  0.3467 -0.1216  0.1371
 4506TIP3    H237714   1.333   5.070  15.158 -0.3306  0.0296  0.3571
 4507TIP3   OH237715   4.426   6.009  15.204  0.4082  0.4825  0.0058
 4507TIP3    H137716   4.398   5.924  15.240 -1.9334  0.6531 -1.1877
 4507TIP3    H237717   4.510   5.990  15.163  0.0750 -1.2316  0.0023
 4508TIP3   OH237718   3.438   3.536  17.705  0.0520 -0.3567 -0.2176
 4508TIP3    H137719   3.343   3.534  17.691  0.1956  1.8931 -2.0212
 4508TIP3    H237720   3.448   3.573  17.793 -0.7395  0.0955 -0.3098
 4509TIP3   OH237721   4.984   0.565  15.428  0.0441 -0.1157  0.4846
 4509TIP3    H137722   4.951   0.480  15.396  1.8357 -0.7459  0.1642
 4509TIP3    H237723   4.961   0.566  15.521 -2.2385  0.2147 -0.0280
 4510TIP3   OH237724   0.871   3.671  17.499 -0.6473 -0.7241 -0.3371
 4510TIP3    H137725   0.961   3.650  17.527  0.1007  2.4259 -0.0760
 4510TIP3    H237726   0.819   3.656  17.578 -0.1599 -1.3305 -0.1139
 4511TIP3   OH237727   0.251   3.285  14.933  0.6953  0.2458  0.5105
 4511TIP3    H137728   0.243   3.371  14.975 -1.5369  0.1312  0.4312
 4511TIP3    H237729   0.215   3.299  14.845  0.4823 -0.7434  0.4373
 4512TIP3   OH237730   3.039   1.060  15.714 -0.2954  0.7287 -0.6475
 4512TIP3    H137731   3.052   1.086  15.623  1.3810  0.3997 -0.5350
 4512TIP3    H237732   3.074   0.971  15.718 -0.2285  0.7917  0.3358
 4513TIP3   OH237733   0.168   3.213  14.301 -0.6704  0.1044  0.3937
 4513TIP3    H137734   0.228   3.140  14.288 -0.0379  0.6155  0.4253
 4513TIP3    H237735   0.140   3.237  14.213 -0.4989  0.1484  0.3523
 4514TIP3   OH237736   3.500   0.887  18.036 -0.2675 -0.0739 -0.2205
 4514TIP3    H137737   3.420   0.886  17.983  0.1835  0.3725 -0.9240
 4514TIP3    H237738   3.512   0.979  18.059 -0.9074 -0.3429  1.3883
 4515TIP3   OH237739   1.935   1.829  16.073  0.1514  1.0040 -0.1897
 4515TIP3    H137740   2.009   1.860  16.125  0.7266  0.5366 -0.7126
 4515TIP3    H237741   1.872   1.797  16.138  0.5575  1.0733  0.2457
 4516TIP3   OH237742   5.016   0.989  14.227  0.1296  0.4598 -0.2970
 4516TIP3    H137743   4.947   0.997  14.293  2.1706 -0.8151  2.1599
 4516TIP3    H237744   5.078   1.060  14.249 -0.1856  1.4356 -2.3024
 4517TIP3   OH237745   2.681   1.883  14.544  0.0178 -0.2265 -0.2379
 4517TIP3    H137746   2.669   1.788  14.549  0.3669 -0.2540  0.1265
 4517TIP3    H237747   2.618   1.911  14.478 -1.1194 -0.5156  0.6878
 4518TIP3   OH237748   6.606   5.570  14.387 -0.2556  0.4570  0.1647
 4518TIP3    H137749   6.511   5.582  14.385 -0.0505  2.4775 -1.5974
 4518TIP3    H237750   6.630   5.553  14.296  1.1213  0.5574  0.4849
 4519TIP3   OH237751   6.711   0.571  17.176  0.2196  0.4201  0.2018
 4519TIP3    H137752   6.645   0.624  17.220  0.5710  0.6514  0.4598
 4519TIP3    H237753   6.738   0.506  17.242 -1.2301 -1.0279 -0.5546
 4520TIP3   OH237754   0.834   1.151  16.468 -0.5241  0.5240 -0.1645
 4520TIP3    H137755   0.774   1.079  16.447  1.2437 -1.3638  0.8840
 4520TIP3    H237756   0.901   1.111  16.523  2.2762  2.2444 -2.0404
 4521TIP3   OH237757   2.381   2.769  17.393 -0.6829 -0.2572 -0.6936
 4521TIP3    H137758   2.366   2.849  17.444 -0.7901 -0.1977 -0.8171
 4521TIP3    H237759   2.320   2.776  17.320 -1.3481 -0.8795 -0.2203
 4522TIP3   OH237760   0.273   1.908  14.537  0.1216  0.0128 -0.0435
 4522TIP3    H137761   0.311   1.932  14.621  1.1192 -0.3689 -0.3781
 4522TIP3    H237762   0.334   1.943  14.472 -0.7529  0.5041 -0.6194
 4523TIP3   OH237763   0.580   1.604  17.642  0.3244  0.1554 -0.6415
 4523TIP3    H137764   0.572   1.693  17.607 -1.5516  0.6476  0.8405
 4523TIP3    H237765   0.608   1.617  17.732  2.1735 -0.9214 -1.0253
 4524TIP3   OH237766   0.770   2.740  16.375  0.0714  0.5901 -0.5729
 4524TIP3    H137767   0.700   2.783  16.326 -0.4375 -1.0998 -1.4060
 4524TIP3    H237768   0.751   2.759  16.467 -0.7980  1.1506 -0.8595
 4525TIP3   OH237769   4.490   1.714  15.760  0.3137 -0.4150 -0.1043
 4525TIP3    H137770   4.484   1.660  15.681 -1.1450 -0.1480 -0.2151
 4525TIP3    H237771   4.582   1.738  15.767  0.8119 -2.0906 -0.6040
 4526TIP3   OH237772   6.657   1.707  14.292  0.4434 -0.2748 -0.4414
 4526TIP3    H137773   6.730   1.651  14.318 -0.4361 -1.6368 -0.7865
 4526TIP3    H237774   6.581   1.668  14.336  0.1368  2.0965  1.2962
 4527TIP3   OH237775   0.185   2.981  17.190  0.5383  0.5039  0.3132
 4527TIP3    H137776   0.280   2.973  17.203  0.4333 -0.0510  0.7737
 4527TIP3    H237777   0.158   2.895  17.159  0.2267  0.7606 -0.1483
 4528TIP3   OH237778   4.994   1.282  14.778 -0.1437  0.4931 -0.2769
 4528TIP3    H137779   5.084   1.297  14.808  0.2885 -0.6690 -0.9031
 4528TIP3    H237780   5.001   1.280  14.682 -0.8111  0.2620 -0.3262
 4529TIP3   OH237781   6.588   2.921  17.006  0.3135 -0.7541 -0.6542
 4529TIP3    H137782   6.600   2.830  16.979 -1.7419 -0.7755 -1.6725
 4529TIP3    H237783   6.537   2.961  16.936 -2.5547  0.0285  1.6761
 4530TIP3   OH237784   6.296   4.328  15.977 -0.2043 -0.2095  0.2060
 4530TIP3    H137785   6.344   4.407  15.950  1.1911 -0.3760  2.0091
 4530TIP3    H237786   6.204   4.352  15.968  0.1413  0.3849 -2.6381
 4531TIP3   OH237787   6.055   2.985  14.781  0.1208  0.4597 -0.2800
 4531TIP3    H137788   6.026   2.973  14.872  0.6776 -0.9167 -0.2636
 4531TIP3    H237789   6.151   2.984  14.787  0.1844  2.1913 -0.6748
 4532TIP3   OH237790   5.173   0.849  15.234 -0.0218  0.3700  0.7139
 4532TIP3    H137791   5.106   0.789  15.200  0.4925  1.0905 -1.7424
 4532TIP3    H237792   5.243   0.792  15.265 -0.1384 -0.3412 -0.2899
 4533TIP3   OH237793   5.870   3.001  17.079 -0.2391  0.4021  0.3994
 4533TIP3    H137794   5.844   2.909  17.079  0.9237  0.0526  1.0006
 4533TIP3    H237795   5.951   3.003  17.129  0.3156  1.6010 -0.5042
 4534TIP3   OH237796   0.031   3.462  16.077  0.1610 -0.4039 -0.4352
 4534TIP3    H137797  -0.030   3.392  16.102  0.0819 -0.6671 -1.3534
 4534TIP3    H237798   0.032   3.521  16.153 -0.8954 -0.6259 -0.2373
 4535TIP3   OH237799   3.132   6.510  17.521  0.0236  0.8816 -0.1440
 4535TIP3    H137800   3.119   6.471  17.434  2.2690  0.5046 -0.3534
 4535TIP3    H237801   3.106   6.441  17.582 -3.8146  1.8924 -0.3557
 4536TIP3   OH237802   5.390   6.702  15.605  0.2618  0.5000 -0.0748
 4536TIP3    H137803   5.396   6.621  15.553  0.1296 -0.3642  1.2171
 4536TIP3    H237804   5.481   6.733  15.611  0.2427  0.7862 -1.0646
 4537TIP3   OH237805   4.512   5.831  15.776  0.0779  0.4562 -0.2154
 4537TIP3    H137806   4.504   5.867  15.688 -1.9151  1.6094  0.3783
 4537TIP3    H237807   4.528   5.738  15.763 -0.5926  0.5428 -1.8002
 4538TIP3   OH237808   3.763   4.154  17.480 -0.0616  0.0234  0.5208
 4538TIP3    H137809   3.786   4.230  17.533 -1.5880 -0.2235  1.6035
 4538TIP3    H237810   3.783   4.079  17.536  4.5102 -0.7208 -1.6486
 4539TIP3   OH237811   5.376   5.102  15.657  0.4989 -0.4100 -0.3915
 4539TIP3    H137812   5.329   5.162  15.599  2.0354  1.0525 -0.2218
 4539TIP3    H237813   5.468   5.120  15.640  0.9980 -1.2587  1.2001
 4540TIP3   OH237814   6.532   4.118  16.503  0.3801 -0.3759  0.1283
 4540TIP3    H137815   6.463   4.184  16.495  1.6379  0.9830  0.0008
 4540TIP3    H237816   6.489   4.035  16.482 -1.1517  0.4483 -0.1336
 4541TIP3   OH237817   3.077   2.561  17.080 -0.0500  0.2137  0.0866
 4541TIP3    H137818   3.052   2.583  17.170  0.9173  0.6493  0.2606
 4541TIP3    H237819   3.143   2.492  17.089  0.8019  0.9611 -0.2258
 4542TIP3   OH237820   0.195   2.244  17.977  0.1829  0.4654  0.2297
 4542TIP3    H137821   0.247   2.164  17.984  0.1685  0.3892 -0.4467
 4542TIP3    H237822   0.260   2.314  17.975  0.1833  0.5018  1.1510
 4543TIP3   OH237823   3.884   6.298  17.282  0.2604  0.3928  0.3219
 4543TIP3    H137824   3.908   6.206  17.290 -0.5023  0.3224  2.0578
 4543TIP3    H237825   3.844   6.305  17.195 -2.8119 -1.6904  1.4175
 4544TIP3   OH237826   0.116   1.690  14.482 -0.1370  0.7696  0.0878
 4544TIP3    H137827   0.168   1.640  14.419 -0.1819  1.7558 -0.7561
 4544TIP3    H237828   0.164   1.772  14.493  0.9716 -0.1624  2.9272
 4545TIP3   OH237829   2.019   4.575  17.601  0.4350 -0.1990 -0.2853
 4545TIP3    H137830   2.056   4.560  17.688  2.0457  0.5051 -0.8016
 4545TIP3    H237831   1.938   4.622  17.617  1.0966  0.6287  0.8204
 4546TIP3   OH237832   4.107   0.159  16.971 -0.3132  0.0635 -0.0011
 4546TIP3    H137833   4.035   0.199  16.922 -0.9550 -1.4876 -0.4096
 4546TIP3    H237834   4.174   0.227  16.976 -0.8685  0.7865 -1.6569
 4547TIP3   OH237835   4.627   6.474  14.477 -0.3432  0.4334 -0.0282
 4547TIP3    H137836   4.636   6.428  14.394  0.0757  3.0262 -1.5310
 4547TIP3    H237837   4.626   6.567  14.453 -2.5499  1.2474  2.6535
 4548TIP3   OH237838   3.908   0.308  15.798  0.0712 -0.4703 -0.2721
 4548TIP3    H137839   3.823   0.323  15.757 -0.0494  0.6507  0.3372
 4548TIP3    H237840   3.936   0.222  15.765  0.6970  0.9397 -3.8753
 4549TIP3   OH237841   4.935   0.298  17.862 -0.1498 -0.1931 -0.5220
 4549TIP3    H137842   4.879   0.285  17.939 -0.4676 -0.6954 -0.8328
 4549TIP3    H237843   4.928   0.216  17.814  1.1043 -0.3791 -0.4079
 4550TIP3   OH237844   3.350   5.386  15.554 -0.4111  0.2304  0.5674
 4550TIP3    H137845   3.410   5.450  15.593  0.5102  0.1283 -0.6174
 4550TIP3    H237846   3.272   5.436  15.531 -0.0316  0.7542  0.4070
 4551TIP3   OH237847   4.719   1.865  16.019 -0.2052 -0.4313 -0.2876
 4551TIP3    H137848   4.655   1.926  16.057  1.1539  0.6850  0.2857
 4551TIP3    H237849   4.803   1.893  16.055  0.5708 -2.1267 -0.7065
 4552TIP3   OH237850   5.848   0.834  15.949 -0.2154 -0.4104  0.1676
 4552TIP3    H137851   5.772   0.831  15.891 -0.5426 -0.4386  0.5943
 4552TIP3    H237852   5.905   0.900  15.910 -0.8489  0.2388  0.3086
 4553TIP3   OH237853   6.538   4.848  17.752 -0.0034  0.5600  0.3504
 4553TIP3    H137854   6.487   4.813  17.826  0.7961 -0.3157  0.5049
 4553TIP3    H237855   6.628   4.819  17.769 -0.0434 -1.0072 -1.7381
 4554TIP3   OH237856   3.716   6.466  16.869  0.5017  0.5004 -0.1824
 4554TIP3    H137857   3.687   6.527  16.802 -0.3065 -0.0738 -0.3726
 4554TIP3    H237858   3.759   6.396  16.821  0.7569  0.5460 -0.0226
 4555TIP3   OH237859   5.554   0.185  17.721  0.2045 -0.3981 -0.3332
 4555TIP3    H137860   5.558   0.137  17.639 -1.1485 -1.4509  0.1789
 4555TIP3    H237861   5.478   0.149  17.767  0.1069  1.1106  0.7906
 4556TIP3   OH237862   4.442   1.286  15.488  0.2687  0.1589  0.5506
 4556TIP3    H137863   4.398   1.300  15.404  1.2991 -0.0322 -0.0367
 4556TIP3    H237864   4.529   1.254  15.464  0.6192  0.2304  1.6923
 4557TIP3   OH237865   2.188   0.909  17.856 -0.4576 -0.2260 -0.0757
 4557TIP3    H137866   2.144   0.905  17.771 -0.9444 -1.9934  0.2171
 4557TIP3    H237867   2.118   0.900  17.920 -0.0163  0.3115  0.4927
 4558TIP3   OH237868   1.240   4.611  17.607  0.8941 -0.0006 -0.0771
 4558TIP3    H137869   1.224   4.530  17.656  1.3545  0.2092  0.4248
 4558TIP3    H237870   1.302   4.586  17.539 -0.0128 -0.3716 -0.7896
 4559TIP3   OH237871   0.561   4.837  15.020 -0.2701  0.2676  0.6619
 4559TIP3    H137872   0.586   4.757  14.974  1.6816  1.4734 -0.5233
 4559TIP3    H237873   0.634   4.854  15.080 -0.7353  1.0702  1.0128
 4560TIP3   OH237874   1.240   2.481  17.882 -0.1450 -0.2785 -0.2939
 4560TIP3    H137875   1.215   2.388  17.888  0.6388 -0.5671 -1.1429
 4560TIP3    H237876   1.279   2.489  17.794 -1.3409  1.1383 -0.7370
 4561TIP3   OH237877   1.175   1.221  16.445  0.3677  0.9233 -0.1948
 4561TIP3    H137878   1.113   1.292  16.464 -1.3215 -0.1539 -1.4318
 4561TIP3    H237879   1.253   1.265  16.413 -0.4036  2.2607 -0.3143
 4562TIP3   OH237880   3.637   0.676  17.480 -0.0076  0.1347  0.1981
 4562TIP3    H137881   3.588   0.597  17.457 -0.4932  0.5822 -0.3245
 4562TIP3    H237882   3.676   0.656  17.565 -0.2009 -0.6303  0.1133
 4563TIP3   OH237883   1.337   0.169  17.949  0.3684  0.0582  0.3592
 4563TIP3    H137884   1.327   0.261  17.974  0.9438  0.9975 -2.4967
 4563TIP3    H237885   1.251   0.144  17.916  0.5422 -0.0247 -0.0370
 4564TIP3   OH237886   4.212   6.405  16.622  0.5407 -0.3008 -0.1987
 4564TIP3    H137887   4.272   6.402  16.697 -0.5528 -1.4944  0.6934
 4564TIP3    H237888   4.264   6.371  16.549  1.4021  0.1430  0.1878
 4565TIP3   OH237889   3.515   2.732  16.990 -0.0843  0.0903 -0.1412
 4565TIP3    H137890   3.522   2.827  16.999 -0.2365  0.4553 -2.9475
 4565TIP3    H237891   3.421   2.715  16.982 -0.2566 -0.6319  2.5090
 4566TIP3   OH237892   5.396   1.917  15.537  0.0944  0.4499  0.2704
 4566TIP3    H137893   5.390   2.012  15.541  1.3900  0.4944  2.6125
 4566TIP3    H237894   5.375   1.887  15.626 -1.0008 -1.5366 -0.5744
 4567TIP3   OH237895   2.581   2.567  15.690 -0.2823 -0.5284 -0.3132
 4567TIP3    H137896   2.546   2.565  15.779 -0.7133 -2.4082 -0.4944
 4567TIP3    H237897   2.537   2.642  15.649 -2.1827 -1.2883  0.2385
 4568TIP3   OH237898   3.324   5.785  17.859 -0.1219  0.1178  0.1538
 4568TIP3    H137899   3.409   5.829  17.852 -1.1554  2.2186 -0.0007
 4568TIP3    H237900   3.277   5.810  17.780 -1.1841 -0.3209  0.6190
 4569TIP3   OH237901   0.813   4.201  15.944 -0.4436  0.3790  0.3934
 4569TIP3    H137902   0.785   4.179  15.855  1.3173 -0.6476  0.0503
 4569TIP3    H237903   0.742   4.171  15.999 -1.4214  0.7327 -0.6273
 4570TIP3   OH237904   1.233   4.563  14.782 -0.1066 -0.4317  0.5436
 4570TIP3    H137905   1.201   4.473  14.781 -0.4531 -0.3080 -0.5561
 4570TIP3    H237906   1.240   4.587  14.690  0.7416  0.4059  0.8113
 4571TIP3   OH237907   3.944   2.838  15.458 -0.1180 -0.0324 -0.5065
 4571TIP3    H137908   4.034   2.809  15.473 -0.4316 -0.9812 -0.3350
 4571TIP3    H237909   3.950   2.900  15.386  1.0426  2.2150  1.4128
 4572TIP3   OH237910   6.698   2.706  16.847  0.1537  0.7039 -0.0347
 4572TIP3    H137911   6.753   2.776  16.812  3.4218 -0.6329  2.0086
 4572TIP3    H237912   6.710   2.633  16.786 -1.3241  1.1216 -0.8603
 4573TIP3   OH237913   0.241   5.109  14.623  0.0528 -0.1465  0.0935
 4573TIP3    H137914   0.311   5.132  14.562  0.5243 -0.6004  0.4602
 4573TIP3    H237915   0.161   5.129  14.575  0.3728 -1.9080 -1.3000
 4574TIP3   OH237916   5.982   5.560  15.833  0.0190  0.0634  0.5127
 4574TIP3    H137917   5.965   5.553  15.739  0.1507  0.8543  0.4212
 4574TIP3    H237918   5.915   5.621  15.865  1.7884  2.2057  0.3826
 4575TIP3   OH237919   6.447   3.546  16.991 -0.1988 -0.0267 -0.2992
 4575TIP3    H137920   6.521   3.607  16.999 -0.6762  0.3864  1.0860
 4575TIP3    H237921   6.483   3.462  17.019 -0.2792  0.2058  0.5294
 4576TIP3   OH237922   2.627   3.446  15.103  0.3818 -0.2970 -0.4184
 4576TIP3    H137923   2.625   3.353  15.080  0.4808  0.0386 -1.8257
 4576TIP3    H237924   2.541   3.479  15.076 -1.0924 -0.6357  3.1996
 4577TIP3   OH237925   6.118   0.589  15.369 -0.3707  0.1616 -0.1222
 4577TIP3    H137926   6.066   0.627  15.298  0.5353  0.0343 -0.8850
 4577TIP3    H237927   6.144   0.503  15.335  0.9919  0.5463 -0.1053
 4578TIP3   OH237928   5.771   2.072  16.365 -0.1283  0.0076  0.4422
 4578TIP3    H137929   5.773   2.167  16.375  0.0312  0.1824 -1.0568
 4578TIP3    H237930   5.715   2.056  16.289  1.9584 -0.9177 -1.0010
 4579TIP3   OH237931   3.008   1.061  17.177 -0.0680 -0.2652 -0.1383
 4579TIP3    H137932   3.103   1.069  17.186 -0.2702  0.5348  1.8208
 4579TIP3    H237933   2.990   0.968  17.191  0.5432 -0.7771 -2.3972
 4580TIP3   OH237934   3.516   3.036  16.311 -0.0769  0.4172 -0.2837
 4580TIP3    H137935   3.543   3.016  16.401  0.4866  2.4268  0.0512
 4580TIP3    H237936   3.444   2.976  16.293 -0.0380 -0.1860  1.4315
 4581TIP3   OH237937   0.644   4.290  17.720  0.2957  0.2768 -0.0320
 4581TIP3    H137938   0.722   4.234  17.720  0.9375  1.1215 -1.3135
 4581TIP3    H237939   0.570   4.228  17.718  0.9327 -0.5263  0.7666
 4582TIP3   OH237940   1.086   5.785  16.722 -0.4893  0.0249 -0.1579
 4582TIP3    H137941   1.134   5.706  16.747  0.0464  0.7769  1.4113
 4582TIP3    H237942   1.026   5.801  16.795 -0.2017  1.3298 -0.1661
 4583TIP3   OH237943   2.897   4.184  17.379  0.0642 -0.5384  0.1360
 4583TIP3    H137944   2.886   4.091  17.398 -0.1066 -0.4320  0.5696
 4583TIP3    H237945   2.992   4.194  17.365  0.3516 -0.4630  1.8892
 4584TIP3   OH237946   2.492   0.278  16.858 -0.0318  0.4284  0.6415
 4584TIP3    H137947   2.490   0.321  16.944 -0.8669  0.3015  0.6856
 4584TIP3    H237948   2.405   0.292  16.822 -0.2316 -1.0119  0.5454
 4585TIP3   OH237949   6.244   6.306  15.801 -0.5005 -0.0049  0.0103
 4585TIP3    H137950   6.162   6.328  15.756 -1.0601  0.5290  1.2523
 4585TIP3    H237951   6.226   6.222  15.842  0.1810 -0.7384 -1.1351
 4586TIP3   OH237952   5.940   1.840  17.626  0.5810  0.2772 -0.4578
 4586TIP3    H137953   5.992   1.776  17.674  0.7636  1.0628  0.4237
 4586TIP3    H237954   6.004   1.886  17.571  0.6024  0.3561 -0.3664
 4587TIP3   OH237955   0.687   5.309  16.093 -0.7981 -0.3895  0.5453
 4587TIP3    H137956   0.632   5.277  16.165 -1.9027 -1.2467 -0.6502
 4587TIP3    H237957   0.770   5.262  16.104 -0.7101 -0.0264  1.6219
 4588TIP3   OH237958   0.197   1.963  17.941 -0.6707  0.2624 -0.2752
 4588TIP3    H137959   0.141   1.972  17.863  0.9995 -1.3349 -1.7723
 4588TIP3    H237960   0.157   1.892  17.991 -0.4163 -0.3865 -0.9714
 4589TIP3   OH237961   0.209   1.589  15.137  0.1346 -0.0169  0.1949
 4589TIP3    H137962   0.121   1.567  15.167 -0.3579  1.7597  0.1581
 4589TIP3    H237963   0.266   1.564  15.211 -0.4482 -0.6691  0.4348
 4590TIP3   OH237964   4.217   4.270  15.826 -0.8777 -0.4098 -0.0446
 4590TIP3    H137965   4.166   4.211  15.882 -0.0718  0.9119  2.1868
 4590TIP3    H237966   4.151   4.324  15.782 -1.5355 -1.6942 -0.6902
 4591TIP3   OH237967   5.864   2.678  18.046  0.2404  0.1809  0.4381
 4591TIP3    H137968   5.859   2.770  18.070  0.2513  0.2460  0.1926
 4591TIP3    H237969   5.936   2.673  17.983  0.3191 -0.0155  0.5390
 4592TIP3   OH237970   4.293   3.253  14.933  0.2766 -0.7081 -0.1752
 4592TIP3    H137971   4.264   3.233  14.844 -1.2350 -0.3928  0.2193
 4592TIP3    H237972   4.224   3.219  14.989 -1.0983  2.9613  0.6645
 4593TIP3   OH237973   2.443   1.644  15.987  0.4159 -0.2596  0.3562
 4593TIP3    H137974   2.398   1.608  16.062 -0.8478 -0.6003 -0.5287
 4593TIP3    H237975   2.379   1.702  15.945  1.2241  0.2534 -0.2281
 4594TIP3   OH237976   1.308   4.257  14.570 -0.4478 -0.2267 -0.3215
 4594TIP3    H137977   1.250   4.302  14.632  0.2055 -0.5566  0.5521
 4594TIP3    H237978   1.278   4.286  14.484 -0.9430  0.7746  0.1690
 4595TIP3   OH237979   2.393   4.740  17.766 -0.7330 -0.0529 -0.3005
 4595TIP3    H137980   2.437   4.812  17.811  0.0918 -1.7549  1.8086
 4595TIP3    H237981   2.454   4.712  17.698  0.5830 -1.0087  1.2107
 4596TIP3   OH237982   2.360   3.024  15.805  0.0850 -0.0746  0.3178
 4596TIP3    H137983   2.387   2.957  15.868  1.5074  1.1201  1.0306
 4596TIP3    H237984   2.376   2.984  15.720  0.0625 -0.9542  0.7109
 4597TIP3   OH237985   1.465   2.324  15.540 -0.0147  0.1756 -0.5538
 4597TIP3    H137986   1.458   2.310  15.634 -0.5239  0.4661 -0.5441
 4597TIP3    H237987   1.559   2.321  15.522  0.0854  0.1467 -0.0344
 4598TIP3   OH237988   6.045   1.795  16.310  0.1917  0.1585 -0.1953
 4598TIP3    H137989   5.990   1.722  16.286 -0.1584  0.9160 -1.8329
 4598TIP3    H237990   6.133   1.770  16.280  0.1676  0.2096 -0.3075
 4599TIP3   OH237991   5.350   6.646  17.277  0.0685 -0.0285 -0.0757
 4599TIP3    H137992   5.276   6.706  17.278  0.5870  0.6178  0.6730
 4599TIP3    H237993   5.313   6.563  17.248 -0.6076  0.7026 -1.4333
 4600TIP3   OH237994   2.582   5.373  16.770 -0.1043 -0.1669  0.0747
 4600TIP3    H137995   2.574   5.297  16.713  0.5071  0.1527 -0.4573
 4600TIP3    H237996   2.648   5.428  16.727  0.0831  0.2633  0.8899
 4601TIP3   OH237997   2.370   3.418  16.969 -0.0158  0.0349 -0.7691
 4601TIP3    H137998   2.452   3.424  16.921  0.3828  0.2303 -0.0737
 4601TIP3    H237999   2.342   3.327  16.958 -0.0580  0.1429 -1.5719
 4602TIP3   OH238000   4.321   1.179  17.591  0.1990  0.1014 -0.6703
 4602TIP3    H138001   4.313   1.132  17.674 -1.2199 -0.6330 -1.2099
 4602TIP3    H238002   4.401   1.144  17.552 -0.1288 -0.9124 -0.4627
 4603TIP3   OH238003   0.277   6.021  16.510  0.0582  0.0356 -0.8365
 4603TIP3    H138004   0.282   5.928  16.486  0.2746 -0.3511  0.5949
 4603TIP3    H238005   0.355   6.060  16.472  1.2316 -0.8782  0.5630
 4604TIP3   OH238006   0.538   6.291  17.307  0.4443 -0.4145  0.2507
 4604TIP3    H138007   0.496   6.315  17.389  1.1526  3.0746 -0.2602
 4604TIP3    H238008   0.490   6.213  17.278 -0.1273 -1.4862  3.6558
 4605TIP3   OH238009   1.788   4.167  14.768 -0.2903 -0.2895  0.1379
 4605TIP3    H138010   1.846   4.133  14.700 -1.7654 -3.0122  0.0823
 4605TIP3    H238011   1.703   4.175  14.725 -0.7118  0.2886  1.0628
 4606TIP3   OH238012   3.433   1.090  15.732 -0.2379  0.3151 -0.0698
 4606TIP3    H138013   3.389   1.116  15.651 -1.2941  0.2413  0.4519
 4606TIP3    H238014   3.361   1.071  15.793  0.5284  0.4805  0.9225
 4607TIP3   OH238015   3.142   5.698  16.812 -0.3972 -0.0874  0.1796
 4607TIP3    H138016   3.053   5.673  16.840 -0.7871 -0.3948 -1.2538
 4607TIP3    H238017   3.185   5.614  16.793 -0.5732  0.1455 -1.3431
 4608TIP3   OH238018   0.386   3.692  17.474 -0.6139  0.2509  0.3454
 4608TIP3    H138019   0.306   3.647  17.449 -1.5036  1.0306  1.6681
 4608TIP3    H238020   0.425   3.637  17.542 -0.7346  0.5414  0.6518
 4609TIP3   OH238021   0.234   0.885  16.853 -0.1527  0.0301 -0.2847
 4609TIP3    H138022   0.157   0.902  16.799 -1.1235 -1.6228  0.4839
 4609TIP3    H238023   0.209   0.811  16.908  2.2614 -1.0962 -0.5582
 4610TIP3   OH238024   2.710   2.158  16.028  0.4450  0.2591 -0.0603
 4610TIP3    H138025   2.630   2.140  16.077  0.5289 -1.5453 -0.5390
 4610TIP3    H238026   2.780   2.122  16.082  0.6153 -0.9596 -1.0498
 4611TIP3   OH238027   3.645   2.418  15.594 -0.1896  0.3544  0.0745
 4611TIP3    H138028   3.698   2.462  15.527  0.2016 -1.3207 -0.7794
 4611TIP3    H238029   3.567   2.473  15.602 -0.9793 -0.1106 -2.9129
 4612TIP3   OH238030   2.751   2.455  17.024 -0.2928 -0.1660 -0.1215
 4612TIP3    H138031   2.764   2.407  17.106 -1.4984 -0.1562  0.0871
 4612TIP3    H238032   2.764   2.547  17.048 -0.0139 -0.2129 -0.0845
 4613TIP3   OH238033   2.652   1.586  15.675 -0.6099  0.1559 -0.6457
 4613TIP3    H138034   2.641   1.675  15.642  1.4009  1.5195  1.9463
 4613TIP3    H238035   2.687   1.598  15.763 -2.5151 -3.2085  0.7532
 4614TIP3   OH238036   4.653   4.683  16.504 -0.5468  0.0089 -0.6689
 4614TIP3    H138037   4.699   4.767  16.492  0.5299 -0.1172  1.9495
 4614TIP3    H238038   4.721   4.617  16.495 -0.8511 -0.3944 -0.0714
 4615TIP3   OH238039   0.339   3.190  17.744  0.6051  0.2245  0.4014
 4615TIP3    H138040   0.313   3.281  17.761 -0.7811  0.2034 -1.3831
 4615TIP3    H238041   0.277   3.138  17.794 -0.4101  0.2317 -0.8324
 4616TIP3   OH238042   4.073   5.328  17.375 -0.5525 -0.4118  0.6921
 4616TIP3    H138043   4.100   5.257  17.317 -1.7676 -0.5716  0.2895
 4616TIP3    H238044   4.142   5.333  17.441 -0.1771 -1.6034  0.4137
 4617TIP3   OH238045   0.238   4.362  16.665  0.0590 -0.1906  0.4269
 4617TIP3    H138046   0.272   4.283  16.625 -2.3211  0.7413 -4.1367
 4617TIP3    H238047   0.148   4.340  16.690 -0.1819  0.6776  0.3723
 4618TIP3   OH238048   2.577   4.757  16.968 -0.9485 -0.1636 -0.2228
 4618TIP3    H138049   2.515   4.804  17.024  0.6793 -0.3154  1.8521
 4618TIP3    H238050   2.553   4.665  16.976 -0.8158 -0.1696  0.1309
 4619TIP3   OH238051   3.846   0.531  15.505  0.3929  0.6978  0.2451
 4619TIP3    H138052   3.804   0.466  15.449  0.9682  0.6827 -0.1705
 4619TIP3    H238053   3.936   0.537  15.473  1.9310 -2.0093  3.4343
 4620TIP3   OH238054   0.702   6.692  16.506  0.0986  0.2601  0.2278
 4620TIP3    H138055   0.631   6.756  16.513  1.4527  1.9438 -0.7262
 4620TIP3    H238056   0.676   6.621  16.566 -2.4829  0.6679 -0.2947
 4621TIP3   OH238057   1.416   0.106  16.998 -0.0086 -0.1164  0.0835
 4621TIP3    H138058   1.498   0.094  16.950 -1.1308 -1.5795 -1.5931
 4621TIP3    H238059   1.443   0.146  17.081  2.2737  0.3704 -0.7965
 4622TIP3   OH238060   5.557   5.376  16.270 -0.3103  0.1341  0.6106
 4622TIP3    H138061   5.646   5.356  16.301  0.7942  1.6560 -1.3323
 4622TIP3    H238062   5.542   5.314  16.199 -0.7126  0.0620  0.7552
 4623TIP3   OH238063   0.575   1.981  17.725 -0.2397 -0.1131  0.3650
 4623TIP3    H138064   0.648   2.021  17.679 -0.8239 -0.8687 -1.2923
 4623TIP3    H238065   0.551   1.905  17.672 -1.8222 -0.2409  1.1975
 4624TIP3   OH238066   5.349   0.002  14.148 -0.3088  0.8442 -0.4886
 4624TIP3    H138067   5.432   0.048  14.142 -0.4473  1.2493  0.4541
 4624TIP3    H238068   5.314   0.026  14.234 -1.0292  0.0594 -0.5419
 4625TIP3   OH238069   0.128   1.288  15.911 -0.1315 -0.3761  0.1188
 4625TIP3    H138070   0.055   1.243  15.955  0.7358 -3.1966 -1.1490
 4625TIP3    H238071   0.091   1.314  15.827 -0.0019 -0.7657 -0.0586
 4626TIP3   OH238072   2.770   4.082  15.959  0.1098  0.1718  0.2212
 4626TIP3    H138073   2.714   4.051  16.030 -1.7218  0.6749 -0.9467
 4626TIP3    H238074   2.794   4.171  15.984  0.4625 -0.0649  0.7509
 4627TIP3   OH238075   0.358   6.764  14.543 -0.3727 -0.0068 -0.1110
 4627TIP3    H138076   0.306   6.753  14.623 -0.9887  2.4077 -0.1077
 4627TIP3    H238077   0.297   6.746  14.472  0.0104 -1.5243 -0.0953
 4628TIP3   OH238078   6.730   5.252  17.531 -0.2892 -0.5433 -0.9575
 4628TIP3    H138079   6.653   5.205  17.564  0.3062 -1.3491 -0.6676
 4628TIP3    H238080   6.792   5.182  17.507  0.5266  0.0947 -0.7549
 4629TIP3   OH238081   1.814   4.843  15.238  0.3537  0.4864  0.3059
 4629TIP3    H138082   1.758   4.776  15.276  0.5884  0.0575 -0.0978
 4629TIP3    H238083   1.756   4.917  15.222 -0.1280  0.0030 -0.2267
 4630TIP3   OH238084   4.495   5.468  15.193 -0.7388  0.2643 -0.3315
 4630TIP3    H138085   4.400   5.470  15.183 -1.0040  0.1445  1.7546
 4630TIP3    H238086   4.524   5.553  15.161 -1.8455  1.3153  1.3148
 4631TIP3   OH238087   4.197   1.375  17.339  0.0482 -0.3061 -0.2397
 4631TIP3    H138088   4.252   1.299  17.317 -0.5374 -0.9016  0.3024
 4631TIP3    H238089   4.209   1.387  17.433  0.9628  0.9552 -0.4942
 4632TIP3   OH238090   5.332   5.325  16.417 -0.0597 -0.3870  0.4756
 4632TIP3    H138091   5.318   5.250  16.358 -0.7271 -0.1740  0.3621
 4632TIP3    H238092   5.403   5.375  16.376  0.5467 -1.0673  0.6662
 4633TIP3   OH238093   0.907   4.752  17.302 -0.1546 -0.2777 -0.0329
 4633TIP3    H138094   0.908   4.848  17.302 -0.2367 -0.2698 -1.0901
 4633TIP3    H238095   0.978   4.727  17.244 -0.1758 -0.8628  0.1905
 4634TIP3   OH238096   6.547   1.564  15.447 -0.3634  0.1260 -0.3483
 4634TIP3    H138097   6.517   1.476  15.471  2.3393 -0.9103 -0.5283
 4634TIP3    H238098   6.472   1.602  15.400 -1.3510 -2.3183 -0.9038
 4635TIP3   OH238099   0.215   3.771  16.230  0.0904  0.5164  0.0224
 4635TIP3    H138100   0.254   3.844  16.182  0.7885  0.6619  0.7859
 4635TIP3    H238101   0.121   3.783  16.218  0.1915  1.5560  0.1213
 4636TIP3   OH238102   4.640   0.201  15.158  0.1550  0.0669 -0.0153
 4636TIP3    H138103   4.688   0.133  15.206 -0.5279  0.1284  0.7722
 4636TIP3    H238104   4.562   0.218  15.211  1.0968  2.6382  0.6573
 4637TIP3   OH238105   6.094   6.150  15.276  0.1367  0.3512 -0.4972
 4637TIP3    H138106   6.168   6.133  15.334  1.8998 -1.0475 -2.9229
 4637TIP3    H238107   6.017   6.119  15.324  1.4165 -0.3125  1.2242
 4638TIP3   OH238108   1.131   5.263  15.720  0.3074 -0.4076 -0.6370
 4638TIP3    H138109   1.139   5.296  15.809 -2.0056 -1.8670  0.2021
 4638TIP3    H238110   1.064   5.319  15.679  1.6152  0.4897 -1.6189
 4639TIP3   OH238111   4.474   4.931  17.637 -0.2583  0.2538  0.1855
 4639TIP3    H138112   4.450   4.968  17.552 -2.2537  0.0994  0.6219
 4639TIP3    H238113   4.486   5.006  17.694  2.4505  0.4235 -0.4941
 4640TIP3   OH238114   3.840   1.694  14.464  0.0009 -0.2510  0.4712
 4640TIP3    H138115   3.811   1.618  14.515 -0.8592 -0.9134 -0.9212
 4640TIP3    H238116   3.788   1.767  14.497 -1.4830 -0.9201 -0.2463
 4641TIP3   OH238117   6.697   2.615  15.855  0.3060 -0.0177 -0.0005
 4641TIP3    H138118   6.651   2.695  15.880 -0.8161 -1.2496  2.1269
 4641TIP3    H238119   6.631   2.560  15.813  0.4170 -0.7796  0.7784
 4642TIP3   OH238120   2.293   6.696  17.546 -0.3627 -0.1524 -0.2584
 4642TIP3    H138121   2.303   6.671  17.454 -0.8713  0.4659 -0.4857
 4642TIP3    H238122   2.199   6.711  17.557 -0.3696 -0.6516  0.4777
 4643TIP3   OH238123   4.933   4.544  17.093 -0.0394 -0.3170  0.0656
 4643TIP3    H138124   4.920   4.556  17.187  0.4707 -0.8446  0.2159
 4643TIP3    H238125   4.928   4.449  17.080 -0.3292 -0.2307 -0.4761
 4644TIP3   OH238126   6.302   5.131  15.377 -0.1871  0.2744  0.6694
 4644TIP3    H138127   6.381   5.086  15.349 -0.9833 -0.1799 -0.9461
 4644TIP3    H238128   6.326   5.223  15.380  0.9440 -0.0294  2.2214
 4645TIP3   OH238129   5.870   5.975  16.753  0.0755 -0.0318 -0.6734
 4645TIP3    H138130   5.817   6.017  16.821 -1.0018 -0.4541 -1.2253
 4645TIP3    H238131   5.911   6.048  16.707  0.7382  0.2662  0.3456
 4646TIP3   OH238132   4.997   3.627  16.828 -0.2084 -0.1496 -0.9004
 4646TIP3    H138133   4.933   3.675  16.775  0.2616  0.8203 -0.6236
 4646TIP3    H238134   5.082   3.664  16.803  0.3715 -2.0832 -1.9643
 4647TIP3   OH238135   4.512   3.226  16.796  0.4285  0.1010 -0.7024
 4647TIP3    H138136   4.550   3.294  16.851 -0.1835  0.1252 -0.2927
 4647TIP3    H238137   4.580   3.205  16.732  0.9357  0.4883 -0.2966
 4648TIP3   OH238138   4.552   2.404  17.268  0.4609 -0.0181  0.3702
 4648TIP3    H138139   4.522   2.485  17.228 -1.2107 -1.1245 -0.7147
 4648TIP3    H238140   4.582   2.350  17.195  1.6073 -0.4018  1.0754
 4649TIP3   OH238141   3.382   0.311  18.293  0.2125 -0.4760  0.0759
 4649TIP3    H138142   3.313   0.330  18.357  1.7186  0.6531  1.4447
 4649TIP3    H238143   3.358   0.226  18.257 -2.2752  0.1922 -0.0572
 4650TIP3   OH238144   0.244   5.598  16.746 -0.6671 -0.2074 -0.2828
 4650TIP3    H138145   0.231   5.533  16.815 -1.1151  0.5715  0.3852
 4650TIP3    H238146   0.156   5.615  16.711 -0.5182 -0.1676 -0.6427
 4651TIP3   OH238147   4.182   6.417  15.110  0.4402 -0.2866 -0.0901
 4651TIP3    H138148   4.214   6.417  15.201  0.0975  0.1843  0.0357
 4651TIP3    H238149   4.213   6.334  15.074 -0.0260 -0.8086  0.6764
 4652TIP3   OH238150   0.314   5.301  15.802  0.0803 -0.2889  0.4621
 4652TIP3    H138151   0.374   5.316  15.729  1.1508  0.5350  1.4634
 4652TIP3    H238152   0.228   5.325  15.768  0.8421  2.1708  0.0373
 4653TIP3   OH238153   2.822   0.743  17.872 -0.3110  0.3826  0.0191
 4653TIP3    H138154   2.870   0.675  17.824  2.7999  1.4089  1.3776
 4653TIP3    H238155   2.851   0.825  17.832  0.9849  1.1643  2.3188
 4654TIP3   OH238156   6.679   1.142  17.050 -0.6665  0.0863 -0.5331
 4654TIP3    H138157   6.603   1.084  17.043 -0.7523  0.1225  0.0447
 4654TIP3    H238158   6.753   1.089  17.021 -0.3689 -1.1146  2.0912
 4655TIP3   OH238159   3.568   3.364  16.674 -0.1115 -0.1280  0.2608
 4655TIP3    H138160   3.526   3.440  16.632 -0.5298 -0.4473  0.0990
 4655TIP3    H238161   3.628   3.403  16.737  0.3927  0.3632 -0.5020
 4656TIP3   OH238162   5.847   6.419  14.932  0.3047  0.4298 -0.6628
 4656TIP3    H138163   5.877   6.498  14.889  1.1114 -0.2612 -1.4064
 4656TIP3    H238164   5.879   6.426  15.022 -1.1962  1.7749 -0.1836
 4657TIP3   OH238165   3.176   2.175  17.378 -0.0279 -0.3510  0.1464
 4657TIP3    H138166   3.234   2.129  17.439 -0.9059  0.3394  1.5480
 4657TIP3    H238167   3.124   2.233  17.433 -0.7128  0.4679 -1.2961
 4658TIP3   OH238168   4.663   6.133  17.259  0.4962 -0.6824 -0.2307
 4658TIP3    H138169   4.742   6.184  17.278  1.2078 -1.9156  0.2157
 4658TIP3    H238170   4.695   6.053  17.218 -0.5593 -1.0306 -0.3977
 4659TIP3   OH238171   2.955   4.979  17.011  0.5769  0.0760  0.4554
 4659TIP3    H138172   3.035   5.000  17.059  0.5550  1.6115 -0.1125
 4659TIP3    H238173   2.898   4.938  17.076  1.6102 -0.5296  0.9978
 4660TIP3   OH238174   6.394   0.292  14.757  0.4612  0.7679 -0.0326
 4660TIP3    H138175   6.417   0.314  14.667  0.3266  0.7191 -0.0799
 4660TIP3    H238176   6.298   0.290  14.757  0.4240  2.0919  0.4269
 4661TIP3   OH238177   1.885   4.885  16.374  0.7222  0.1190  0.1393
 4661TIP3    H138178   1.959   4.846  16.328 -0.0390 -0.6522 -0.4844
 4661TIP3    H238179   1.836   4.811  16.409 -1.2850  0.3447 -1.8880
 4662TIP3   OH238180   4.230   5.274  15.962  0.0453 -0.8634 -0.4394
 4662TIP3    H138181   4.309   5.258  16.012 -1.1909  1.4684  2.5878
 4662TIP3    H238182   4.170   5.204  15.986 -0.1102 -0.4533  0.3869
 4663TIP3   OH238183   0.076   2.326  17.362  0.5066  0.0224  0.8678
 4663TIP3    H138184  -0.005   2.275  17.369  1.0407 -0.6628  2.2874
 4663TIP3    H238185   0.136   2.286  17.424  2.2891 -0.0686 -0.8027
 4664TIP3   OH238186   1.737   4.026  16.832  0.2294  0.3657 -0.2328
 4664TIP3    H138187   1.775   3.949  16.873 -0.8231 -0.5475 -0.9235
 4664TIP3    H238188   1.647   4.030  16.865 -0.3656  0.0992 -1.7328
 4665TIP3   OH238189   0.516   0.904  17.693 -0.2670  0.3400 -0.1190
 4665TIP3    H138190   0.564   0.835  17.647 -0.7054  0.1201 -0.2484
 4665TIP3    H238191   0.530   0.884  17.786 -1.3095 -0.5836 -0.1379
 4666TIP3   OH238192   3.950   5.567  15.660 -0.2320 -0.2690 -0.0608
 4666TIP3    H138193   3.875   5.624  15.679  0.3979  0.2100  1.0602
 4666TIP3    H238194   3.950   5.558  15.564 -1.2232  0.3965 -0.1330
 4667TIP3   OH238195   4.740   0.856  17.152 -0.3568 -0.0365  0.2843
 4667TIP3    H138196   4.752   0.948  17.175  0.3450  0.1533 -0.7947
 4667TIP3    H238197   4.645   0.844  17.148 -0.4500  0.8848 -0.5086
 4668TIP3   OH238198   5.395   0.673  15.297 -0.0225  0.8968  0.2276
 4668TIP3    H138199   5.392   0.618  15.374  1.9875  0.5010  0.0545
 4668TIP3    H238200   5.479   0.718  15.302 -0.4878  1.9648 -0.9838
 4669TIP3   OH238201   0.436   4.087  17.729  0.2175 -0.6736 -0.2191
 4669TIP3    H138202   0.344   4.110  17.737  0.8089  1.2670  2.9096
 4669TIP3    H238203   0.441   3.996  17.758 -0.8921 -1.5224 -2.4955
 4670TIP3   OH238204   1.416   6.374  14.197 -0.4704  0.3643 -0.6864
 4670TIP3    H138205   1.451   6.434  14.132 -0.0029 -0.7307 -1.4793
 4670TIP3    H238206   1.327   6.354  14.166 -0.8648  1.1211 -0.0781
 4671TIP3   OH238207   5.977   4.709  16.390 -0.9188  0.4839 -0.0850
 4671TIP3    H138208   5.937   4.732  16.306 -1.4876  0.9446  0.3011
 4671TIP3    H238209   5.907   4.722  16.454 -2.0032 -4.1348  0.0423
 4672TIP3   OH238210   1.694   5.010  17.102  0.2778 -0.0856 -0.3907
 4672TIP3    H138211   1.601   4.994  17.115  0.2842  0.0649 -0.1534
 4672TIP3    H238212   1.738   4.935  17.142  0.2608 -0.1212 -0.4392
 4673TIP3   OH238213   5.219   4.834  15.894 -0.2159 -0.4332 -0.4677
 4673TIP3    H138214   5.212   4.918  15.940  0.4336 -0.7164  0.1809
 4673TIP3    H238215   5.264   4.855  15.812  0.5826 -0.2449  0.0074
 4674TIP3   OH238216   2.700   4.261  15.511 -0.0706  0.6453  0.4422
 4674TIP3    H138217   2.698   4.349  15.551  2.0222  0.6308  0.6784
 4674TIP3    H238218   2.711   4.202  15.586 -0.4223  0.2506  0.1848
 4675TIP3   OH238219   4.306   0.642  16.197 -0.3622  0.3901  0.3008
 4675TIP3    H138220   4.335   0.670  16.284 -1.1096  0.5084  0.5158
 4675TIP3    H238221   4.387   0.625  16.149  0.0882 -2.1041  1.7721
 4676TIP3   OH238222   5.271   0.602  15.758  0.7156  0.1870 -0.3435
 4676TIP3    H138223   5.307   0.599  15.669  0.6976  0.6488 -0.3674
 4676TIP3    H238224   5.276   0.694  15.783  0.2915  0.1280 -0.0375
 4677TIP3   OH238225   3.820   5.554  15.077 -0.1098  0.4417  0.1403
 4677TIP3    H138226   3.731   5.583  15.056 -0.0216  0.6912  0.0999
 4677TIP3    H238227   3.876   5.620  15.036  0.1182 -0.2054 -0.6066
 4678TIP3   OH238228   2.590   4.375  16.176 -0.0215 -0.2979 -0.3128
 4678TIP3    H138229   2.575   4.411  16.088  0.8868 -2.3606 -1.3882
 4678TIP3    H238230   2.518   4.315  16.190 -1.0629  1.2080  1.1087
 4679TIP3   OH238231   3.903   3.742  15.438  0.4604  0.2139  0.0099
 4679TIP3    H138232   3.975   3.739  15.375  0.4710  1.2891 -0.0449
 4679TIP3    H238233   3.831   3.697  15.394  0.8271 -0.0841 -0.2917
 4680TIP3   OH238234   5.065   4.005  15.125  0.3246 -0.8698 -0.4361
 4680TIP3    H138235   5.016   3.923  15.118  0.6178 -1.0408 -0.4898
 4680TIP3    H238236   5.019   4.066  15.067  0.3145 -1.0966 -0.6658
 4681TIP3   OH238237   0.650   1.006  15.409 -0.0646 -0.4191 -0.1484
 4681TIP3    H138238   0.557   0.985  15.401 -0.1576 -0.4577  0.8611
 4681TIP3    H238239   0.652   1.100  15.426 -0.0061 -0.6210  1.0402
 4682TIP3   OH238240   0.563   6.626  15.114  0.2496 -0.3149  0.1989
 4682TIP3    H138241   0.501   6.633  15.041  1.8302 -2.1550 -1.4209
 4682TIP3    H238242   0.649   6.631  15.074  1.2005  0.0290  2.1414
 4683TIP3   OH238243   0.210   5.044  17.081  0.2286 -0.7403 -0.0569
 4683TIP3    H138244   0.290   5.002  17.111 -0.5629 -1.4822  1.0769
 4683TIP3    H238245   0.206   5.026  16.987  1.8016  0.0347 -0.2968
 4684TIP3   OH238246   2.537   3.053  17.172  0.0265  0.3955  0.4605
 4684TIP3    H138247   2.493   3.015  17.248  1.3081  0.5792  1.3359
 4684TIP3    H238248   2.608   3.105  17.210  0.0233  1.3846 -0.8282
 4685TIP3   OH238249   0.626   5.696  15.070  0.0609 -0.1822 -0.0650
 4685TIP3    H138250   0.605   5.671  14.980  0.2432 -1.0970  0.1320
 4685TIP3    H238251   0.707   5.746  15.062 -0.3904  0.5085 -0.4878
 4686TIP3   OH238252   6.586   1.047  17.468  0.2106 -0.0773 -0.1025
 4686TIP3    H138253   6.571   1.101  17.546 -0.3935 -0.5946  0.1513
 4686TIP3    H238254   6.602   1.111  17.398 -0.9898  0.4645  0.0842
 4687TIP3   OH238255   2.737   4.158  17.930  0.0622  0.2718 -0.1740
 4687TIP3    H138256   2.708   4.108  17.854 -1.8154  1.5299 -0.3641
 4687TIP3    H238257   2.764   4.243  17.895  1.4449  0.0735  0.3385
 4688TIP3   OH238258   4.907   5.609  15.321  0.7493  0.2730 -0.0786
 4688TIP3    H138259   4.895   5.568  15.407 -0.5836  2.2897  0.7424
 4688TIP3    H238260   4.942   5.696  15.340  1.4604  0.3712 -1.6599
 4689TIP3   OH238261   6.583   2.757  17.397  0.3359 -0.2147  0.5669
 4689TIP3    H138262   6.499   2.717  17.417  0.6187 -0.8605  0.4835
 4689TIP3    H238263   6.644   2.684  17.388  0.6210  0.1658 -0.7938
 4690TIP3   OH238264   6.360   1.981  16.217  0.2104  0.1344 -0.2235
 4690TIP3    H138265   6.445   1.994  16.174  0.3633  0.0028  0.0424
 4690TIP3    H238266   6.352   1.887  16.226  0.6599  0.1969  1.0009
 4691TIP3   OH238267   4.374   5.017  16.605  0.0401 -0.0236 -0.3126
 4691TIP3    H138268   4.317   4.943  16.585 -0.7354  0.2012  0.9702
 4691TIP3    H238269   4.434   4.983  16.672 -0.1191  0.4247  0.0588
 4692TIP3   OH238270   5.289   1.989  16.974  0.7156  0.4823  0.7867
 4692TIP3    H138271   5.300   2.054  16.905 -2.7656  0.8716  0.3801
 4692TIP3    H238272   5.250   1.913  16.929  1.1624 -0.4016  1.8568
 4693TIP3   OH238273   5.681   2.613  17.145 -0.5656  0.1454  0.4092
 4693TIP3    H138274   5.766   2.657  17.138 -0.7204  0.5894  1.2138
 4693TIP3    H238275   5.652   2.632  17.234 -0.8313 -1.2493  0.6364
 4694TIP3   OH238276   5.322   0.481  16.009  0.3238 -0.2771  0.2708
 4694TIP3    H138277   5.368   0.538  16.071  0.6515 -0.6229  0.3494
 4694TIP3    H238278   5.285   0.541  15.944  1.4442 -0.0303 -0.1705
 4695TIP3   OH238279   2.473   2.218  16.716  0.3390  0.0111  0.4925
 4695TIP3    H138280   2.480   2.274  16.639  0.3133 -2.1911 -1.1940
 4695TIP3    H238281   2.533   2.145  16.699  0.8924 -0.2099  2.9138
 4696TIP3   OH238282   2.590   5.922  15.594 -0.0985 -0.1134  0.3008
 4696TIP3    H138283   2.651   5.978  15.545 -0.9178 -1.1130 -2.0264
 4696TIP3    H238284   2.504   5.945  15.560 -0.9874  0.4913  2.7458
 4697TIP3   OH238285   1.871   3.213  17.673  0.0376 -0.6134  0.0317
 4697TIP3    H138286   1.825   3.170  17.745 -2.2241 -0.4931 -1.2550
 4697TIP3    H238287   1.812   3.203  17.598  1.1719  1.4509 -1.2091
 4698TIP3   OH238288   2.758   4.426  17.833  0.0888 -0.0107  0.1734
 4698TIP3    H138289   2.782   4.501  17.887 -1.1658  0.1214  0.5837
 4698TIP3    H238290   2.760   4.460  17.743  1.8288 -0.1366  0.1286
 4699TIP3   OH238291   4.364   0.141  15.832  0.2103 -0.4561 -0.0667
 4699TIP3    H138292   4.323   0.059  15.860 -1.3674  0.2229 -0.2847
 4699TIP3    H238293   4.316   0.209  15.880  2.1758  0.3107  0.9165
 4700TIP3   OH238294   3.345   5.935  15.201 -0.8069 -0.2064  0.1595
 4700TIP3    H138295   3.351   5.989  15.280 -0.0729 -0.0787  0.0224
 4700TIP3    H238296   3.433   5.934  15.165 -1.0451 -0.6027 -0.4423
 4701TIP3   OH238297   2.220   5.016  16.409  0.1055  0.0942  0.1278
 4701TIP3    H138298   2.208   4.922  16.399 -0.2348  0.1846 -0.3651
 4701TIP3    H238299   2.294   5.037  16.352  0.2831  0.1036  0.3592
 4702TIP3   OH238300   5.702   4.337  16.593  0.0600  0.4448  0.2337
 4702TIP3    H138301   5.775   4.378  16.545  0.4906  0.1301  0.6107
 4702TIP3    H238302   5.690   4.252  16.551 -0.4783  0.7287 -0.2030
 4703TIP3   OH238303   5.782   0.214  14.940  0.2046 -0.1493  0.0692
 4703TIP3    H138304   5.753   0.241  14.853  1.6268  0.9950 -0.0822
 4703TIP3    H238305   5.834   0.135  14.925 -1.6149 -1.4549  0.2079
 4704TIP3   OH238306   2.781   6.348  14.261 -0.0026  0.4070  0.3145
 4704TIP3    H138307   2.812   6.290  14.191 -1.0626 -2.0413  1.7151
 4704TIP3    H238308   2.686   6.334  14.263  0.0898 -0.5932  2.9298
 4705TIP3   OH238309   1.722   5.234  16.760 -0.1856  0.1563 -0.5404
 4705TIP3    H138310   1.781   5.185  16.817  0.0539  2.0188  0.9211
 4705TIP3    H238311   1.637   5.229  16.803 -0.1404  1.0536 -0.3266
 4706TIP3   OH238312   3.631   5.161  17.514 -0.6383  0.8347  0.1106
 4706TIP3    H138313   3.658   5.087  17.569 -0.6623  2.0734  1.8799
 4706TIP3    H238314   3.539   5.145  17.496 -0.5087  0.1595  0.0278
 4707TIP3   OH238315   5.249   3.953  17.692 -0.2324 -0.6765  0.5651
 4707TIP3    H138316   5.319   3.920  17.748  1.7569  2.5287  0.2347
 4707TIP3    H238317   5.212   4.027  17.740 -1.2829 -0.3988 -0.6036
 4708TIP3   OH238318   5.813   6.708  16.030 -0.1600 -0.7473  0.1277
 4708TIP3    H138319   5.783   6.637  16.086  0.2007  0.0833  1.4160
 4708TIP3    H238320   5.905   6.720  16.054 -0.4373  0.7068  0.5679
 4709TIP3   OH238321   3.693   1.719  16.460  0.1171 -0.4487 -0.2730
 4709TIP3    H138322   3.714   1.663  16.535 -0.6817 -0.2366  0.1122
 4709TIP3    H238323   3.708   1.663  16.384  0.3100 -0.8688  0.0702
 4710TIP3   OH238324   4.295   5.755  16.869 -0.4109  0.0943  0.0869
 4710TIP3    H138325   4.343   5.836  16.889  2.2582 -1.4120  0.3118
 4710TIP3    H238326   4.251   5.733  16.951 -0.4055  0.8161  0.2960
 4711TIP3   OH238327   0.131   6.609  17.535  0.0595 -0.8150  0.1672
 4711TIP3    H138328   0.123   6.536  17.596 -0.9000  0.1890  1.3041
 4711TIP3    H238329   0.099   6.685  17.584 -0.2660  0.1318 -1.4287
 4712TIP3   OH238330   5.376   3.532  17.575  0.7042  0.2904  0.1198
 4712TIP3    H138331   5.324   3.515  17.496  1.7118  0.6918 -0.6555
 4712TIP3    H238332   5.422   3.614  17.556  1.7241 -0.1242  0.7083
 4713TIP3   OH238333   6.358   0.433  16.680 -0.4086 -0.1344  0.2384
 4713TIP3    H138334   6.299   0.482  16.738 -1.5819 -0.8554 -0.3204
 4713TIP3    H238335   6.307   0.357  16.652  0.3790 -0.1754 -1.1771
 4714TIP3   OH238336   4.369   3.009  15.805  0.2938  0.4367 -0.0677
 4714TIP3    H138337   4.436   3.038  15.866 -1.3923  1.7034  1.2711
 4714TIP3    H238338   4.365   2.914  15.817  0.2676  0.6182  1.5182
 4715TIP3   OH238339   5.875   2.941  14.576 -0.3164 -0.1313 -0.3715
 4715TIP3    H138340   5.803   2.897  14.620 -0.3293  0.6066  0.3913
 4715TIP3    H238341   5.943   2.947  14.643  0.4623 -0.8268 -1.0839
 4716TIP3   OH238342   0.367   0.965  17.261 -0.1253 -0.4473 -0.0602
 4716TIP3    H138343   0.329   0.920  17.336 -0.3171 -0.7281 -0.3202
 4716TIP3    H238344   0.427   1.029  17.299 -1.7847  0.9029  0.4038
 4717TIP3   OH238345   0.865   2.603  14.471 -0.1455 -0.1508 -0.4146
 4717TIP3    H138346   0.860   2.598  14.566 -1.5219 -0.3904 -0.4838
 4717TIP3    H238347   0.956   2.579  14.451  0.1781 -0.0377  0.8312
 4718TIP3   OH238348   1.014   5.333  17.782  1.0037  0.2273  0.7689
 4718TIP3    H138349   1.009   5.249  17.827  0.1896  0.8346  1.8580
 4718TIP3    H238350   0.939   5.382  17.814 -0.0815  0.4355 -1.8437
 4719TIP3   OH238351   0.611   0.451  15.045  0.0582 -0.0848 -0.2496
 4719TIP3    H138352   0.648   0.538  15.051  1.7500 -0.6613 -1.5618
 4719TIP3    H238353   0.591   0.426  15.136  0.5763  1.2117  0.2329
 4720TIP3   OH238354   1.393   1.399  14.781  0.1087 -0.9024 -0.4238
 4720TIP3    H138355   1.384   1.306  14.802 -1.8994 -0.9526 -1.2893
 4720TIP3    H238356   1.306   1.436  14.798  0.8281  0.8039 -0.2370
 4721TIP3   OH238357   6.422   2.567  17.962 -0.4843  0.5218 -0.0960
 4721TIP3    H138358   6.499   2.559  18.019  0.1540  0.2224 -0.9644
 4721TIP3    H238359   6.424   2.487  17.909  0.4598  1.9234 -2.3204
 4722TIP3   OH238360   5.553   1.486  15.075 -0.2872 -0.2186 -0.0870
 4722TIP3    H138361   5.586   1.424  15.140 -1.0162 -0.6063 -0.0868
 4722TIP3    H238362   5.503   1.434  15.013  0.6493  0.1052 -1.1561
 4723TIP3   OH238363   4.766   5.697  14.698  0.1385  0.2296  0.0679
 4723TIP3    H138364   4.829   5.652  14.754 -0.2925  0.0279  0.3837
 4723TIP3    H238365   4.752   5.781  14.741  2.6052  1.6574 -1.6045
 4724TIP3   OH238366   3.907   3.700  15.960 -0.1346 -0.2357  0.1224
 4724TIP3    H138367   3.900   3.795  15.953 -0.3988 -0.1971  0.9085
 4724TIP3    H238368   3.948   3.685  16.045  0.6173 -0.8035 -0.3269
 4725TIP3   OH238369   0.898   4.043  15.201  0.2530  0.6710  0.5491
 4725TIP3    H138370   0.835   4.104  15.163  1.2076  1.4464  0.1574
 4725TIP3    H238371   0.852   3.960  15.205 -1.1020  1.4162  1.1432
 4726TIP3   OH238372   4.248   0.415  16.739  0.0956  0.4493 -0.2071
 4726TIP3    H138373   4.209   0.373  16.662  1.7522 -0.4205 -0.6051
 4726TIP3    H238374   4.190   0.490  16.756 -1.1942 -0.2333 -1.3341
 4727TIP3   OH238375   0.296   2.454  14.990  0.8230 -0.4617 -0.0758
 4727TIP3    H138376   0.296   2.495  14.903  0.2331  1.7263  0.8655
 4727TIP3    H238377   0.386   2.463  15.021  0.6027  0.6753  0.3114
 4728TIP3   OH238378   0.857   6.630  17.790 -0.5983 -1.0556 -0.1106
 4728TIP3    H138379   0.840   6.714  17.747  0.7171 -1.0799 -0.7367
 4728TIP3    H238380   0.898   6.654  17.874  1.5713 -1.0389 -1.1022
 4729TIP3   OH238381   0.494   2.243  15.324 -0.8650  0.3325  0.8973
 4729TIP3    H138382   0.511   2.168  15.381 -0.0801  0.2095  0.5249
 4729TIP3    H238383   0.561   2.307  15.348 -0.2073  0.0911 -0.1771
 4730TIP3   OH238384   3.884   6.165  16.363  0.0823  0.0375 -0.0994
 4730TIP3    H138385   3.873   6.108  16.288  0.9357  0.9362 -0.9513
 4730TIP3    H238386   3.970   6.142  16.399 -0.5925 -0.8291  1.0146
 4731TIP3   OH238387   3.169   0.748  14.856  0.2389 -0.1561 -0.5038
 4731TIP3    H138388   3.141   0.672  14.906 -0.5301  0.8801  0.6823
 4731TIP3    H238389   3.140   0.730  14.766 -2.3890 -0.0909  0.2638
 4732TIP3   OH238390   2.341   4.314  16.400 -0.3900 -0.4262 -0.1777
 4732TIP3    H138391   2.288   4.257  16.455  0.9002 -1.9676 -0.4437
 4732TIP3    H238392   2.424   4.321  16.446 -0.5221  1.3253 -0.1396
 4733TIP3   OH238393   1.885   0.779  17.085 -0.3145  0.4358  0.3303
 4733TIP3    H138394   1.857   0.820  17.167 -0.9912 -0.7408  0.7183
 4733TIP3    H238395   1.814   0.796  17.024 -0.3717  0.2663  0.3495
 4734TIP3   OH238396   6.768   0.592  15.523  0.0848  0.3684 -0.2019
 4734TIP3    H138397   6.697   0.636  15.570  0.3452  0.3619  0.2071
 4734TIP3    H238398   6.840   0.655  15.526  0.8280 -0.4987  1.3695
 4735TIP3   OH238399   1.466   0.663  17.492  0.4630  0.0489 -0.2916
 4735TIP3    H138400   1.488   0.736  17.550  1.7295 -1.5285  1.3299
 4735TIP3    H238401   1.508   0.684  17.409 -1.3283  2.3356 -0.7339
 4736TIP3   OH238402   1.799   6.452  15.387  0.2776  0.2990 -0.4509
 4736TIP3    H138403   1.757   6.505  15.455 -1.6921 -0.7997 -0.7265
 4736TIP3    H238404   1.732   6.388  15.362  2.3628 -2.0842 -0.4172
 4737TIP3   OH238405   0.951   1.755  15.742  0.0013 -0.6058 -0.0176
 4737TIP3    H138406   0.997   1.684  15.698  0.3468 -0.7107  0.5079
 4737TIP3    H238407   0.925   1.815  15.671  1.8469 -0.0050 -0.2328
 4738TIP3   OH238408   3.732   5.785  15.660  0.3138  0.2695 -0.2009
 4738TIP3    H138409   3.660   5.842  15.687 -0.5524 -0.8283 -0.1296
 4738TIP3    H238410   3.695   5.729  15.592  1.8033  1.3424 -2.0006
 4739TIP3   OH238411   0.289   0.902  17.507  0.4787 -0.5505 -0.2820
 4739TIP3    H138412   0.360   0.902  17.572  2.3684  1.7915 -2.1758
 4739TIP3    H238413   0.227   0.967  17.539  1.3451  0.5096 -0.6951
 4740TIP3   OH238414   3.873   1.043  16.778  0.3283  0.2384 -0.1606
 4740TIP3    H138415   3.833   0.970  16.826  0.6488 -0.1979 -0.5499
 4740TIP3    H238416   3.899   1.005  16.694 -0.2180  0.9890 -0.6888
 4741TIP3   OH238417   6.018   0.406  17.618 -0.0239 -0.7827 -0.0888
 4741TIP3    H138418   6.102   0.405  17.573  0.5036  5.2509  0.0222
 4741TIP3    H238419   6.034   0.454  17.699 -3.7434  2.4544 -0.9776
 4742TIP3   OH238420   4.922   0.132  17.184 -0.5318 -0.7751  0.2574
 4742TIP3    H138421   4.875   0.114  17.103  0.7977  1.8508 -1.2098
 4742TIP3    H238422   4.869   0.198  17.229  0.4952  0.4506 -0.2727
 4743TIP3   OH238423   3.214   6.365  16.571  0.4799  0.3745  0.9235
 4743TIP3    H138424   3.205   6.324  16.485 -1.0122 -0.4014  1.4240
 4743TIP3    H238425   3.291   6.322  16.610  0.0442 -0.6364  0.7073
 4744TIP3   OH238426   0.967   3.045  14.471 -0.0661 -0.8540 -0.0867
 4744TIP3    H138427   0.916   3.121  14.499 -0.6585 -0.9154 -0.9704
 4744TIP3    H238428   1.054   3.060  14.509  0.4416  1.3107 -1.9074
 4745TIP3   OH238429   2.441   0.309  17.738  0.5522  0.1581  0.0077
 4745TIP3    H138430   2.371   0.326  17.801  2.3389  0.3723  2.0646
 4745TIP3    H238431   2.448   0.391  17.688 -0.9603 -0.0479 -0.5855
 4746TIP3   OH238432   3.770   0.624  15.016  0.1351  0.1594 -0.6384
 4746TIP3    H138433   3.777   0.717  15.035 -1.5876  0.5282 -1.5829
 4746TIP3    H238434   3.679   0.602  15.038  0.1679 -1.0106 -1.5859
 4747TIP3   OH238435   5.594   4.494  17.434 -0.3550  0.6661  0.4629
 4747TIP3    H138436   5.580   4.412  17.480 -1.2881  1.1084  1.0039
 4747TIP3    H238437   5.562   4.478  17.345 -0.3914  0.4070  0.5244
 4748TIP3   OH238438   0.561   3.318  15.286 -0.1140  0.2237 -0.0112
 4748TIP3    H138439   0.623   3.329  15.359 -0.9022 -0.1252  0.7386
 4748TIP3    H238440   0.604   3.255  15.228 -0.0824 -0.6302  0.8952
 4749TIP3   OH238441   2.084   5.970  14.790 -0.1214 -0.3943 -0.0598
 4749TIP3    H138442   1.991   5.981  14.769  0.1761  2.2125 -0.4285
 4749TIP3    H238443   2.130   6.010  14.717  1.1728  1.0995  1.4774
 4750TIP3   OH238444   4.929   5.950  15.753  0.4197  0.3828  0.0945
 4750TIP3    H138445   4.965   6.035  15.778  1.0781  0.1298  0.0055
 4750TIP3    H238446   4.837   5.969  15.733 -0.2539  0.5509  2.9109
 4751TIP3   OH238447   2.571   2.859  16.620 -0.2026  0.2790  0.1942
 4751TIP3    H138448   2.526   2.942  16.628 -0.8845  0.1971 -2.1305
 4751TIP3    H238449   2.511   2.803  16.570  0.9162 -1.0744  0.2912
 4752TIP3   OH238450   5.682   2.072  14.507 -0.2101 -0.5469 -0.3326
 4752TIP3    H138451   5.659   2.054  14.416 -0.9354  0.8986 -0.4555
 4752TIP3    H238452   5.642   2.156  14.527  1.6519  0.1725  0.6907
 4753TIP3   OH238453   1.319   0.214  17.506  0.3857 -0.1631 -0.2054
 4753TIP3    H138454   1.268   0.189  17.583  0.5497 -1.1649 -0.4001
 4753TIP3    H238455   1.403   0.168  17.517  1.1461  1.2147 -0.0373
 4754TIP3   OH238456   3.096   6.167  15.473 -0.0269 -0.0717  0.2420
 4754TIP3    H138457   3.069   6.100  15.536 -1.3419 -0.0477 -0.2478
 4754TIP3    H238458   3.037   6.241  15.492 -1.3472 -0.5120 -1.7953
 4755TIP3   OH238459   1.710   5.989  17.592 -0.1131  0.4491 -0.2372
 4755TIP3    H138460   1.804   6.007  17.600  0.7703 -3.9024  2.9835
 4755TIP3    H238461   1.667   6.065  17.632  2.1910  1.4196  0.5643
 4756TIP3   OH238462   4.761   0.632  17.410  0.2070  0.3138  0.0414
 4756TIP3    H138463   4.797   0.579  17.482  0.5166 -1.3261 -1.2465
 4756TIP3    H238464   4.838   0.664  17.363  0.0206 -0.0047 -0.4969
 4757TIP3   OH238465   5.673   1.117  15.027 -0.2053 -0.0741  0.1724
 4757TIP3    H138466   5.674   1.191  15.088 -1.3098 -0.0715  0.2132
 4757TIP3    H238467   5.622   1.050  15.073 -0.6443 -0.2447 -0.5465
 4758TIP3   OH238468   0.710   0.910  16.401 -0.2798  0.1926 -0.6142
 4758TIP3    H138469   0.689   0.855  16.325  1.5991  0.1031 -1.1387
 4758TIP3    H238470   0.702   0.851  16.476  1.9437 -0.9743 -1.1892
 4759TIP3   OH238471   5.781   3.920  15.798 -0.6191 -0.2547  0.1229
 4759TIP3    H138472   5.795   3.828  15.821 -0.8241 -0.2216  0.3821
 4759TIP3    H238473   5.743   3.918  15.710 -1.2661 -0.4491  0.4008
 4760TIP3   OH238474   6.504   6.367  15.841  0.0609  0.5893 -0.4368
 4760TIP3    H138475   6.541   6.279  15.839  0.2785  0.6782 -0.3594
 4760TIP3    H238476   6.417   6.358  15.801  0.2479  0.4185 -0.8048
 4761TIP3   OH238477   4.606   6.402  15.510 -0.1387  0.8090 -0.2975
 4761TIP3    H138478   4.536   6.343  15.481 -0.6483  1.6503 -0.7997
 4761TIP3    H238479   4.641   6.439  15.429  2.8718 -1.7328 -0.3644
 4762TIP3   OH238480   5.922   2.738  17.148 -0.1857  0.4723  0.0894
 4762TIP3    H138481   6.014   2.755  17.125  0.5182 -3.9571 -1.1952
 4762TIP3    H238482   5.920   2.748  17.243  1.8707 -0.0195  0.2430
 4763TIP3   OH238483   0.707   0.987  15.691  0.1683  0.1153  0.2213
 4763TIP3    H138484   0.712   0.983  15.595 -1.8399  0.0837  0.0675
 4763TIP3    H238485   0.683   1.077  15.709 -0.6288 -0.1697  0.6088
 4764TIP3   OH238486   5.686   0.218  16.095 -0.0380 -0.2126  0.4439
 4764TIP3    H138487   5.607   0.193  16.143  1.2095  0.2309  2.8811
 4764TIP3    H238488   5.743   0.141  16.101 -0.1945 -0.4925 -1.2068
 4765TIP3   OH238489   4.773   5.670  15.049 -0.8428  0.4054  0.0706
 4765TIP3    H138490   4.707   5.604  15.029 -0.6563 -0.1669  1.2743
 4765TIP3    H238491   4.819   5.636  15.125  0.7231  0.8848 -0.6158
 4766TIP3   OH238492   0.412   0.569  16.093 -0.0788 -0.2027  0.0487
 4766TIP3    H138493   0.415   0.490  16.145  0.8420  0.5575  1.2044
 4766TIP3    H238494   0.365   0.544  16.013  0.2898 -1.9165  0.3366
 4767TIP3   OH238495   3.987   1.212  17.049  0.0686  0.3495 -0.0491
 4767TIP3    H138496   4.060   1.168  17.093  0.9155 -0.5886 -2.2232
 4767TIP3    H238497   3.952   1.146  16.989 -2.1392  1.0150  0.4359
 4768TIP3   OH238498   2.431   0.945  15.112 -0.0546 -0.4337 -0.2460
 4768TIP3    H138499   2.452   0.923  15.021  0.5295  0.5348 -0.3650
 4768TIP3    H238500   2.516   0.942  15.157  0.0302  1.2128 -0.2214
 4769TIP3   OH238501   6.632   1.245  15.203  0.8080  0.4073 -0.3660
 4769TIP3    H138502   6.605   1.203  15.121  0.4281 -1.2751  0.5562
 4769TIP3    H238503   6.578   1.202  15.270  2.5858  0.1839  1.0047
 4770TIP3   OH238504   4.829   0.927  17.727 -0.1631  0.0121 -0.1111
 4770TIP3    H138505   4.903   0.984  17.749 -0.7489  0.1607  1.6408
 4770TIP3    H238506   4.815   0.941  17.634  1.0839  1.0834 -0.1760
 4771TIP3   OH238507   0.708   5.580  16.308  0.6608  0.5437 -0.0125
 4771TIP3    H138508   0.639   5.619  16.254  2.7219  2.9017 -1.1497
 4771TIP3    H238509   0.714   5.490  16.278 -1.3823  0.4986 -0.4116
 4772TIP3   OH238510   6.351   3.952  15.747  0.6972 -0.3537  0.1265
 4772TIP3    H138511   6.430   3.944  15.693  0.5374 -0.0429 -0.1598
 4772TIP3    H238512   6.377   4.008  15.820  0.3939  0.9112 -0.6884
 4773TIP3   OH238513   1.983   1.536  16.174 -0.2580 -0.0471  0.0313
 4773TIP3    H138514   2.014   1.572  16.257  0.0046  0.1873 -0.1707
 4773TIP3    H238515   1.893   1.507  16.193 -0.2164  0.0482  0.3818
 4774TIP3   OH238516   0.637   0.816  13.969 -0.4504 -0.7154  0.6291
 4774TIP3    H138517   0.554   0.802  13.923  0.1438  0.6367 -0.9717
 4774TIP3    H238518   0.615   0.808  14.062 -2.2166 -1.0889  0.2137
 4775TIP3   OH238519   6.247   0.900  15.613 -0.3556 -0.0762 -0.0790
 4775TIP3    H138520   6.310   0.928  15.547  0.4036  0.0700  0.7029
 4775TIP3    H238521   6.252   0.804  15.611 -0.4747 -0.0788 -0.3582
 4776TIP3   OH238522   3.363   1.801  15.031  0.1315  0.1020  0.3791
 4776TIP3    H138523   3.415   1.872  14.993 -0.1288  0.4583  0.6840
 4776TIP3    H238524   3.396   1.722  14.988  0.7031  0.3586  0.3354
 4777TIP3   OH238525   3.451   3.842  17.604 -0.3077 -0.1809 -0.5215
 4777TIP3    H138526   3.455   3.751  17.633  0.0702  0.3174  1.0643
 4777TIP3    H238527   3.542   3.871  17.605 -0.4355  0.2493 -0.9636
 4778TIP3   OH238528   1.378   1.133  14.816 -0.1556  0.3593  0.0655
 4778TIP3    H138529   1.375   1.077  14.894 -0.5260 -0.4520 -0.5125
 4778TIP3    H238530   1.394   1.072  14.744 -0.3938  1.0246 -0.5612
 4779TIP3   OH238531   1.352   2.094  14.258  0.1920 -0.0093 -0.1901
 4779TIP3    H138532   1.334   2.015  14.207  2.3971  0.3558 -1.6845
 4779TIP3    H238533   1.340   2.166  14.197 -1.6689  0.8711  1.1251
 4780TIP3   OH238534   6.252   0.605  15.596 -0.0299 -0.3591  0.1480
 4780TIP3    H138535   6.265   0.514  15.623 -1.5389 -1.2328 -1.7807
 4780TIP3    H238536   6.221   0.598  15.505  0.9314  2.1521 -0.4409
 4781TIP3   OH238537   3.710   6.768  17.856 -0.1182  0.3632  0.1637
 4781TIP3    H138538   3.680   6.770  17.947 -0.8311  1.2009 -0.0701
 4781TIP3    H238539   3.772   6.841  17.849  1.6060 -0.9979  0.4920
 4782TIP3   OH238540   4.856   6.680  14.782 -0.0092  0.1816  0.2144
 4782TIP3    H138541   4.765   6.708  14.791 -0.4093 -1.1864  0.6399
 4782TIP3    H238542   4.892   6.688  14.871  0.2763  0.6613  0.0602
 4783TIP3   OH238543   1.564   4.248  15.179 -0.2504 -0.1430  0.2199
 4783TIP3    H138544   1.496   4.313  15.192  0.0894  0.0484  1.1163
 4783TIP3    H238545   1.623   4.287  15.114  1.0358  1.3548  2.1818
 4784TIP3   OH238546   3.780   6.231  17.029 -0.3445  0.1635  0.6832
 4784TIP3    H138547   3.714   6.285  16.984 -0.8149 -1.2191 -0.3784
 4784TIP3    H238548   3.758   6.141  17.003  0.6660 -0.5135  2.0557
 4785TIP3   OH238549   1.743   3.663  15.904  0.0999  0.3060 -0.1767
 4785TIP3    H138550   1.831   3.655  15.866 -0.1996 -1.1291 -0.6265
 4785TIP3    H238551   1.707   3.741  15.864  0.2961 -0.4231 -1.8474
 4786TIP3   OH238552   2.223   2.076  16.801  0.2235  0.3161  0.3826
 4786TIP3    H138553   2.287   2.121  16.745 -0.3411  0.4858 -0.1409
 4786TIP3    H238554   2.168   2.146  16.835 -1.8525 -0.0534 -1.9329
 4787TIP3   OH238555   3.764   5.331  18.183 -0.0593  0.3026  0.1035
 4787TIP3    H138556   3.675   5.299  18.169 -0.0115  0.5881 -1.0006
 4787TIP3    H238557   3.816   5.253  18.201 -0.3764  0.0353 -0.1360
 4788TIP3   OH238558   6.542   4.010  16.977 -0.8290 -0.8064 -0.8130
 4788TIP3    H138559   6.542   4.094  16.930  1.0082 -1.2407 -1.6784
 4788TIP3    H238560   6.463   3.965  16.946 -1.2479  0.1515 -1.1828
 4789TIP3   OH238561   1.900   0.308  16.412  0.3801  0.2704 -0.0548
 4789TIP3    H138562   1.967   0.241  16.424 -0.0403 -0.0378  0.6110
 4789TIP3    H238563   1.885   0.343  16.500 -0.6729  0.0128 -0.1215
 4790TIP3   OH238564   2.787   0.107  15.548 -0.0984 -0.0941 -0.0023
 4790TIP3    H138565   2.716   0.079  15.490  0.2197  0.2429 -0.5588
 4790TIP3    H238566   2.867   0.093  15.497  0.0373  2.9062 -0.7771
 4791TIP3   OH238567   5.422   3.956  16.737  0.4872 -0.1745  0.0731
 4791TIP3    H138568   5.352   3.966  16.801  1.9523  1.5110  1.5025
 4791TIP3    H238569   5.468   3.876  16.763 -0.3405 -0.8209 -0.3735
 4792TIP3   OH238570   2.236   1.726  15.216 -0.3877  0.2718  0.3943
 4792TIP3    H138571   2.191   1.810  15.214 -0.6076  0.1499 -2.0358
 4792TIP3    H238572   2.172   1.666  15.254 -1.4938  0.5452 -0.9798
 4793TIP3   OH238573   1.864   4.095  17.411 -0.0123 -0.1625 -0.1793
 4793TIP3    H138574   1.878   4.154  17.485 -0.9970 -2.3346  1.8642
 4793TIP3    H238575   1.952   4.066  17.386  0.3279  0.5859  0.1244
 4794TIP3   OH238576   0.941   4.438  16.064 -0.0597  0.1495  0.3002
 4794TIP3    H138577   0.906   4.361  16.019  1.0078  0.6549 -1.4607
 4794TIP3    H238578   1.000   4.402  16.130 -0.0470 -0.5614 -0.0897
 4795TIP3   OH238579   4.935   2.757  15.119 -0.4264 -0.1792  0.2746
 4795TIP3    H138580   5.029   2.743  15.128 -0.6400 -0.8408  2.0756
 4795TIP3    H238581   4.909   2.793  15.204 -1.5971  1.2906 -0.6701
 4796TIP3   OH238582   2.926   1.616  16.734 -0.3908 -1.1836 -0.2811
 4796TIP3    H138583   2.831   1.628  16.728 -0.3025  0.2562  0.8068
 4796TIP3    H238584   2.939   1.562  16.812 -0.2460 -0.0523  0.4945
 4797TIP3   OH238585   5.805   4.686  17.184  0.3073 -0.4824 -0.2295
 4797TIP3    H138586   5.711   4.703  17.174  0.6217  1.3606 -0.4296
 4797TIP3    H238587   5.810   4.605  17.236 -1.3824 -0.0039  0.7464
 4798TIP3   OH238588   2.357   2.438  16.945 -0.2473 -0.1015  0.3287
 4798TIP3    H138589   2.412   2.516  16.953 -0.6538  0.2131  0.1078
 4798TIP3    H238590   2.398   2.386  16.877 -0.0564 -0.0059  0.3713
 4799TIP3   OH238591   2.491   3.017  17.779 -0.3906 -0.0081 -0.0887
 4799TIP3    H138592   2.506   2.998  17.686 -0.4884  0.9910 -0.3321
 4799TIP3    H238593   2.579   3.023  17.816 -0.3224  0.3406 -0.2938
 4800TIP3   OH238594   5.517   0.040  18.008  0.4852  0.2718 -0.2066
 4800TIP3    H138595   5.571   0.026  18.086 -0.9173  0.5117  0.8494
 4800TIP3    H238596   5.506  -0.048  17.970  1.3410  0.1819 -0.2595
 4801TIP3   OH238597   0.491   0.303  14.825  0.2920 -0.5137  0.1734
 4801TIP3    H138598   0.554   0.238  14.793  0.2839 -0.8175  0.7664
 4801TIP3    H238599   0.533   0.341  14.902  0.5135  0.5487 -0.4561
 4802TIP3   OH238600   2.313   0.546  15.883  0.2649 -0.2452  0.2654
 4802TIP3    H138601   2.236   0.597  15.856  1.2704  1.2235  0.0419
 4802TIP3    H238602   2.311   0.550  15.979 -0.5167 -1.1400  0.2978
 4803TIP3   OH238603   5.099   2.784  15.954 -0.0914  0.1354 -0.5615
 4803TIP3    H138604   5.182   2.831  15.948 -1.9401  3.9640  0.6741
 4803TIP3    H238605   5.094   2.757  16.046 -0.8429  1.3642 -0.2177
 4804TIP3   OH238606   6.446   0.847  17.577  0.6289  0.5635  0.1647
 4804TIP3    H138607   6.361   0.853  17.533  1.4615  1.7320 -1.3764
 4804TIP3    H238608   6.495   0.923  17.545  1.9637  0.4024  1.7017
 4805TIP3   OH238609   0.398   0.084  16.177  0.2313  0.3072  0.4714
 4805TIP3    H138610   0.365   0.053  16.092 -1.2903  0.6596  0.8952
 4805TIP3    H238611   0.398   0.006  16.233  0.1706  0.2945  0.4539
 4806TIP3   OH238612   6.763   4.033  17.843  0.8793  0.2076  0.4269
 4806TIP3    H138613   6.759   4.099  17.912 -0.9065 -0.1684  0.7464
 4806TIP3    H238614   6.827   4.067  17.781  1.2912  1.3717  1.4369
 4807TIP3   OH238615   5.966   3.413  15.356 -0.2818 -0.2096  0.7851
 4807TIP3    H138616   5.939   3.498  15.391  0.0912  0.5844 -0.7829
 4807TIP3    H238617   6.052   3.397  15.397  2.0875  2.5976 -2.5183
 4808TIP3   OH238618   2.783   1.694  17.035 -0.2153  0.2762  0.0775
 4808TIP3    H138619   2.821   1.619  16.989  0.6327  1.1108 -0.6140
 4808TIP3    H238620   2.741   1.656  17.112 -1.3676 -1.1286 -1.1791
 4809TIP3   OH238621   4.600   4.261  16.720 -0.0884 -0.1510 -0.0102
 4809TIP3    H138622   4.692   4.284  16.735  0.2261 -2.1306  1.6346
 4809TIP3    H238623   4.551   4.323  16.773  0.6199 -1.8218  2.8074
 4810TIP3   OH238624   4.473   2.028  17.198  0.2907  0.2396  1.0464
 4810TIP3    H138625   4.409   2.093  17.172  0.0960 -0.6084 -0.7623
 4810TIP3    H238626   4.432   1.944  17.179  2.1188 -0.3259 -0.8355
 4811TIP3   OH238627   1.061   0.148  15.202  0.3313 -0.0454  0.5212
 4811TIP3    H138628   0.972   0.178  15.224 -1.1425 -3.8123  0.4218
 4811TIP3    H238629   1.073   0.173  15.111 -0.5744  0.6242  0.5724
 4812TIP3   OH238630   4.987   0.150  16.138  0.2496  0.3641  0.2144
 4812TIP3    H138631   4.940   0.185  16.214  1.4551  0.4702  0.9326
 4812TIP3    H238632   5.053   0.216  16.118  2.5422 -1.3680  1.5736
 4813TIP3   OH238633   6.693   1.358  16.846 -0.1001 -0.1382 -0.4658
 4813TIP3    H138634   6.765   1.420  16.859 -0.6032  0.2671  0.5779
 4813TIP3    H238635   6.706   1.292  16.915  0.0113 -0.7946 -1.1041
 4814TIP3   OH238636   4.108   3.972  17.092  0.3677 -0.4414  0.5924
 4814TIP3    H138637   4.076   3.982  17.003  0.2802 -0.0514  0.6618
 4814TIP3    H238638   4.032   3.943  17.143  0.0002  0.8790  0.8385
 4815TIP3   OH238639   0.325   6.503  16.235 -0.1875 -0.4656  0.1465
 4815TIP3    H138640   0.290   6.414  16.240 -0.8788 -0.1358  3.5808
 4815TIP3    H238641   0.252   6.556  16.203 -0.1527 -0.9098 -0.7138
 4816TIP3   OH238642   3.872   1.540  15.044 -0.4051  0.0670 -0.3420
 4816TIP3    H138643   3.835   1.530  15.132  0.5399  1.2381  0.2097
 4816TIP3    H238644   3.798   1.572  14.991 -0.6988  0.4663  0.2934
 4817TIP3   OH238645   0.013   0.116  16.116  0.4130  0.2422 -0.0765
 4817TIP3    H138646   0.018   0.184  16.183 -0.7617  0.4662 -0.1831
 4817TIP3    H238647   0.060   0.151  16.041  0.7850  0.4583  0.2581
 4818TIP3   OH238648   6.122   0.378  15.823  0.5514 -0.4310  0.6064
 4818TIP3    H138649   6.070   0.367  15.743  2.9527  0.4374 -1.1573
 4818TIP3    H238650   6.092   0.461  15.860 -0.5613 -0.8262  0.6372
 4819TIP3   OH238651   2.613   6.700  17.044  0.3788 -0.3217 -0.0843
 4819TIP3    H138652   2.569   6.755  16.980  0.1086 -1.3582 -0.8196
 4819TIP3    H238653   2.653   6.761  17.105 -0.2578  0.6715 -0.6383
 4820TIP3   OH238654   6.313   1.100  16.881  0.7057 -0.3631 -0.2092
 4820TIP3    H138655   6.245   1.164  16.897  2.5773  1.4932  0.8447
 4820TIP3    H238656   6.269   1.029  16.834 -1.4851  1.6123 -1.3432
 4821TIP3   OH238657   5.725   2.723  17.780 -0.3595  0.3970 -0.2200
 4821TIP3    H138658   5.734   2.818  17.772  2.5283  0.5569  2.6366
 4821TIP3    H238659   5.713   2.708  17.874  0.3487 -2.0831 -0.4566
 4822TIP3   OH238660   1.676   3.252  15.421 -0.3430 -0.1302  0.5789
 4822TIP3    H138661   1.753   3.259  15.477 -0.1517 -1.3650  0.4922
 4822TIP3    H238662   1.632   3.337  15.430  0.6834  0.3612  1.1144
 4823TIP3   OH238663   5.082   6.131  15.321  0.3271 -0.3509 -0.3313
 4823TIP3    H138664   4.994   6.165  15.304  0.0467 -1.1660 -0.5611
 4823TIP3    H238665   5.116   6.187  15.391 -0.6837 -0.5293  0.3297
 4824TIP3   OH238666   2.993   6.247  14.423 -0.4562 -0.0969 -0.1805
 4824TIP3    H138667   3.056   6.297  14.371 -0.9977  0.7648 -0.0174
 4824TIP3    H238668   2.913   6.247  14.371 -0.4829 -0.7385 -0.1455
 4825TIP3   OH238669   3.314   4.834  17.755 -0.1273 -0.1021 -0.3241
 4825TIP3    H138670   3.248   4.773  17.724 -3.1762  2.0206  1.4784
 4825TIP3    H238671   3.347   4.876  17.676 -1.8235 -0.3804 -1.2210
 4826TIP3   OH238672   5.445   5.073  17.534  0.0184  0.3746  0.0865
 4826TIP3    H138673   5.506   5.124  17.587  0.4861  2.2094 -2.0507
 4826TIP3    H238674   5.500   5.012  17.485  0.0004  0.9806 -0.7113
 4827TIP3   OH238675   5.594   0.892  15.833  0.1874  0.2950 -0.3584
 4827TIP3    H138676   5.537   0.867  15.761 -1.9901 -0.8690  1.6505
 4827TIP3    H238677   5.629   0.977  15.807 -1.5862  0.5484 -2.1840
 4828TIP3   OH238678   4.198   4.001  15.540  0.1397 -0.0390  0.1569
 4828TIP3    H138679   4.136   4.072  15.559  1.7328  1.6574 -0.6703
 4828TIP3    H238680   4.225   4.017  15.450  1.0973 -1.2861  0.2026
 4829TIP3   OH238681   0.128   2.666  15.492 -0.2187 -0.6822  0.0631
 4829TIP3    H138682   0.115   2.596  15.556  1.1180 -1.6260 -0.6615
 4829TIP3    H238683   0.219   2.657  15.465 -0.8967 -0.6938 -2.4152
 4830TIP3   OH238684   5.546   6.212  17.059  0.6285  0.2464 -0.1347
 4830TIP3    H138685   5.530   6.147  17.128  2.2139  1.2490  1.2794
 4830TIP3    H238686   5.558   6.161  16.980  2.2923 -1.3005  1.0233
 4831TIP3   OH238687   6.403   1.120  17.150  0.5319  0.5501 -0.3880
 4831TIP3    H138688   6.356   1.199  17.174  1.1548  0.7098  0.3415
 4831TIP3    H238689   6.357   1.087  17.073 -0.7853  0.6643  0.3291
 4832TIP3   OH238690   2.376   5.371  16.493  0.2628  0.2307  0.4578
 4832TIP3    H138691   2.342   5.460  16.489 -2.0097 -0.5802 -0.2919
 4832TIP3    H238692   2.305   5.321  16.534  0.4910 -1.5998 -1.2365
 4833TIP3   OH238693   0.395   0.694  15.578 -0.3127 -0.1902  0.1948
 4833TIP3    H138694   0.362   0.783  15.586 -0.6322 -0.2380 -0.5617
 4833TIP3    H238695   0.459   0.697  15.507  1.4476 -0.0800  1.6797
 4834TIP3   OH238696   4.274   4.730  16.868  0.2627  0.2241  0.0511
 4834TIP3    H138697   4.358   4.771  16.889  1.2835 -2.2658  1.2431
 4834TIP3    H238698   4.277   4.716  16.773  0.4620  1.5828 -0.1644
 4835TIP3   OH238699   6.096   5.069  17.108  0.2915  0.0575  0.2053
 4835TIP3    H138700   6.065   4.980  17.125 -1.7814  0.7019 -0.0123
 4835TIP3    H238701   6.082   5.116  17.190  1.9955  0.0556  0.5300
 4836TIP3   OH238702   2.635   2.526  16.758  0.6816 -0.5944  0.7430
 4836TIP3    H138703   2.676   2.495  16.839  2.3312 -0.5650 -0.0488
 4836TIP3    H238704   2.692   2.596  16.727 -1.6661  1.6509  1.2043
 4837TIP3   OH238705   4.979   1.775  16.770 -0.4438 -1.0871 -0.4714
 4837TIP3    H138706   4.964   1.707  16.835  1.2954 -0.5093  0.5946
 4837TIP3    H238707   4.947   1.855  16.811 -1.6054 -1.0734 -1.3408
 4838TIP3   OH238708   1.453   6.127  17.724 -0.0116  0.3951  0.0484
 4838TIP3    H138709   1.376   6.136  17.669  0.5837 -0.6094 -1.0026
 4838TIP3    H238710   1.438   6.048  17.775  0.3697  0.1103 -0.2685
 4839TIP3   OH238711   3.887   1.989  17.759 -0.0576  0.0197 -0.0310
 4839TIP3    H138712   3.792   1.973  17.759  0.0733 -0.9252 -1.6613
 4839TIP3    H238713   3.912   1.981  17.851 -1.6065  0.6065  0.4758
 4840TIP3   OH238714   1.925   5.859  15.543  0.5795  0.0683  0.0427
 4840TIP3    H138715   2.015   5.842  15.518  0.2995  0.0021 -1.0103
 4840TIP3    H238716   1.930   5.921  15.616  1.4605  0.7096 -0.5463
 4841TIP3   OH238717   6.460   2.565  17.525  0.6513  0.8188 -0.3395
 4841TIP3    H138718   6.549   2.531  17.535 -0.0731 -1.1951 -0.3243
 4841TIP3    H238719   6.404   2.487  17.527 -1.0166  1.9171 -1.6562
 4842TIP3   OH238720   4.088   2.878  17.726  0.2379 -0.5974 -0.1499
 4842TIP3    H138721   4.139   2.919  17.796  0.9237 -0.3140 -0.8007
 4842TIP3    H238722   4.154   2.840  17.667 -0.2832 -0.1786 -1.0339
 4843TIP3   OH238723   5.808   1.340  16.780  0.1187 -0.2687  0.7513
 4843TIP3    H138724   5.806   1.436  16.778 -1.0556 -0.2729  1.0227
 4843TIP3    H238725   5.799   1.314  16.688 -1.5604 -0.1117  0.8422
 4844TIP3   OH238726   1.376   6.544  16.025 -0.0874  0.2612 -0.2364
 4844TIP3    H138727   1.462   6.579  16.000 -0.4754  0.6751 -1.0272
 4844TIP3    H238728   1.369   6.563  16.119 -0.3672  2.5752 -0.6562
 4845TIP3   OH238729   0.257   1.464  16.257  0.7955 -0.2262 -0.1058
 4845TIP3    H138730   0.224   1.439  16.343 -1.8829  2.2030 -0.2729
 4845TIP3    H238731   0.329   1.524  16.274  0.4996 -0.0270  0.4478
 4846TIP3   OH238732   5.549   4.985  15.194 -0.1519 -0.3969  0.4832
 4846TIP3    H138733   5.509   4.977  15.107 -1.3015 -0.9350  1.0554
 4846TIP3    H238734   5.539   5.077  15.217  0.5987 -0.1431 -0.1475
 4847TIP3   OH238735   0.825   5.081  15.369  0.1577 -0.3952 -0.2372
 4847TIP3    H138736   0.838   4.997  15.413 -1.9874 -0.5480  0.1926
 4847TIP3    H238737   0.910   5.125  15.376  0.7748 -1.7250  1.2316
 4848TIP3   OH238738   0.087   2.442  15.634  0.1993 -0.5143 -0.2892
 4848TIP3    H138739   0.011   2.427  15.691  0.4530 -1.8138 -0.2655
 4848TIP3    H238740   0.160   2.399  15.679  0.9182  0.5033 -0.4373
 4849TIP3   OH238741   1.844   2.077  15.066 -0.3526  0.4257  0.5858
 4849TIP3    H138742   1.937   2.100  15.070 -0.3485  0.6149 -0.5184
 4849TIP3    H238743   1.799   2.161  15.055 -0.5989  0.2511  0.2643
 4850TIP3   OH238744   5.665   0.400  17.861 -0.1621 -0.3209  0.2923
 4850TIP3    H138745   5.619   0.342  17.802  0.3333 -0.8393  0.4058
 4850TIP3    H238746   5.599   0.429  17.924 -0.9634  1.1280 -1.1471
 4851TIP3   OH238747   3.124   6.485  14.557 -0.4319 -0.0559  0.4807
 4851TIP3    H138748   3.162   6.504  14.643  0.8065  2.4946 -0.5230
 4851TIP3    H238749   3.182   6.419  14.519 -0.4746 -0.5377  1.2264
 4852TIP3   OH238750   2.889   4.416  15.954 -0.2280  1.0320 -0.2792
 4852TIP3    H138751   2.977   4.422  15.917 -0.3413 -0.0513 -0.7408
 4852TIP3    H238752   2.903   4.401  16.048  0.1214 -0.9947 -0.6202
 4853TIP3   OH238753   0.296   3.238  15.815  0.3464 -0.0600  0.4494
 4853TIP3    H138754   0.348   3.157  15.808  2.7755  1.4118  0.0635
 4853TIP3    H238755   0.344   3.290  15.879 -1.0089  1.1930  0.4713
 4854TIP3   OH238756   4.995   4.887  15.363 -0.0326 -0.5099  0.5490
 4854TIP3    H138757   5.026   4.917  15.448  0.8286 -0.3714  0.1961
 4854TIP3    H238758   4.991   4.791  15.371  1.7497 -0.6531  0.2212
 4855TIP3   OH238759   0.071   3.836  16.551  0.6558  0.3254  0.2936
 4855TIP3    H138760   0.108   3.805  16.634  0.5702 -1.0915 -0.1672
 4855TIP3    H238761  -0.022   3.815  16.557  0.9397 -1.5504 -0.8668
 4856TIP3   OH238762   2.844   0.339  17.092 -0.7093 -0.2154 -0.6135
 4856TIP3    H138763   2.796   0.414  17.058 -1.4505 -1.0654 -1.5349
 4856TIP3    H238764   2.877   0.367  17.177 -1.0672  1.0998 -0.8975
 4857TIP3   OH238765   5.962   2.273  16.971 -0.1297 -0.0043  0.1382
 4857TIP3    H138766   5.947   2.180  16.953 -0.5302 -0.1974  1.3914
 4857TIP3    H238767   5.928   2.286  17.059  2.5871  0.6840  1.1537
 4858TIP3   OH238768   5.542   2.221  16.613 -0.4779 -0.5784  0.0037
 4858TIP3    H138769   5.634   2.196  16.615 -0.1236  0.6825  0.8480
 4858TIP3    H238770   5.498   2.146  16.573  0.7566 -1.6670  0.5839
 4859TIP3   OH238771   2.075   2.678  17.015 -0.9662 -0.2701  0.1048
 4859TIP3    H138772   2.049   2.591  17.047  1.5501 -0.9044  0.6472
 4859TIP3    H238773   2.089   2.666  16.921  2.3103 -1.3615  0.6119
 4860TIP3   OH238774   3.724   3.232  15.878 -0.3564 -0.0779 -0.2359
 4860TIP3    H138775   3.675   3.311  15.901  0.2861  0.3917 -0.4676
 4860TIP3    H238776   3.809   3.243  15.919  0.3093  0.1005 -1.6020
 4861TIP3   OH238777   1.418   2.965  16.941 -0.4506 -0.0653  0.4679
 4861TIP3    H138778   1.367   2.913  16.879 -0.4890 -0.3952  0.7727
 4861TIP3    H238779   1.381   3.053  16.935  0.3873  0.2225 -0.9214
 4862TIP3   OH238780   6.439   5.562  15.630  0.0871 -0.3341 -0.7923
 4862TIP3    H138781   6.380   5.565  15.704 -0.0669 -0.4444 -0.9106
 4862TIP3    H238782   6.397   5.616  15.563  0.1584 -0.3479 -0.8491
 4863TIP3   OH238783   3.145   0.415  15.032 -0.2906 -0.1156  0.3340
 4863TIP3    H138784   3.221   0.441  14.979 -1.6509 -1.0172 -2.2366
 4863TIP3    H238785   3.178   0.414  15.122  1.7758  3.0431 -0.2063
 4864TIP3   OH238786   5.465   0.112  15.184  0.1136  0.3635  0.3165
 4864TIP3    H138787   5.438   0.180  15.124 -0.2107  0.3634  0.4589
 4864TIP3    H238788   5.385   0.087  15.230 -0.3811 -2.0369 -1.6305
 4865TIP3   OH238789   0.349   3.110  16.782  0.0304  0.7130 -0.2182
 4865TIP3    H138790   0.434   3.070  16.799 -1.3128 -2.8816 -1.0444
 4865TIP3    H238791   0.352   3.194  16.829  3.1670 -0.2590  1.6324
 4866TIP3   OH238792   4.358   3.898  17.666  0.0618 -0.2691  0.0042
 4866TIP3    H138793   4.419   3.969  17.651 -0.0608 -0.5152 -1.8641
 4866TIP3    H238794   4.411   3.828  17.705  0.5481  0.2071  0.2075
 4867TIP3   OH238795   1.410   0.338  15.584 -0.4907  0.1932  0.2075
 4867TIP3    H138796   1.502   0.314  15.570  0.0354  0.6760  2.4712
 4867TIP3    H238797   1.394   0.408  15.521  1.6118  2.0749  1.5811
 4868TIP3   OH238798   3.690   5.100  16.260  0.1281  0.5847 -0.5014
 4868TIP3    H138799   3.774   5.117  16.302 -0.4980  2.3202  0.1214
 4868TIP3    H238800   3.625   5.118  16.328 -0.7691 -1.1635 -0.8312
 4869TIP3   OH238801   5.497   6.633  17.797  0.4441  0.7938 -0.6737
 4869TIP3    H138802   5.582   6.643  17.754  0.7572  1.3439  0.0522
 4869TIP3    H238803   5.444   6.583  17.735  2.0019 -1.5873 -0.2005
 4870TIP3   OH238804   3.689   0.466  18.029  0.3871 -0.2698  0.3269
 4870TIP3    H138805   3.669   0.373  18.035  0.1491 -0.1436  1.7061
 4870TIP3    H238806   3.629   0.499  17.962 -0.3173 -0.8946  0.6406
 4871TIP3   OH238807   3.443   3.249  17.960 -0.1578  0.2599 -0.6169
 4871TIP3    H138808   3.529   3.275  17.993 -0.5283 -0.1033  0.6981
 4871TIP3    H238809   3.458   3.165  17.916  0.1600  0.2269 -0.4424
 4872TIP3   OH238810   1.256   5.827  17.535 -0.2121  0.3508  0.1198
 4872TIP3    H138811   1.238   5.909  17.580 -1.1344  0.0222  0.3756
 4872TIP3    H238812   1.298   5.853  17.453  2.0634  0.9380  1.3767
 4873TIP3   OH238813   2.814   4.874  17.215 -0.7769  0.1027 -0.5232
 4873TIP3    H138814   2.729   4.870  17.260 -0.7193 -0.2048 -0.4393
 4873TIP3    H238815   2.866   4.806  17.257 -0.7408 -0.2239 -1.0927
 4874TIP3   OH238816   3.314   2.916  17.606  0.9033  0.3413  0.0291
 4874TIP3    H138817   3.305   2.988  17.544 -2.0205  0.9743  1.0192
 4874TIP3    H238818   3.370   2.852  17.562 -0.4690  1.0618 -2.9742
 4875TIP3   OH238819   1.152   5.307  16.243 -0.2950  0.3991  0.6021
 4875TIP3    H138820   1.200   5.367  16.301  0.5784  1.4850 -1.1438
 4875TIP3    H238821   1.220   5.261  16.194 -0.9549 -1.9365  1.7189
 4876TIP3   OH238822   4.818   3.329  17.883 -0.1816 -0.4086 -0.3039
 4876TIP3    H138823   4.781   3.390  17.820 -0.7998  1.1616  1.5019
 4876TIP3    H238824   4.911   3.353  17.889 -0.5554  0.8861  0.8931
 4877TIP3   OH238825   1.759   0.261  14.938  0.2458  0.0435 -0.3500
 4877TIP3    H138826   1.839   0.222  14.903  1.0583  0.5036  0.9355
 4877TIP3    H238827   1.689   0.229  14.880  0.9590 -2.5974  0.1407
 4878TIP3   OH238828   3.322   0.710  17.791  0.0303 -0.4526  0.2861
 4878TIP3    H138829   3.239   0.677  17.756 -0.4450  0.6027  0.3818
 4878TIP3    H238830   3.307   0.804  17.804  0.4672 -0.6327  2.4980
 4879TIP3   OH238831   3.976   5.277  15.461 -0.3923  0.1813 -0.3854
 4879TIP3    H138832   3.955   5.370  15.450 -0.2643  0.2414 -0.1391
 4879TIP3    H238833   3.893   5.232  15.450 -0.6402  0.4064  0.4670
 4880TIP3   OH238834   1.853   4.520  15.130  0.3674  0.2378 -0.3008
 4880TIP3    H138835   1.804   4.525  15.048  0.1256 -0.6739 -0.2175
 4880TIP3    H238836   1.945   4.516  15.104  0.3138  0.3519 -0.5070
 4881TIP3   OH238837   4.534   1.665  17.793  0.0123  0.3328 -0.0952
 4881TIP3    H138838   4.455   1.614  17.775  0.2256  0.4055 -1.3398
 4881TIP3    H238839   4.542   1.724  17.718  1.3012  0.2673 -0.0318
 4882TIP3   OH238840   0.729   0.727  15.512 -0.6873  0.3484  0.1437
 4882TIP3    H138841   0.772   0.669  15.450  0.2403  1.4223 -0.2563
 4882TIP3    H238842   0.692   0.797  15.458 -1.7774  0.1487  0.6141
 4883TIP3   OH238843   6.755   2.273  14.582 -0.5682 -0.2977  0.4021
 4883TIP3    H138844   6.752   2.177  14.577 -0.4053 -0.3346  0.9866
 4883TIP3    H238845   6.666   2.298  14.607 -0.6931 -0.2750 -0.0587
 4884TIP3   OH238846   4.378   0.908  15.988 -0.2450 -0.0618  0.3012
 4884TIP3    H138847   4.323   0.894  15.911  0.3018 -0.5233 -0.0138
 4884TIP3    H238848   4.410   0.820  16.010  0.0319  0.1462  0.7288
 4885TIP3   OH238849   2.716   3.413  17.713 -0.0536  0.1653  0.2734
 4885TIP3    H138850   2.659   3.405  17.636  1.4360  0.4987 -0.9177
 4885TIP3    H238851   2.779   3.341  17.703  0.2314  0.2913  1.1295
 4886TIP3   OH238852   5.922   0.554  16.192 -0.3206  0.2309  0.3375
 4886TIP3    H138853   5.946   0.469  16.230  0.9308 -0.0196 -0.8960
 4886TIP3    H238854   5.922   0.538  16.097 -1.0967  1.3711  0.1306
 4887TIP3   OH238855   6.428   0.005  17.297 -0.0584  0.0653  0.4182
 4887TIP3    H138856   6.452  -0.086  17.309 -2.0006 -0.4550  0.7391
 4887TIP3    H238857   6.402   0.012  17.205  0.6208  0.4314  0.2525
 4888TIP3   OH238858   6.491   0.220  14.303 -0.3404 -0.2279  0.3375
 4888TIP3    H138859   6.435   0.287  14.264  0.5853 -0.3270 -1.2377
 4888TIP3    H238860   6.430   0.160  14.346 -1.6115 -1.1521 -2.5748
 4889TIP3   OH238861   6.325   0.799  17.834 -0.6349 -0.7904  0.3428
 4889TIP3    H138862   6.363   0.811  17.747  0.4159 -0.4794  0.8203
 4889TIP3    H238863   6.373   0.724  17.871 -2.8649 -2.6389 -0.2844
 4890TIP3   OH238864   5.395   6.301  15.399  0.5397 -0.1523  0.4299
 4890TIP3    H138865   5.371   6.281  15.490 -1.2008  0.1656  0.0830
 4890TIP3    H238866   5.312   6.326  15.358  1.3849  0.1991 -1.1244
 4891TIP3   OH238867   1.567   1.964  17.941 -0.0327 -0.1072 -0.4722
 4891TIP3    H138868   1.599   1.873  17.946 -1.8951 -0.8838 -1.5529
 4891TIP3    H238869   1.643   2.014  17.912  2.4878 -0.3807  4.6529
 4892TIP3   OH238870   3.182   2.356  15.648 -0.6467  0.0709 -0.4091
 4892TIP3    H138871   3.254   2.328  15.591 -2.4392  1.7254 -3.8056
 4892TIP3    H238872   3.109   2.297  15.626 -1.3626  0.6500  0.3220
 4893TIP3   OH238873   5.274   1.757  17.609 -0.2958  0.0025 -0.0170
 4893TIP3    H138874   5.334   1.784  17.539 -2.7945  0.4536 -2.1851
 4893TIP3    H238875   5.276   1.662  17.608  0.3277  0.0161 -0.1128
 4894TIP3   OH238876   1.677   6.629  15.206 -0.2515 -0.0454 -0.0645
 4894TIP3    H138877   1.652   6.680  15.283  0.5603  0.8396 -0.3713
 4894TIP3    H238878   1.748   6.573  15.237  0.5663  0.8189 -0.3106
 4895TIP3   OH238879   6.460   3.115  17.944 -0.3615 -0.3054  0.2668
 4895TIP3    H138880   6.492   3.030  17.974  1.5497  0.6288  1.0663
 4895TIP3    H238881   6.528   3.147  17.886 -1.9222 -0.0769 -1.5206
 4896TIP3   OH238882   4.017   4.417  17.073  0.0139  0.5316 -0.1173
 4896TIP3    H138883   4.019   4.509  17.046 -0.4153  0.0505 -1.9337
 4896TIP3    H238884   3.960   4.415  17.150  1.2243  1.9763  0.8784
 4897TIP3   OH238885   4.798   6.422  15.682  0.4939  0.1332  0.4940
 4897TIP3    H138886   4.768   6.478  15.754 -0.5561 -0.1732  0.3138
 4897TIP3    H238887   4.721   6.412  15.626  1.0517 -0.3690 -0.2014
 4898TIP3   OH238888   4.321   5.867  17.737 -0.0534 -0.1382 -0.6443
 4898TIP3    H138889   4.304   5.773  17.746  0.4832 -0.0012  3.5318
 4898TIP3    H238890   4.260   5.909  17.798  2.2157  1.8635  0.4143
 4899TIP3   OH238891   3.858   0.241  16.858 -0.6809  0.3902 -0.1623
 4899TIP3    H138892   3.789   0.180  16.832 -0.2593 -0.4470  0.6104
 4899TIP3    H238893   3.867   0.300  16.783 -0.8753 -0.7032 -1.0931
 4900TIP3   OH238894   0.272   2.807  17.841  0.5180 -0.4429 -0.2337
 4900TIP3    H138895   0.227   2.891  17.843  2.3762  0.6078  0.0020
 4900TIP3    H238896   0.349   2.822  17.787  1.7916 -1.4788  1.1872
 4901TIP3   OH238897   3.191   5.237  18.023 -0.0588 -0.2420  0.2499
 4901TIP3    H138898   3.164   5.327  18.043  0.3687  0.1609 -0.9007
 4901TIP3    H238899   3.122   5.203  17.965 -0.1715 -0.6243  0.6063
 4902TIP3   OH238900   4.771   0.206  15.915  0.1302 -0.2018  0.0274
 4902TIP3    H138901   4.798   0.292  15.948 -1.1364  0.3659 -0.3803
 4902TIP3    H238902   4.818   0.144  15.971 -0.0514  0.7465  1.2848
 4903TIP3   OH238903   4.421   6.733  16.573  0.3442 -0.1495  0.2914
 4903TIP3    H138904   4.358   6.767  16.637 -0.6931  1.8808 -1.6508
 4903TIP3    H238905   4.374   6.736  16.489  2.1688 -1.1146 -0.8324
 4904TIP3   OH238906   2.079   2.093  15.449 -0.3452 -0.0798  0.1128
 4904TIP3    H138907   2.171   2.089  15.477 -0.3738 -0.8835  0.1321
 4904TIP3    H238908   2.029   2.069  15.526 -0.4186 -2.3935 -0.5522
 4905TIP3   OH238909   2.795   0.447  16.579  0.6003 -0.0459 -0.7307
 4905TIP3    H138910   2.792   0.426  16.486 -3.6564  0.5127 -0.8953
 4905TIP3    H238911   2.711   0.489  16.598  0.0592 -2.4969  3.8842
 4906TIP3   OH238912   5.511   1.596  17.768 -0.3683 -0.3306 -0.3652
 4906TIP3    H138913   5.456   1.566  17.696 -1.1641  1.9636 -0.8215
 4906TIP3    H238914   5.450   1.611  17.840  0.2773 -1.6199  0.4775
 4907TIP3   OH238915   0.870   5.511  15.929  0.6994 -0.3119  0.0598
 4907TIP3    H138916   0.808   5.453  15.975  2.1214 -2.0839 -0.1506
 4907TIP3    H238917   0.820   5.545  15.854 -0.6806  0.1141  1.1357
 4908TIP3   OH238918   5.564   0.341  16.639  0.0630 -0.7717  0.1660
 4908TIP3    H138919   5.553   0.271  16.703  0.9918  0.0362  1.2546
 4908TIP3    H238920   5.495   0.404  16.660 -1.4890 -1.8031 -1.5194
 4909TIP3   OH238921   5.810   2.685  15.161 -0.1044  0.2662  0.3840
 4909TIP3    H138922   5.738   2.642  15.207  1.3078 -1.6630  0.9177
 4909TIP3    H238923   5.884   2.677  15.220  1.1159  0.0929 -1.1084
 4910TIP3   OH238924   5.753   1.221  15.965 -0.0457  0.0454  0.0622
 4910TIP3    H138925   5.733   1.216  15.872  1.4158  1.1405 -0.3501
 4910TIP3    H238926   5.787   1.310  15.978 -0.7160  0.0938  1.7509
 4911TIP3   OH238927   6.472   3.458  15.446 -0.0297 -0.0622 -0.0447
 4911TIP3    H138928   6.474   3.374  15.400  0.0719  0.8396 -1.7797
 4911TIP3    H238929   6.498   3.522  15.380 -2.5240  1.6686  0.4872
 4912TIP3   OH238930   2.118   1.589  17.470 -0.0449  0.3131 -0.4314
 4912TIP3    H138931   2.194   1.560  17.421  0.9237  1.5557  0.2800
 4912TIP3    H238932   2.125   1.544  17.555  0.2081  0.8479 -0.1656
 4913TIP3   OH238933   1.727   4.135  16.390  0.8017  0.0392  0.2651
 4913TIP3    H138934   1.731   4.046  16.355  1.4710  0.4233 -0.6685
 4913TIP3    H238935   1.757   4.126  16.481  0.3328 -0.7625  0.3542
 4914TIP3   OH238936   3.266   4.586  15.213 -0.2309  0.1066  0.4790
 4914TIP3    H138937   3.216   4.516  15.253 -2.7542  0.8982 -1.0512
 4914TIP3    H238938   3.338   4.541  15.167 -0.5176 -1.2451  1.3025
 4915TIP3   OH238939   2.286   0.472  15.298  0.2003 -0.6380  0.0763
 4915TIP3    H138940   2.313   0.400  15.355  1.0932 -0.2627  0.1291
 4915TIP3    H238941   2.293   0.550  15.353  1.5679 -0.2028 -0.6847
 4916TIP3   OH238942   5.118   5.989  16.819  0.1694  0.4267  0.1471
 4916TIP3    H138943   5.102   5.976  16.912 -0.3023  0.3614  0.0573
 4916TIP3    H238944   5.055   5.932  16.775 -0.8720  1.8063 -0.2296
 4917TIP3   OH238945   0.036   2.151  18.195  0.4018  0.1212 -0.4471
 4917TIP3    H138946  -0.057   2.160  18.176 -0.0764 -2.0579  0.5516
 4917TIP3    H238947   0.080   2.176  18.113 -0.9976  1.4959 -0.8290
 4918TIP3   OH238948   6.614   3.681  15.026 -0.3800 -0.2589  0.0601
 4918TIP3    H138949   6.552   3.696  14.954 -0.1911 -1.2895 -0.3299
 4918TIP3    H238950   6.692   3.648  14.983  0.3898  0.8200  0.5702
 4919TIP3   OH238951   6.221   3.259  17.968 -0.1759  0.8249  0.4011
 4919TIP3    H138952   6.146   3.200  17.972 -0.9839  1.6126 -1.7004
 4919TIP3    H238953   6.297   3.201  17.968 -0.9489 -0.3276 -1.8958
 4920TIP3   OH238954   2.416   1.869  17.598 -0.1369 -0.1177 -0.0702
 4920TIP3    H138955   2.427   1.821  17.515  0.5490 -2.6400  1.3482
 4920TIP3    H238956   2.344   1.823  17.642  0.3007  0.3966  1.2138
 4921TIP3   OH238957   5.201   3.431  15.221 -0.6856 -0.2700 -0.1974
 4921TIP3    H138958   5.201   3.464  15.131 -0.1691  0.9078  0.2253
 4921TIP3    H238959   5.288   3.453  15.255 -1.6830  1.5401  1.3821
 4922TIP3   OH238960   4.354   3.338  15.636 -0.0342 -0.1153  0.5516
 4922TIP3    H138961   4.414   3.279  15.680 -0.6579 -1.0974  0.1387
 4922TIP3    H238962   4.407   3.414  15.611  1.3067 -1.4434 -0.7995
 4923TIP3   OH238963   2.114   3.121  16.634 -0.0778  0.0972  0.2706
 4923TIP3    H138964   2.060   3.042  16.645 -2.2019  1.3051 -0.9848
 4923TIP3    H238965   2.072   3.187  16.689  1.4703  0.5012  1.0205
 4924TIP3   OH238966   6.010   3.756  16.350 -0.7268  0.1905 -0.3299
 4924TIP3    H138967   6.057   3.722  16.274 -0.7049  0.7265 -0.5544
 4924TIP3    H238968   5.932   3.701  16.356  0.5017 -1.5390  0.7960
 4925TIP3   OH238969   6.065   5.765  16.451  0.0236  0.0833 -0.0106
 4925TIP3    H138970   6.143   5.747  16.397 -1.1576 -2.5920 -1.0311
 4925TIP3    H238971   6.094   5.744  16.540  1.1565  1.6184  0.0186
 4926TIP3   OH238972   1.138   0.199  14.529 -0.1935 -0.0135 -0.1186
 4926TIP3    H138973   1.219   0.184  14.480 -0.6045  0.8112 -1.0887
 4926TIP3    H238974   1.075   0.137  14.492 -0.2067 -0.1492  0.1289
 4927TIP3   OH238975   5.636   5.016  16.669 -0.4463  0.2684 -0.2569
 4927TIP3    H138976   5.572   5.080  16.639 -0.3622 -1.1636 -4.0053
 4927TIP3    H238977   5.583   4.945  16.705 -1.3074 -1.2614 -4.0460
 4928TIP3   OH238978   3.026   4.017  17.659 -0.2384 -0.6140  0.4082
 4928TIP3    H138979   3.071   3.982  17.735 -0.0003 -0.9148  0.1325
 4928TIP3    H238980   2.998   3.940  17.610 -0.9455 -0.4300  0.5116
 4929TIP3   OH238981   6.129   5.591  16.995  0.2878  0.8437 -0.0356
 4929TIP3    H138982   6.179   5.637  17.062  2.4113 -0.1452 -0.8655
 4929TIP3    H238983   6.154   5.499  17.006 -1.1251  0.3445 -0.7081
 4930TIP3   OH238984   2.856   5.946  16.195  0.5332 -0.7793 -0.4616
 4930TIP3    H138985   2.898   5.896  16.267 -0.5864 -0.6532  0.3022
 4930TIP3    H238986   2.810   5.879  16.144 -1.0355 -0.5652  0.6083
 4931TIP3   OH238987   3.372   6.334  17.719 -0.4382 -0.4801 -0.0386
 4931TIP3    H138988   3.378   6.331  17.623  0.5061  0.1624 -0.0115
 4931TIP3    H238989   3.280   6.354  17.736 -0.9041 -1.8189 -0.7660
 4932TIP3   OH238990   5.942   5.901  15.694 -0.2086  0.3699 -0.2139
 4932TIP3    H138991   5.857   5.862  15.716  0.4684 -1.9654 -1.2987
 4932TIP3    H238992   5.951   5.976  15.752 -3.8099  1.8484 -1.3133
 4933TIP3   OH238993   5.143   5.377  17.797 -0.1632  0.2514  0.1942
 4933TIP3    H138994   5.152   5.392  17.703  0.5100 -0.3447  0.1518
 4933TIP3    H238995   5.079   5.441  17.826  0.4297  1.1779 -0.4877
 4934TIP3   OH238996   5.787   4.350  16.061 -0.4160  0.7297 -0.4871
 4934TIP3    H138997   5.744   4.429  16.094 -0.7943 -0.0257  0.9380
 4934TIP3    H238998   5.746   4.279  16.111  2.8718 -0.0029  1.4406
 4935TIP3   OH238999   1.418   5.278  16.381  0.2619 -0.1522 -0.7530
 4935TIP3    H139000   1.478   5.210  16.350  0.8356 -0.4861  1.0314
 4935TIP3    H239001   1.387   5.246  16.465 -1.1289  0.8178 -0.8666
 4936TIP3   OH239002   5.957   0.939  15.623 -0.0973 -0.0904 -0.3854
 4936TIP3    H139003   5.892   0.875  15.592 -1.0795  1.1353 -0.9379
 4936TIP3    H239004   6.040   0.892  15.617 -0.5469 -0.7596 -2.5647
 4937TIP3   OH239005   4.880   3.032  16.846  0.0067 -1.0289 -0.4522
 4937TIP3    H139006   4.827   3.022  16.925 -0.7565  0.6299 -0.7183
 4937TIP3    H239007   4.861   2.953  16.794  0.0070 -1.8079  0.6946
 4938TIP3   OH239008   3.840   6.096  15.228  0.2146 -0.0104  0.2247
 4938TIP3    H139009   3.908   6.161  15.242 -0.2397  0.3776  0.6633
 4938TIP3    H239010   3.887   6.019  15.197  0.7584  0.5091 -0.2519
 4939TIP3   OH239011   0.103   3.554  14.962  0.0606 -0.2134  0.1253
 4939TIP3    H139012   0.144   3.574  14.879  1.7406 -0.3534  0.8766
 4939TIP3    H239013   0.164   3.586  15.028 -0.8684 -0.7631  1.3126
 4940TIP3   OH239014   2.313   4.880  16.093  0.3539  0.2277  0.3493
 4940TIP3    H139015   2.250   4.862  16.023  1.7101  0.9970 -1.1213
 4940TIP3    H239016   2.292   4.969  16.122 -2.7224 -1.2935  3.7705
 4941TIP3   OH239017   6.747   5.675  14.614  0.3233 -0.4270 -0.2430
 4941TIP3    H139018   6.770   5.768  14.608 -2.1388  0.1944 -0.8578
 4941TIP3    H239019   6.699   5.656  14.534  1.3004 -2.4473 -0.4252
 4942TIP3   OH239020   1.904   1.678  17.738 -0.4547 -0.0936  0.2684
 4942TIP3    H139021   1.893   1.590  17.703 -2.1907  0.1268  0.1788
 4942TIP3    H239022   1.944   1.664  17.824  1.4058 -0.7876 -0.6428
 4943TIP3   OH239023   4.875   3.424  16.933 -0.1874  0.3456 -0.0081
 4943TIP3    H139024   4.953   3.385  16.973  0.8647  2.3367  0.0456
 4943TIP3    H239025   4.909   3.500  16.884 -1.6330 -0.8135 -3.1095
 4944TIP3   OH239026   1.683   3.235  17.444 -0.3621  0.7022  0.5209
 4944TIP3    H139027   1.639   3.155  17.472 -0.8261  0.9200  0.4215
 4944TIP3    H239028   1.627   3.305  17.475 -0.1645  0.9816  0.2500
 4945TIP3   OH239029   1.176   1.426  15.159  0.4495 -0.3765 -0.4551
 4945TIP3    H139030   1.161   1.364  15.088 -0.4678  0.3368 -0.9206
 4945TIP3    H239031   1.172   1.512  15.116 -1.0051  0.1075  0.5596
 4946TIP3   OH239032   2.469   3.560  15.603  0.0899  0.0300 -0.2254
 4946TIP3    H139033   2.524   3.495  15.647  0.1709 -0.2861 -0.7805
 4946TIP3    H239034   2.461   3.527  15.513 -0.8484  0.1779 -0.2024
 4947TIP3   OH239035   1.042   3.818  15.631 -0.1969 -0.3298 -0.3896
 4947TIP3    H139036   1.074   3.866  15.554  1.6505  0.5292  0.8266
 4947TIP3    H239037   1.071   3.872  15.706 -2.1462 -1.0033  0.9095
 4948TIP3   OH239038   2.045   2.623  16.438  0.5277 -0.2417 -0.0832
 4948TIP3    H139039   2.070   2.550  16.494  0.9628 -0.7274 -0.8806
 4948TIP3    H239040   2.068   2.594  16.350  0.9525  0.9716 -0.3881
 4949TIP3   OH239041   0.806   3.060  15.762  0.1675  0.4278  0.1451
 4949TIP3    H139042   0.758   3.139  15.786  1.3264  1.3956 -0.6071
 4949TIP3    H239043   0.885   3.092  15.719  0.7115 -1.1477 -0.0967
 4950TIP3   OH239044   4.732   2.919  17.868 -0.0115  0.2407 -0.2737
 4950TIP3    H139045   4.657   2.947  17.921  0.2697 -0.6763  0.6251
 4950TIP3    H239046   4.706   2.834  17.832  0.0105  0.6141 -1.2162
 4951TIP3   OH239047   6.632   4.198  15.761 -0.2105  0.2170  0.0390
 4951TIP3    H139048   6.612   4.189  15.667 -0.7578  1.4898  0.0227
 4951TIP3    H239049   6.655   4.290  15.772  1.4308 -0.2505  0.8881
 4952TIP3   OH239050   6.252   2.288  17.534  0.4920  0.6479  0.3528
 4952TIP3    H139051   6.234   2.317  17.624  1.4840  0.3362  0.6725
 4952TIP3    H239052   6.310   2.213  17.545  0.4642  0.4915 -0.5463
 4953TIP3   OH239053   6.181   2.398  17.810 -0.3114  0.2549 -1.0817
 4953TIP3    H139054   6.128   2.365  17.882  0.3482 -0.4706 -0.9086
 4953TIP3    H239055   6.124   2.458  17.763 -1.3201 -0.5803 -0.9668
 4954TIP3   OH239056   0.131   3.883  16.840 -0.4514 -0.7166 -0.3150
 4954TIP3    H139057   0.193   3.906  16.909 -0.3540 -1.7711 -0.0403
 4954TIP3    H239058   0.079   3.963  16.827 -1.6590 -0.9828  2.2292
 4955TIP3   OH239059   5.316   1.711  16.079  0.3696 -0.0987 -0.1489
 4955TIP3    H139060   5.279   1.763  16.150  0.8778  1.3962 -0.9459
 4955TIP3    H239061   5.252   1.718  16.008  1.1766  0.7934 -0.8146
 4956TIP3   OH239062   1.539   0.819  17.988  0.4170 -0.0048 -0.2670
 4956TIP3    H139063   1.603   0.755  18.020  0.3888 -1.0422 -2.1799
 4956TIP3    H239064   1.454   0.782  18.010  0.3987 -0.6982 -1.4477
 4957TIP3   OH239065   3.796   1.519  17.655 -0.3871 -0.5718  0.6676
 4957TIP3    H139066   3.741   1.487  17.583 -1.4811  0.3304  1.0762
 4957TIP3    H239067   3.794   1.615  17.646 -0.5568 -0.4433  1.9109
 4958TIP3   OH239068   4.497   4.422  15.838  0.6506  0.0286  0.5157
 4958TIP3    H139069   4.435   4.350  15.836  0.1373  0.4763  0.0803
 4958TIP3    H239070   4.582   4.382  15.821  0.3161 -0.4099 -0.1315
 4959TIP3   OH239071   3.736   6.202  16.594  0.0537 -0.5691  0.6135
 4959TIP3    H139072   3.730   6.112  16.626 -0.3033 -1.2755 -1.2560
 4959TIP3    H239073   3.800   6.197  16.523 -1.1220  0.2949 -0.5623
 4960TIP3   OH239074   6.658   6.152  15.984 -0.5849  0.2345 -0.1134
 4960TIP3    H139075   6.687   6.061  15.987 -1.1097  0.0452 -0.5634
 4960TIP3    H239076   6.737   6.202  15.963 -0.2878 -0.1094  0.1698
 4961TIP3   OH239077   0.688   3.855  15.380 -0.0042 -0.1069 -0.8144
 4961TIP3    H139078   0.705   3.831  15.471 -0.6724  0.9336 -0.3997
 4961TIP3    H239079   0.705   3.949  15.376  2.0376 -0.4479 -2.2660
 4962TIP3   OH239080   1.092   1.994  17.708  0.1631 -0.1324  0.2594
 4962TIP3    H139081   1.151   1.919  17.712  2.2431  1.4606  2.1750
 4962TIP3    H239082   1.109   2.035  17.624  1.2164 -0.1528  0.4565
 4963TIP3   OH239083   1.785   6.679  16.157 -0.2796  0.0015  0.4826
 4963TIP3    H139084   1.756   6.762  16.196  1.1926  1.6175 -1.6276
 4963TIP3    H239085   1.852   6.646  16.218  0.5594  1.4278  0.3706
 4964TIP3   OH239086   5.751   6.232  16.079 -0.4373 -0.9305  0.7151
 4964TIP3    H139087   5.667   6.263  16.112 -0.2879 -1.7194  1.9154
 4964TIP3    H239088   5.810   6.306  16.090 -0.4966 -1.0358  1.8763
 4965TIP3   OH239089   4.474   1.316  14.621  0.2769 -0.6853  0.1303
 4965TIP3    H139090   4.556   1.266  14.617  1.0266  0.4858  0.4245
 4965TIP3    H239091   4.494   1.391  14.677 -0.9845 -0.3417  0.1521
 4966TIP3   OH239092   2.946   0.427  15.358  0.4429 -0.6620 -0.1568
 4966TIP3    H139093   2.966   0.348  15.309  0.7957 -0.1513 -0.8587
 4966TIP3    H239094   2.956   0.498  15.294 -0.4873 -0.1032  0.2974
 4967TIP3   OH239095   2.747   4.680  15.837  0.2633  0.0159 -0.0932
 4967TIP3    H139096   2.821   4.700  15.895 -0.0181 -1.5010  0.8356
 4967TIP3    H239097   2.670   4.703  15.888  0.0437  1.3173 -0.9543
 4968TIP3   OH239098   6.350   2.173  14.307  0.3181 -0.0526 -0.0250
 4968TIP3    H139099   6.292   2.119  14.360 -0.7868 -0.1767 -1.3196
 4968TIP3    H239100   6.434   2.125  14.308 -0.3163 -1.1988 -0.2239
 4969TIP3   OH239101   2.044   1.038  18.255  0.0344  0.0490 -0.5903
 4969TIP3    H139102   2.105   1.105  18.225 -0.0613  0.3659 -0.0756
 4969TIP3    H239103   2.078   1.011  18.341  1.3015 -2.0723 -1.6523
 4970TIP3   OH239104   5.203   2.147  15.848  1.0132 -0.0704 -0.3369
 4970TIP3    H139105   5.249   2.063  15.855  0.9955 -0.0936 -0.4828
 4970TIP3    H239106   5.252   2.206  15.906 -0.0214 -0.6279  1.1601
 4971TIP3   OH239107   4.522   0.746  14.701  0.5096 -0.1653 -0.3309
 4971TIP3    H139108   4.591   0.776  14.760  0.3019 -0.0448 -0.1480
 4971TIP3    H239109   4.485   0.670  14.745 -0.9360  1.0488  0.6495
 4972TIP3   OH239110   5.242   2.829  16.859 -0.5926 -0.4115 -0.7434
 4972TIP3    H139111   5.175   2.777  16.902 -1.1067 -0.1126 -1.1779
 4972TIP3    H239112   5.310   2.839  16.926 -1.1645 -0.3589 -0.1548
 4973TIP3   OH239113   2.758   3.911  15.326  0.5462  0.0862 -0.5210
 4973TIP3    H139114   2.784   3.821  15.307 -0.3376 -0.1478 -0.6650
 4973TIP3    H239115   2.707   3.904  15.407  1.4165  0.6148  0.0869
 4974TIP3   OH239116   1.448   2.281  15.098  0.6438 -0.3218  0.6426
 4974TIP3    H139117   1.441   2.237  15.013  0.6936  2.3863 -0.8908
 4974TIP3    H239118   1.539   2.312  15.101  0.1013  1.4310  0.6182
 4975TIP3   OH239119   4.801   5.689  15.965  0.3502 -0.0074  0.5784
 4975TIP3    H139120   4.850   5.719  15.888 -0.9473  1.6923  0.3772
 4975TIP3    H239121   4.866   5.642  16.017  0.8187 -3.4854 -2.6442
 4976TIP3   OH239122   6.768   2.024  14.821 -1.1126 -0.5222  0.1365
 4976TIP3    H139123   6.834   1.972  14.867 -0.8860 -1.6722 -1.4040
 4976TIP3    H239124   6.720   2.069  14.891  0.4428 -0.6732  1.3634
 4977TIP3   OH239125   3.612   6.579  17.206  0.7493 -1.2115  0.1225
 4977TIP3    H139126   3.534   6.592  17.152  0.3465 -1.5777  0.6077
 4977TIP3    H239127   3.685   6.602  17.148  0.2018  1.7401  0.4119
 4978TIP3   OH239128   3.141   3.157  16.462  0.1450 -0.1958 -0.4590
 4978TIP3    H139129   3.169   3.077  16.507 -0.5099 -0.3698 -0.3382
 4978TIP3    H239130   3.169   3.228  16.520 -1.7387 -0.4601  0.8851
 4979TIP3   OH239131   0.144   5.811  14.918  0.8523 -0.4122  0.0883
 4979TIP3    H139132   0.209   5.795  14.987  1.2472 -0.8690 -0.3753
 4979TIP3    H239133   0.190   5.789  14.837  0.4137  0.1797 -0.3280
 4980TIP3   OH239134   1.120   3.292  17.995  0.3017 -0.0728  0.1051
 4980TIP3    H139135   1.174   3.213  17.988  1.3874  0.6516  0.0814
 4980TIP3    H239136   1.095   3.296  18.087 -0.0158 -0.6103  0.0456
 4981TIP3   OH239137   0.574   4.603  14.877 -0.1175  0.6029 -0.2138
 4981TIP3    H139138   0.589   4.622  14.784 -2.3325  3.1734 -0.1803
 4981TIP3    H239139   0.516   4.527  14.878  1.0428 -0.3274 -0.8147
 4982TIP3   OH239140   3.087   6.083  16.598 -0.4771  0.6388 -0.0244
 4982TIP3    H139141   3.042   6.125  16.525 -2.4035 -0.1273  0.6524
 4982TIP3    H239142   3.160   6.036  16.558  0.2295  2.5428 -1.0688
 4983TIP3   OH239143   0.984   5.799  14.735 -0.5526 -0.2723  0.3787
 4983TIP3    H139144   0.924   5.864  14.771 -0.1467  0.6921 -0.6614
 4983TIP3    H239145   1.066   5.846  14.721  0.1831 -1.3421  0.8767
 4984TIP3   OH239146   3.613   1.317  16.407 -0.2027  0.5239 -0.2640
 4984TIP3    H139147   3.570   1.372  16.341  1.3026  1.6834 -0.3449
 4984TIP3    H239148   3.666   1.256  16.356  0.9467  1.4077 -0.1979
 4985TIP3   OH239149   1.584   3.131  18.011  0.1355 -0.5888  0.2447
 4985TIP3    H139150   1.658   3.102  17.958  0.2018 -0.8717  0.4898
 4985TIP3    H239151   1.610   3.113  18.101 -0.1742 -0.5628  0.3404
 4986TIP3   OH239152   3.514   0.507  15.064  0.8336 -0.3322 -0.6304
 4986TIP3    H139153   3.510   0.451  14.986 -0.0040 -2.1783  0.6683
 4986TIP3    H239154   3.476   0.453  15.134  1.0373  1.4769  0.9403
 4987TIP3   OH239155   3.105   5.988  14.995  0.4606 -0.5625  0.3799
 4987TIP3    H139156   3.189   5.944  15.007  0.8477 -0.0291 -0.3240
 4987TIP3    H239157   3.048   5.921  14.958  0.3397 -1.1504  1.5970
 4988TIP3   OH239158   5.882   1.059  16.863  0.3679  0.3235 -0.2399
 4988TIP3    H139159   5.822   1.117  16.816 -1.4834 -0.5505  0.9396
 4988TIP3    H239160   5.937   1.119  16.915 -0.0096  1.1017 -0.7151
 4989TIP3   OH239161   2.625   3.343  16.032  0.2400  0.0102  0.1272
 4989TIP3    H139162   2.534   3.312  16.027  0.0302  0.5070  0.8554
 4989TIP3    H239163   2.626   3.407  16.103  0.9394  0.7751 -0.5395
 4990TIP3   OH239164   4.761   0.177  17.566  0.7584  0.2489  0.5940
 4990TIP3    H139165   4.812   0.236  17.511  1.0798 -1.5194 -1.1406
 4990TIP3    H239166   4.726   0.112  17.505 -0.7416 -0.5598  2.2149
 4991TIP3   OH239167   4.125   5.007  17.454 -0.0110  0.1743 -0.2935
 4991TIP3    H139168   4.217   5.020  17.429  0.8539 -1.6006  1.6421
 4991TIP3    H239169   4.123   5.027  17.547 -1.2878 -1.1044 -0.0188
 4992TIP3   OH239170   2.497   1.367  17.258 -0.0548  0.7779 -0.2698
 4992TIP3    H139171   2.474   1.348  17.349  1.5328 -0.2323 -0.0277
 4992TIP3    H239172   2.586   1.332  17.249 -0.1036  1.0686 -2.1514
 4993TIP3   OH239173   3.354   6.034  15.447 -0.2968  0.4495 -0.4865
 4993TIP3    H139174   3.406   6.113  15.465  1.2198 -0.5864 -0.0555
 4993TIP3    H239175   3.266   6.056  15.478  0.3519  1.5867  0.6788
 4994TIP3   OH239176   0.594   5.541  15.292  0.5603 -0.3598  0.2327
 4994TIP3    H139177   0.606   5.595  15.370 -0.2800 -1.5659  1.2297
 4994TIP3    H239178   0.617   5.599  15.219 -2.4428  2.1399  1.0603
 4995TIP3   OH239179   1.498   1.504  16.998 -0.2804  0.2959  0.3464
 4995TIP3    H139180   1.542   1.566  16.940  0.8249  2.5922  3.4292
 4995TIP3    H239181   1.513   1.419  16.957  3.3711  1.4060 -1.0089
 4996TIP3   OH239182   3.869   4.912  17.389  0.6960 -0.6725 -0.3550
 4996TIP3    H139183   3.957   4.939  17.416  0.4431  0.2186 -0.3942
 4996TIP3    H239184   3.810   4.955  17.452  0.2952 -1.4431 -0.1922
 4997TIP3   OH239185   3.133   6.605  17.097  0.1397  0.3939 -0.0670
 4997TIP3    H139186   3.058   6.637  17.147  0.7762 -0.5199  1.5657
 4997TIP3    H239187   3.097   6.585  17.011 -1.0283  1.9380  0.0154
 4998TIP3   OH239188   2.801   5.977  16.940 -0.3206  0.5896  0.3178
 4998TIP3    H139189   2.894   5.984  16.919 -0.9456  2.3999 -2.2951
 4998TIP3    H239190   2.775   6.064  16.968 -1.5317  0.5615 -0.6010
 4999TIP3   OH239191   5.683   0.415  17.343 -0.2970 -0.1083 -0.1045
 4999TIP3    H139192   5.674   0.440  17.252  2.1598  0.4968 -0.2494
 4999TIP3    H239193   5.731   0.331  17.340 -0.2137 -0.0929  0.6092
 5000TIP3   OH239194   4.059   4.672  17.028 -0.1269 -0.3057  0.0678
 5000TIP3    H139195   4.076   4.706  17.116 -1.0352 -0.6176  0.3717
 5000TIP3    H239196   4.137   4.697  16.978 -0.4163  1.5186  0.4694
 5001TIP3   OH239197   4.661   1.005  16.208 -0.6992  0.2624 -0.2063
 5001TIP3    H139198   4.627   1.082  16.162 -1.5891 -0.6278 -1.0911
 5001TIP3    H239199   4.592   0.980  16.269  0.3284  1.2169  1.4188
 5002TIP3   OH239200   5.123   3.415  14.846  0.7103 -0.0863  0.6803
 5002TIP3    H139201   5.217   3.402  14.862  0.5406 -1.2425  0.8152
 5002TIP3    H239202   5.120   3.472  14.769  1.5287 -1.1183 -0.1405
 5003TIP3   OH239203   2.403   4.509  16.896  0.1116 -0.4741 -0.0607
 5003TIP3    H139204   2.315   4.488  16.927  0.0789 -2.5622 -1.4311
 5003TIP3    H239205   2.390   4.553  16.812  0.3735 -0.1627  0.0555
 5004TIP3   OH239206   0.242   2.299  14.453 -0.1629  0.1172  0.4261
 5004TIP3    H139207   0.252   2.286  14.359 -0.6294  0.6896  0.2916
 5004TIP3    H239208   0.151   2.276  14.472  0.4470 -1.9472  1.0950
 5005TIP3   OH239209   4.435   3.868  15.012  0.1233 -0.1403 -0.3475
 5005TIP3    H139210   4.489   3.803  15.055  0.8448 -0.9844 -2.4265
 5005TIP3    H239211   4.349   3.827  15.005  0.1184 -0.1697 -0.1318
 5006TIP3   OH239212   3.124   3.531  17.578  0.3677  0.1694 -0.4244
 5006TIP3    H139213   3.166   3.488  17.503  0.1201 -0.8348 -0.0093
 5006TIP3    H239214   3.116   3.461  17.643 -0.6534  0.7002  0.0308
 5007TIP3   OH239215   3.955   0.946  15.348  0.3937  0.2040  0.8573
 5007TIP3    H139216   4.020   1.006  15.312  0.4206  0.4627  1.3246
 5007TIP3    H239217   3.964   0.956  15.443  0.9182 -1.0949  0.9590
 5008TIP3   OH239218   2.893   2.196  15.334 -0.2110  0.3537 -0.4333
 5008TIP3    H139219   2.969   2.150  15.299 -0.7964 -1.0036  0.0248
 5008TIP3    H239220   2.903   2.192  15.429 -0.4734  0.8268 -0.3824
 5009TIP3   OH239221   6.282   2.922  16.395  0.0971 -0.4417 -0.5466
 5009TIP3    H139222   6.362   2.886  16.358 -0.6750 -2.1331 -0.6479
 5009TIP3    H239223   6.300   2.932  16.488  1.0204  0.9711 -0.8397
 5010TIP3   OH239224   3.747   3.681  16.246 -0.0309  0.0483  0.4327
 5010TIP3    H139225   3.841   3.674  16.228 -0.2658  0.7143 -1.2076
 5010TIP3    H239226   3.712   3.595  16.221 -0.2629  0.7678 -1.9371
 5011TIP3   OH239227   1.055   5.716  15.754  0.0091  0.2966  0.2552
 5011TIP3    H139228   1.083   5.807  15.760 -1.2799  0.6770  0.6577
 5011TIP3    H239229   1.128   5.672  15.710 -0.4446  2.0017 -2.3859
 5012TIP3   OH239230   4.176   5.728  15.751  0.2799 -0.2029  0.6618
 5012TIP3    H139231   4.231   5.651  15.760 -0.3323 -0.3918  3.8851
 5012TIP3    H239232   4.088   5.693  15.734  0.3511 -0.0836  0.0068
 5013TIP3   OH239233   4.432   2.191  14.940 -0.5427  0.0683 -0.2722
 5013TIP3    H139234   4.484   2.226  14.868 -1.4509  3.5528  0.5930
 5013TIP3    H239235   4.493   2.182  15.013 -0.3513  0.1829 -0.4191
 5014TIP3   OH239236   2.927   1.169  16.935 -0.1213  0.3853  0.5684
 5014TIP3    H139237   2.985   1.119  16.877 -1.2655 -0.4631  0.1032
 5014TIP3    H239238   2.943   1.132  17.022  0.6345  0.7418  0.5905
 5015TIP3   OH239239   1.556   4.124  14.626 -0.9176  0.3740  0.0380
 5015TIP3    H139240   1.475   4.176  14.620  0.4083  2.3322 -2.9603
 5015TIP3    H239241   1.528   4.035  14.604 -2.4035  0.8196 -0.0295
 5016TIP3   OH239242   1.105   5.992  15.818 -0.5017  0.4067  0.0992
 5016TIP3    H139243   1.059   6.076  15.823  0.2958  0.8925 -0.6783
 5016TIP3    H239244   1.182   6.004  15.873 -0.2433  0.2743 -0.2346
 5017TIP3   OH239245   0.230   6.040  15.682 -0.1903 -0.1700  0.4925
 5017TIP3    H139246   0.254   5.989  15.760  1.7490 -0.9839 -0.5755
 5017TIP3    H239247   0.254   6.130  15.705  1.1340 -0.5211  0.5769
 5018TIP3   OH239248   4.921   3.293  15.826 -0.0422  0.3681 -1.2077
 5018TIP3    H139249   4.854   3.298  15.895  1.3895  1.5771  0.1969
 5018TIP3    H239250   4.909   3.374  15.776 -0.3420  0.0459 -1.6589
 5019TIP3   OH239251   3.708   2.923  17.086 -0.4543  0.0659  0.0546
 5019TIP3    H139252   3.709   2.878  17.171 -1.4224 -1.6832 -0.8128
 5019TIP3    H239253   3.791   2.898  17.045 -0.4351  0.0901  0.0797
 5020TIP3   OH239254   2.668   1.328  16.116 -0.0753  0.5683  0.6753
 5020TIP3    H139255   2.626   1.273  16.050  0.1131  1.8954 -0.6100
 5020TIP3    H239256   2.599   1.387  16.146  0.3709  1.4746 -0.0306
 5021TIP3   OH239257   3.087   6.202  15.811  0.2072  0.8428 -0.3589
 5021TIP3    H139258   2.998   6.221  15.779  0.4925  2.7615 -0.1083
 5021TIP3    H239259   3.143   6.221  15.736  0.5892  1.9936  0.2006
 5022TIP3   OH239260   2.606   5.773  15.120 -0.2865  0.4185  0.4656
 5022TIP3    H139261   2.512   5.762  15.113 -0.3986  2.0926 -1.2564
 5022TIP3    H239262   2.637   5.780  15.030  1.3389  0.9304  1.0241
 5023TIP3   OH239263   2.342   5.719  16.756  0.1140 -0.1554 -0.3174
 5023TIP3    H139264   2.347   5.668  16.675 -1.0153  2.5508 -2.2737
 5023TIP3    H239265   2.430   5.755  16.767  0.0682  0.1359 -0.8623
 5024TIP3   OH239266   0.455   4.887  16.348  0.5316  0.1571  0.1271
 5024TIP3    H139267   0.528   4.930  16.393  1.2103 -0.1265 -0.6561
 5024TIP3    H239268   0.377   4.920  16.391  1.1543 -1.0420  2.3639
 5025TIP3   OH239269   4.678   1.802  16.328 -0.2819  0.2866  0.3404
 5025TIP3    H139270   4.697   1.895  16.313  0.6344 -0.1880 -1.7383
 5025TIP3    H239271   4.585   1.793  16.307 -0.3362  0.6970  0.3945
 5026TIP3   OH239272   3.017   2.029  15.813 -0.2539  0.1275  0.3067
 5026TIP3    H139273   3.051   2.066  15.894 -1.2461  1.5334  0.0966
 5026TIP3    H239274   2.969   1.951  15.840 -1.2229  1.0077  1.1652
 5027TIP3   OH239275   2.384   3.296  17.700  0.3891  0.1200  0.0345
 5027TIP3    H139276   2.432   3.215  17.718  2.9628  1.5507  0.0487
 5027TIP3    H239277   2.416   3.325  17.615 -0.3407  1.2580  0.1287
 5028TIP3   OH239278   4.064   0.716  16.054  0.8644  0.0442 -0.2323
 5028TIP3    H139279   4.043   0.660  15.980  1.0747 -1.2767  0.6775
 5028TIP3    H239280   4.135   0.670  16.099  0.0478  0.2820  1.3646
 5029TIP3   OH239281   3.220   5.779  16.548  0.5053  0.7453 -0.4206
 5029TIP3    H139282   3.313   5.797  16.534  0.1033  2.7776 -0.7716
 5029TIP3    H239283   3.213   5.760  16.641  0.9606  3.1467  0.1718
 5030TIP3   OH239284   5.107   1.309  18.171  0.0015  0.2884 -0.3492
 5030TIP3    H139285   5.069   1.248  18.235  0.3171  0.2947 -0.1529
 5030TIP3    H239286   5.035   1.369  18.150 -0.9958 -1.4320 -2.2151
 5031TIP3   OH239287   2.473   0.827  16.502  0.8662 -0.0821 -0.1354
 5031TIP3    H139288   2.380   0.831  16.484  0.7044  1.1904  0.8264
 5031TIP3    H239289   2.484   0.878  16.582  2.3154 -0.6297  0.0404
 5032TIP3   OH239290   0.658   2.723  17.192  0.4883  0.5904  0.0904
 5032TIP3    H139291   0.639   2.637  17.229 -0.2204  1.3718  1.6161
 5032TIP3    H239292   0.731   2.756  17.245  1.2263  0.6573 -0.9422
 5033TIP3   OH239293   2.276   0.618  16.130  0.3196 -0.2854 -0.4044
 5033TIP3    H139294   2.205   0.563  16.163 -0.2202 -0.6467 -2.0582
 5033TIP3    H239295   2.248   0.707  16.148  0.7133 -0.4716  1.3406
 5034TIP3   OH239296   5.567   5.942  16.578 -0.1304 -0.2861  0.2558
 5034TIP3    H139297   5.587   5.850  16.597  0.2674 -0.3283 -0.3532
 5034TIP3    H239298   5.587   5.952  16.485 -3.1824 -0.3847 -0.5342
 5035TIP3   OH239299   0.744   2.175  17.852  0.4185 -0.1318 -0.0790
 5035TIP3    H139300   0.719   2.146  17.764 -1.4351 -1.8291  0.9374
 5035TIP3    H239301   0.677   2.139  17.909  1.1778  1.5331  1.9915
 5036TIP3   OH239302   5.198   3.846  15.967 -0.1591 -0.1678 -0.2892
 5036TIP3    H139303   5.174   3.883  15.882 -1.2970 -0.5169 -0.1345
 5036TIP3    H239304   5.214   3.923  16.023  1.3020  0.0699 -0.9795
 5037TIP3   OH239305   0.965   5.911  15.568 -0.2733  1.1368  0.7468
 5037TIP3    H139306   1.017   5.831  15.570 -3.3755 -1.0629  0.7902
 5037TIP3    H239307   0.958   5.933  15.475 -0.5911  0.5041  0.6177
 5038TIP3   OH239308   0.386   5.042  17.550 -0.3607 -0.0202  0.0746
 5038TIP3    H139309   0.442   4.993  17.489  0.6772  0.8932  0.2479
 5038TIP3    H239310   0.404   5.134  17.530 -0.4028  0.2982  1.3799
 5039TIP3   OH239311   2.988   1.934  16.949 -0.0637  0.2132 -0.0700
 5039TIP3    H139312   2.957   1.865  17.008 -0.8872 -0.1944 -0.9546
 5039TIP3    H239313   3.002   2.010  17.007 -3.4299  0.6527  0.3777
 5040TIP3   OH239314   4.391   6.375  15.296 -0.1733 -0.1270 -0.5182
 5040TIP3    H139315   4.436   6.361  15.213 -2.2139  2.0598 -2.1198
 5040TIP3    H239316   4.416   6.464  15.322  0.6507 -0.8604  1.4459
 5041TIP3   OH239317   1.055   4.827  15.147 -0.2171 -0.7402  0.4227
 5041TIP3    H139318   1.058   4.817  15.242  1.6414  0.7171  0.5863
 5041TIP3    H239319   1.076   4.919  15.132 -0.9886 -0.8186 -1.3991
 5042TIP3   OH239320   0.037   5.341  14.472 -0.1084 -0.7111  0.1550
 5042TIP3    H139321   0.056   5.304  14.386  0.6614 -1.5678  0.6671
 5042TIP3    H239322  -0.022   5.414  14.455 -0.4622 -1.2535 -1.0424
 5043TIP3   OH239323   6.549   0.348  14.534  0.1891  0.2395 -0.0499
 5043TIP3    H139324   6.583   0.433  14.506 -1.0666  0.9914  0.5942
 5043TIP3    H239325   6.532   0.301  14.453 -1.2156  1.4827 -0.5100
 5044TIP3   OH239326   2.516   0.831  17.659  0.2275 -0.4904 -0.0946
 5044TIP3    H139327   2.482   0.788  17.737  1.5283  0.4712  1.0575
 5044TIP3    H239328   2.516   0.925  17.681  0.5098 -0.1915 -1.2899
 5045TIP3   OH239329   6.230   3.267  15.522  1.0315 -0.4226 -0.1352
 5045TIP3    H139330   6.314   3.311  15.534  0.0925  1.7693 -1.1790
 5045TIP3    H239331   6.198   3.253  15.611  1.3345  1.1146  0.2439
 5046TIP3   OH239332   4.541   6.259  17.014  0.0732  0.0792 -0.3848
 5046TIP3    H139333   4.610   6.318  16.985  0.6137 -0.9386 -1.2459
 5046TIP3    H239334   4.552   6.254  17.109  0.0121  1.3328 -0.2920
 5047TIP3   OH239335   4.000   1.676  17.984  0.7517 -0.0931  0.1556
 5047TIP3    H139336   3.973   1.591  18.019 -0.8289 -1.3944 -3.7697
 5047TIP3    H239337   4.076   1.657  17.929 -0.7056  0.5954 -2.2253
 5048TIP3   OH239338   5.573   6.128  17.641  0.6319  0.0217 -0.8116
 5048TIP3    H139339   5.605   6.123  17.551  0.9799  0.2524 -0.7061
 5048TIP3    H239340   5.649   6.104  17.694  0.2977 -0.5649 -0.5968
 5049TIP3   OH239341   0.029   6.674  15.291  0.1701 -0.1458 -0.3973
 5049TIP3    H139342   0.119   6.646  15.276 -0.5015 -2.2115 -0.9698
 5049TIP3    H239343  -0.022   6.629  15.224 -1.6177 -1.1793  1.5312
 5050TIP3   OH239344   1.356   2.697  16.260 -0.1882  0.1456 -0.2415
 5050TIP3    H139345   1.388   2.750  16.187 -0.8357 -1.7434 -1.9857
 5050TIP3    H239346   1.436   2.659  16.298  0.0188 -2.6169 -3.0469
 5051TIP3   OH239347   2.473   4.559  14.714  0.3935 -0.5499 -0.0822
 5051TIP3    H139348   2.416   4.614  14.768 -1.6718 -1.5746 -1.1090
 5051TIP3    H239349   2.475   4.475  14.760 -0.7552 -1.1936 -1.1655
 5052TIP3   OH239350   1.155   1.229  17.792 -0.3879  0.2746  0.0231
 5052TIP3    H139351   1.143   1.157  17.854  0.1004 -0.4592 -0.7013
 5052TIP3    H239352   1.128   1.193  17.708 -0.6394  1.1161 -0.2649
 5053TIP3   OH239353   3.834   5.847  15.919 -0.0171  0.1795  0.2374
 5053TIP3    H139354   3.870   5.932  15.896  0.5278  0.3832  1.7374
 5053TIP3    H239355   3.799   5.813  15.837 -0.0368  1.7387 -0.4358
 5054TIP3   OH239356   2.058   1.756  14.971  0.2228 -0.0094 -0.5259
 5054TIP3    H139357   2.099   1.735  15.055 -0.6520  0.4423  0.0384
 5054TIP3    H239358   2.083   1.846  14.953 -1.7584  0.8380  0.6361
 5055TIP3   OH239359   5.422   0.519  17.918 -0.0175  0.2677  0.1848
 5055TIP3    H139360   5.397   0.609  17.896  0.4948  0.3860  0.0911
 5055TIP3    H239361   5.338   0.474  17.930 -0.3650  0.1771 -2.0272
 5056TIP3   OH239362   1.699   5.549  16.804 -0.6695 -0.6413  0.0215
 5056TIP3    H139363   1.789   5.546  16.837  0.3141  1.8904 -2.0266
 5056TIP3    H239364   1.669   5.459  16.809  1.3165 -1.2896  2.4256
 5057TIP3   OH239365   0.773   3.524  14.946 -0.3394 -0.3980 -0.0618
 5057TIP3    H139366   0.678   3.525  14.957 -0.2411  2.9463  2.2305
 5057TIP3    H239367   0.787   3.484  14.861 -3.7937 -1.0230 -0.4955
 5058TIP3   OH239368   4.072   3.306  17.816 -0.3997 -0.4608  0.6239
 5058TIP3    H139369   4.091   3.238  17.750 -0.6274 -0.2244  0.3113
 5058TIP3    H239370   4.031   3.258  17.888  1.0009 -0.9222  1.1523
 5059TIP3   OH239371   0.327   1.657  17.889 -0.2192  0.7105 -0.1984
 5059TIP3    H139372   0.392   1.727  17.899 -0.0008  0.3650  0.9825
 5059TIP3    H239373   0.296   1.640  17.978  0.9373 -1.8068 -0.1859
 5060TIP3   OH239374   1.633   5.462  15.246 -0.0387 -0.1510 -1.1195
 5060TIP3    H139375   1.627   5.493  15.155 -0.2883  0.8715 -0.7768
 5060TIP3    H239376   1.727   5.457  15.263  0.0390  1.2804 -0.9415
 5061TIP3   OH239377   4.140   5.139  17.201  0.0650 -0.2717 -0.6443
 5061TIP3    H139378   4.078   5.086  17.151  0.4095 -2.7385  1.3408
 5061TIP3    H239379   4.151   5.092  17.284  1.0405  2.5492  0.9674
 5062TIP3   OH239380   6.233   4.891  15.744 -0.1801  0.1450 -0.1766
 5062TIP3    H139381   6.248   4.985  15.733  1.5708  0.1098  1.4922
 5062TIP3    H239382   6.234   4.877  15.838 -0.7296 -1.5278 -0.3869
 5063TIP3   OH239383   3.960   3.430  15.344  0.5962 -0.1071  0.5749
 5063TIP3    H139384   4.016   3.355  15.364  1.3959  0.4146  0.3440
 5063TIP3    H239385   4.012   3.484  15.285 -0.6690 -0.2750 -0.7672
 5064TIP3   OH239386   5.313   3.682  16.504 -0.3275 -0.4676 -0.4125
 5064TIP3    H139387   5.280   3.595  16.528  0.9839 -1.1856 -1.0792
 5064TIP3    H239388   5.344   3.672  16.414 -0.3127  0.7399 -0.5530
 5065TIP3   OH239389   6.412   3.048  14.615  0.2670 -0.0157 -0.3224
 5065TIP3    H139390   6.367   2.970  14.583  0.3260  0.1727 -0.8693
 5065TIP3    H239391   6.380   3.119  14.559  1.9047 -0.0148 -1.2960
 5066TIP3   OH239392   3.003   2.007  17.773 -0.6661 -0.0560  0.3093
 5066TIP3    H139393   2.927   2.062  17.751  0.2036  0.8826 -0.4633
 5066TIP3    H239394   3.066   2.068  17.812  0.6493 -0.2866 -1.3392
 5067TIP3   OH239395   4.386   0.924  17.748  0.0876 -0.0746 -0.3229
 5067TIP3    H139396   4.406   0.930  17.841  2.0805  0.9812 -0.7476
 5067TIP3    H239397   4.439   0.851  17.717 -1.7861 -1.4742 -0.3989
 5068TIP3   OH239398   2.097   6.539  16.189 -0.4284  0.2784  0.1082
 5068TIP3    H139399   2.169   6.497  16.143 -0.1927  0.8215 -0.0346
 5068TIP3    H239400   2.021   6.483  16.174  0.2635 -1.0933  1.4700
 5069TIP3   OH239401   1.346   6.088  15.939 -0.5557 -0.7118 -0.3225
 5069TIP3    H139402   1.330   6.157  16.003  1.2504  0.6810 -1.2838
 5069TIP3    H239403   1.414   6.034  15.979  1.0644  0.5483 -1.2576
 5070TIP3   OH239404   5.196   2.895  16.261 -0.0580 -0.5131  0.1849
 5070TIP3    H139405   5.142   2.818  16.277  0.4782 -0.9630 -0.1230
 5070TIP3    H239406   5.139   2.957  16.216 -0.5318 -0.6772  0.5573
 5071TIP3   OH239407   1.418   4.768  15.151  0.3398  0.5665 -0.1716
 5071TIP3    H139408   1.390   4.858  15.138  0.3992  0.5356 -0.5158
 5071TIP3    H239409   1.471   4.748  15.074  0.9849  0.4952  0.2826
 5072TIP3   OH239410   0.492   4.363  15.325 -0.6879  0.6682  0.3626
 5072TIP3    H139411   0.524   4.420  15.395  3.1548 -0.2761 -0.4113
 5072TIP3    H239412   0.543   4.388  15.248 -0.0862 -2.5715 -0.4326
 5073TIP3   OH239413   4.083   1.219  17.904  0.2900  0.1122  0.2234
 5073TIP3    H139414   4.005   1.242  17.853  0.7070  0.7169 -0.1620
 5073TIP3    H239415   4.050   1.165  17.975 -0.6641  1.4141  0.8138
 5074TIP3   OH239416   6.128   0.799  17.008 -0.5158 -0.0422 -0.3674
 5074TIP3    H139417   6.136   0.874  16.949 -0.4239 -0.0713 -0.3924
 5074TIP3    H239418   6.092   0.835  17.089 -0.9908 -0.0626 -0.5693
 5075TIP3   OH239419   6.532   5.193  17.328  0.2872  0.2280 -0.8085
 5075TIP3    H139420   6.614   5.217  17.285  1.0494 -1.7013 -0.5709
 5075TIP3    H239421   6.502   5.115  17.281 -3.1364  2.5565 -2.9348
 5076TIP3   OH239422   0.361   5.876  17.655 -0.1093  0.2504  0.1976
 5076TIP3    H139423   0.455   5.879  17.674 -0.1489 -1.7101  0.9384
 5076TIP3    H239424   0.323   5.942  17.713  0.5085 -1.1146  2.2915
 5077TIP3   OH239425   2.221   6.193  16.214 -0.0412  0.2223  0.2326
 5077TIP3    H139426   2.147   6.161  16.264 -0.5880  1.4616  0.2552
 5077TIP3    H239427   2.291   6.130  16.231 -0.6132 -0.1029  1.4750
 5078TIP3   OH239428   5.532   0.878  14.092 -0.0109  0.4448  0.1468
 5078TIP3    H139429   5.437   0.871  14.090  0.0030  0.3246 -1.5379
 5078TIP3    H239430   5.563   0.791  14.065  0.6004  0.2510  1.4275
 5079TIP3   OH239431   6.067   3.134  17.732 -0.3584  0.1504 -0.5830
 5079TIP3    H139432   6.090   3.227  17.727  1.6153 -0.1614  1.0905
 5079TIP3    H239433   6.139   3.090  17.686 -0.8037 -0.6146 -0.5556
 5080TIP3   OH239434   1.824   3.306  14.464 -0.1032 -0.1195  0.4257
 5080TIP3    H139435   1.822   3.292  14.559  0.1882  0.1422  0.4741
 5080TIP3    H239436   1.805   3.399  14.453 -0.8143 -0.2926  0.1836
 5081TIP3   OH239437   3.090   0.811  15.886 -0.2160  0.2098  0.0026
 5081TIP3    H139438   3.006   0.764  15.891 -0.1130  0.1013  1.1792
 5081TIP3    H239439   3.090   0.867  15.964 -0.0946  1.7741 -1.0798
 5082TIP3   OH239440   1.461   0.245  16.554  0.3461  0.1519 -0.0172
 5082TIP3    H139441   1.513   0.171  16.587  0.4698  0.4096  0.3782
 5082TIP3    H239442   1.413   0.209  16.480 -3.0550 -1.5888  2.7423
 5083TIP3   OH239443   3.237   0.127  18.168  0.0151 -0.1892 -0.2147
 5083TIP3    H139444   3.249   0.035  18.143  2.7716 -0.3586  1.3998
 5083TIP3    H239445   3.257   0.176  18.088 -0.8671 -0.9300 -0.9198
 5084TIP3   OH239446   4.205   5.424  15.182  0.1356 -0.8127  0.3446
 5084TIP3    H139447   4.173   5.483  15.113  0.8105  0.8610  1.4046
 5084TIP3    H239448   4.145   5.349  15.178 -1.0101  0.0972 -0.7950
 5085TIP3   OH239449   0.557   5.771  16.728 -0.3468  0.3003  0.0405
 5085TIP3    H139450   0.539   5.738  16.816  0.1023 -0.6010 -0.1980
 5085TIP3    H239451   0.510   5.711  16.670 -1.7488  1.6564 -0.3070
 5086TIP3   OH239452   0.159   1.543  17.365 -0.0625  0.0012 -0.6469
 5086TIP3    H139453   0.096   1.477  17.394  0.2330 -0.8574 -1.8723
 5086TIP3    H239454   0.241   1.517  17.406 -0.4704  1.1572  1.0027
 5087TIP3   OH239455   3.801   4.664  16.913 -0.1906 -0.2483  0.3816
 5087TIP3    H139456   3.882   4.676  16.963  0.0178  0.3497 -0.0821
 5087TIP3    H239457   3.827   4.677  16.822 -1.1284  1.8740  0.3487
 5088TIP3   OH239458   4.756   3.898  15.073  0.2179 -0.0081  0.5904
 5088TIP3    H139459   4.795   3.948  15.001 -0.3910 -1.0437 -0.4941
 5088TIP3    H239460   4.696   3.838  15.030 -1.1274  0.2185  2.0860
 5089TIP3   OH239461   6.702   5.198  16.437  0.1585 -0.1066  0.0964
 5089TIP3    H139462   6.693   5.160  16.350 -1.1603  0.8895 -0.2244
 5089TIP3    H239463   6.613   5.198  16.473  0.5502  0.3061  1.1048
 5090TIP3   OH239464   4.938   0.050  17.748  0.3025  0.1032  0.5160
 5090TIP3    H139465   4.879   0.063  17.673 -1.2044 -0.7878  1.5020
 5090TIP3    H239466   4.964  -0.042  17.742  1.2587  0.3750  0.3478
 5091TIP3   OH239467   2.555   5.117  16.635 -0.2084 -0.3956 -0.1174
 5091TIP3    H139468   2.521   5.043  16.685  0.5065 -1.7646 -1.5569
 5091TIP3    H239469   2.543   5.091  16.543  2.4181  0.1040 -0.6829
 5092TIP3   OH239470   4.217   6.103  16.751  0.4704  0.4988 -0.3407
 5092TIP3    H139471   4.225   6.199  16.756 -0.6172  0.5278  2.1519
 5092TIP3    H239472   4.295   6.070  16.796  0.2907  0.2329 -0.2258
 5093TIP3   OH239473   5.908   3.674  15.447  0.6549 -0.3263  0.1176
 5093TIP3    H139474   5.971   3.700  15.380 -1.1209  2.4813 -0.6177
 5093TIP3    H239475   5.888   3.755  15.494 -3.3961 -0.6969 -0.6199
 5094TIP3   OH239476   6.738   4.304  17.705 -0.0232  0.3607 -0.2550
 5094TIP3    H139477   6.693   4.224  17.680 -0.5097  1.1591 -2.0497
 5094TIP3    H239478   6.689   4.337  17.780 -1.3960  0.3053 -1.0969
 5095TIP3   OH239479   5.877   4.251  16.796  0.1889 -0.1846 -0.0978
 5095TIP3    H139480   5.928   4.233  16.717  1.1222  0.2173  0.4051
 5095TIP3    H239481   5.791   4.211  16.778 -0.0865  1.0553 -1.8731
 5096TIP3   OH239482   2.068   4.901  17.130 -0.7682  0.0950 -0.0707
 5096TIP3    H139483   2.069   4.909  17.226  0.1981 -0.9227  0.0236
 5096TIP3    H239484   2.126   4.972  17.100 -0.4364 -0.0849  0.1434
 5097TIP3   OH239485   3.445   1.151  16.218 -0.6430  0.4191  0.1049
 5097TIP3    H139486   3.452   1.244  16.239 -2.7902  1.1874 -2.1463
 5097TIP3    H239487   3.535   1.119  16.223  0.2500  2.7586  0.3488
 5098TIP3   OH239488   2.391   6.537  16.788 -0.0447 -0.0811  0.5398
 5098TIP3    H139489   2.397   6.454  16.740  0.2740 -0.4517  1.2102
 5098TIP3    H239490   2.466   6.536  16.847  0.2209  0.9044  0.2256
 5099TIP3   OH239491   2.846   0.097  15.931  0.2274  0.7437 -0.0745
 5099TIP3    H139492   2.898   0.177  15.921  1.5565 -0.1146 -0.3707
 5099TIP3    H239493   2.888   0.034  15.872 -0.7741 -0.1801  0.1759
 5100TIP3   OH239494   4.037   2.537  16.400 -0.5090 -0.1757 -0.0621
 5100TIP3    H139495   4.002   2.448  16.403  0.4947 -0.5420  1.1431
 5100TIP3    H239496   4.114   2.530  16.343 -1.7911  0.4579 -1.9952
 5101TIP3   OH239497   0.675   0.523  15.745 -0.4620 -0.1418  0.6708
 5101TIP3    H139498   0.658   0.457  15.678  0.5876  0.2864 -0.0448
 5101TIP3    H239499   0.677   0.474  15.828 -0.7120 -0.8411  0.2688
 5102TIP3   OH239500   4.704   3.605  18.052 -0.1512  0.1955  0.0927
 5102TIP3    H139501   4.769   3.566  18.111  1.3492  0.1959 -1.4838
 5102TIP3    H239502   4.742   3.690  18.028  0.3272 -0.6670 -2.4729
 5103TIP3   OH239503   0.902   0.548  17.802 -0.1795 -0.2619  0.8580
 5103TIP3    H139504   0.899   0.456  17.829 -0.3480 -0.3586  0.5247
 5103TIP3    H239505   0.884   0.545  17.708  0.5511  0.0517  0.7059
 5104TIP3   OH239506   2.963   3.516  16.087 -0.9035  0.4158 -0.2361
 5104TIP3    H139507   2.869   3.518  16.105 -1.1080 -0.7871 -1.1138
 5104TIP3    H239508   2.998   3.451  16.149 -0.5626  1.1733  0.3900
 5105TIP3   OH239509   1.638   5.042  15.096  0.4220  0.1666 -0.6389
 5105TIP3    H139510   1.544   5.029  15.089  0.3138 -0.1031  0.9071
 5105TIP3    H239511   1.676   4.975  15.039 -0.2994 -1.3524  0.5861
 5106TIP3   OH239512   0.167   4.977  16.793  0.4759  0.2539 -0.4047
 5106TIP3    H139513   0.260   4.963  16.772  0.0929  1.2294 -3.1968
 5106TIP3    H239514   0.135   4.890  16.816  1.6384 -0.5013 -1.4647
 5107TIP3   OH239515   3.662   0.937  15.387  0.2687 -0.4741  0.3501
 5107TIP3    H139516   3.666   0.953  15.481  0.5087  0.2995  0.2176
 5107TIP3    H239517   3.752   0.915  15.362  0.8129  1.9550 -0.1178
 5108TIP3   OH239518   3.196   1.125  16.388  0.6158 -0.3287 -0.3491
 5108TIP3    H139519   3.258   1.109  16.316 -0.0719 -0.7032 -0.8639
 5108TIP3    H239520   3.145   1.201  16.360  0.7314 -0.1183  0.0050
 5109TIP3   OH239521   5.091   1.329  15.116 -0.1168  0.2486 -0.6247
 5109TIP3    H139522   5.117   1.281  15.037 -1.0253 -0.5061 -0.4978
 5109TIP3    H239523   5.116   1.419  15.100  0.3985 -0.0391 -1.4605
 5110TIP3   OH239524   0.157   6.161  17.615  0.0128  0.0563  0.3689
 5110TIP3    H139525   0.092   6.124  17.555  0.3124  1.6618 -1.0597
 5110TIP3    H239526   0.241   6.134  17.578  0.1999  0.9153  0.1509
 5111TIP3   OH239527   3.598   1.964  15.012 -0.4712  0.0882  0.1122
 5111TIP3    H139528   3.625   1.999  15.096 -0.5070  3.2369 -1.0428
 5111TIP3    H239529   3.679   1.935  14.970 -0.2084  0.3330  0.4565
 5112TIP3   OH239530   2.834   6.284  17.999  0.3284  0.7606  0.3919
 5112TIP3    H139531   2.907   6.333  18.038  0.5898 -0.2581  1.2421
 5112TIP3    H239532   2.757   6.337  18.019  0.7211  1.3460  0.3805
 5113TIP3   OH239533   6.769   5.610  16.645 -0.4359 -0.3251  0.0341
 5113TIP3    H139534   6.755   5.586  16.553 -0.5053 -0.5376  0.0987
 5113TIP3    H239535   6.734   5.536  16.694  0.7221 -0.7850  0.2056
 5114TIP3   OH239536   3.057   4.304  17.652  0.0815  0.0886 -0.2315
 5114TIP3    H139537   3.110   4.333  17.578  0.6764  0.9928  0.5231
 5114TIP3    H239538   3.032   4.215  17.630 -0.3177  0.5621 -1.8249
 5115TIP3   OH239539   1.826   1.447  17.601 -0.0096 -0.4772  0.4820
 5115TIP3    H139540   1.879   1.405  17.533 -0.5044  0.3772 -0.4634
 5115TIP3    H239541   1.739   1.453  17.563 -0.5351 -0.8921  1.6088
 5116TIP3   OH239542   5.963   6.679  15.694  0.5301  0.0002  0.3657
 5116TIP3    H139543   6.034   6.732  15.660  0.1145 -0.1693 -0.7895
 5116TIP3    H239544   5.893   6.686  15.629 -0.0626 -0.8086  0.8869
 5117TIP3   OH239545   4.232   4.645  15.921 -0.2506 -0.2383 -0.3315
 5117TIP3    H139546   4.143   4.620  15.897 -0.2254 -0.1407 -0.5280
 5117TIP3    H239547   4.284   4.567  15.904 -0.4196 -0.5580  0.5239
 5118TIP3   OH239548   4.629   0.005  17.416 -0.0035  0.3820 -0.2748
 5118TIP3    H139549   4.648  -0.045  17.337  0.3130 -0.7991  0.5348
 5118TIP3    H239550   4.545   0.048  17.397 -0.7388 -1.1573 -0.6692
 5119TIP3   OH239551   4.222   0.305  17.914  0.0990 -0.0114 -0.0130
 5119TIP3    H139552   4.290   0.371  17.908 -1.2167  1.3846 -0.1674
 5119TIP3    H239553   4.143   0.349  17.881 -0.6188 -1.9525 -1.0713
 5120TIP3   OH239554   5.349   0.274  15.000 -0.3786 -0.1236 -0.0949
 5120TIP3    H139555   5.278   0.329  15.033 -0.6872 -0.2907 -0.4732
 5120TIP3    H239556   5.396   0.331  14.939  0.3654  0.2797  0.8155
 5121TIP3   OH239557   1.699   3.005  17.294  0.3978  0.1750 -0.4455
 5121TIP3    H139558   1.739   3.091  17.308 -0.6231  0.3553  1.8632
 5121TIP3    H239559   1.773   2.944  17.291  1.0657  0.9866 -0.8763
 5122TIP3   OH239560   1.033   4.338  16.310  0.4815  0.5134  0.1068
 5122TIP3    H139561   0.995   4.379  16.388  0.1856 -0.2067  0.3585
 5122TIP3    H239562   1.127   4.344  16.324  0.4376  1.0158  0.1868
 5123TIP3   OH239563   6.674   0.525  16.320 -0.2020 -0.2941  0.2606
 5123TIP3    H139564   6.686   0.620  16.319 -0.1534 -0.3031 -0.0117
 5123TIP3    H239565   6.580   0.514  16.331 -0.2680 -0.2083 -0.1710
 5124TIP3   OH239566   5.986   6.240  16.704 -0.4410  0.4837 -0.8359
 5124TIP3    H139567   6.035   6.276  16.630  1.4769 -0.9521 -0.3359
 5124TIP3    H239568   5.921   6.308  16.724  1.5699  2.6948 -1.2968
 5125TIP3   OH239569   0.466   2.611  16.486  0.3580 -0.1437  0.3399
 5125TIP3    H139570   0.481   2.678  16.420 -1.7943  0.1957  0.1387
 5125TIP3    H239571   0.431   2.659  16.561 -1.8572 -1.0470 -0.0362
 5126TIP3   OH239572   0.182   1.133  15.362  0.1971 -0.2686  0.2424
 5126TIP3    H139573   0.161   1.176  15.279 -0.1882  3.0826  1.8719
 5126TIP3    H239574   0.101   1.087  15.387 -0.5255  0.7646 -0.1201
 5127TIP3   OH239575   2.312   5.122  15.570  0.1123  0.5701 -0.4613
 5127TIP3    H139576   2.388   5.179  15.582  1.1728 -0.4476 -2.0923
 5127TIP3    H239577   2.348   5.034  15.568 -1.5278 -0.3090  2.3404
 5128TIP3   OH239578   2.572   5.878  17.189  0.4345 -0.1975  0.0895
 5128TIP3    H139579   2.658   5.913  17.169  0.0769  0.3550 -0.5114
 5128TIP3    H239580   2.584   5.783  17.190  0.9779 -0.1334 -0.3000
 5129TIP3   OH239581   1.800   3.886  15.533  0.0220  0.0137  0.0560
 5129TIP3    H139582   1.705   3.891  15.537  0.0290  0.9677 -0.7307
 5129TIP3    H239583   1.818   3.803  15.489 -0.4560  0.1651 -0.4246
 5130TIP3   OH239584   3.536   2.166  17.183 -0.2654 -0.7948 -0.5621
 5130TIP3    H139585   3.456   2.153  17.131 -0.5018  1.0535 -0.7394
 5130TIP3    H239586   3.512   2.234  17.247  1.2946  0.2077 -0.9773
 5131TIP3   OH239587   4.806   4.317  17.653  0.6433  0.1575  0.1532
 5131TIP3    H139588   4.771   4.390  17.704 -0.3118  0.7088 -1.2400
 5131TIP3    H239589   4.887   4.351  17.615  1.7324 -0.4820  1.8033
 5132TIP3   OH239590   5.169   5.844  17.067  0.0272  0.1463 -0.0871
 5132TIP3    H139591   5.127   5.871  17.148 -1.1874  1.4641 -1.1046
 5132TIP3    H239592   5.252   5.805  17.094 -0.5851  0.0833  1.7958
 5133TIP3   OH239593   0.770   5.362  15.350  0.5353  0.0005 -0.0205
 5133TIP3    H139594   0.695   5.409  15.315 -0.1457  0.9533  2.4910
 5133TIP3    H239595   0.751   5.270  15.334 -0.4376  0.3247 -0.7561
 5134TIP3   OH239596   5.945   1.430  15.074  0.1050  0.4691 -0.1807
 5134TIP3    H139597   5.950   1.381  15.156 -1.4605 -0.5489 -0.6567
 5134TIP3    H239598   6.029   1.416  15.031  0.2899 -0.4184  0.4618
 5135TIP3   OH239599   6.266   5.153  15.693  0.8091 -0.4411  0.0905
 5135TIP3    H139600   6.343   5.163  15.636  0.1241  0.5814 -0.7038
 5135TIP3    H239601   6.200   5.211  15.654  0.0781 -0.2576  1.5267
 5136TIP3   OH239602   2.349   0.991  15.594 -0.5209 -0.1713 -0.1108
 5136TIP3    H139603   2.278   1.021  15.651 -0.8571 -1.0200 -0.0643
 5136TIP3    H239604   2.396   1.071  15.570  0.6573  0.1103  2.6719
 5137TIP3   OH239605   4.748   0.917  15.568  0.2877  0.5922  0.0552
 5137TIP3    H139606   4.832   0.964  15.570  0.3841  0.4268 -0.0708
 5137TIP3    H239607   4.705   0.940  15.650 -0.6655  2.7558 -0.9578
 5138TIP3   OH239608   1.232   2.588  17.428 -0.8104  0.4656 -0.0120
 5138TIP3    H139609   1.165   2.573  17.361  0.3693 -0.9097 -0.9465
 5138TIP3    H239610   1.231   2.509  17.482  1.1533 -0.3522 -1.0735
 5139TIP3   OH239611   0.851   3.631  16.211 -0.2217 -0.1753  0.4902
 5139TIP3    H139612   0.874   3.713  16.167 -2.7032  0.5882  0.4662
 5139TIP3    H239613   0.851   3.653  16.304  0.6766 -0.6042  0.6010
 5140TIP3   OH239614   3.418   4.611  17.453  0.2670  0.4130 -1.3033
 5140TIP3    H139615   3.502   4.596  17.497 -0.2595 -0.7733 -0.6687
 5140TIP3    H239616   3.395   4.701  17.476  0.6946  0.2888 -0.3439
 5141TIP3   OH239617   6.009   1.379  17.767  0.1901  0.1237  0.1593
 5141TIP3    H139618   5.913   1.378  17.767  0.1847  0.4653 -0.4711
 5141TIP3    H239619   6.033   1.294  17.805 -0.3540  0.3534  1.0641
 5142TIP3   OH239620   6.457   5.694  16.511 -0.1417 -0.1409  0.1260
 5142TIP3    H139621   6.418   5.623  16.562 -0.1833 -0.9885 -1.0312
 5142TIP3    H239622   6.396   5.708  16.439 -0.5034  1.5969  0.7190
 5143TIP3   OH239623   2.718   5.751  16.461 -0.0815  0.5342  0.2378
 5143TIP3    H139624   2.759   5.812  16.521  0.8088  0.4872 -0.3027
 5143TIP3    H239625   2.646   5.801  16.421  0.7646  1.3117 -0.3548
 5144TIP3   OH239626   2.087   4.384  16.901 -0.2168 -0.1747 -0.5942
 5144TIP3    H139627   2.079   4.476  16.925 -0.1475  0.1443 -1.7528
 5144TIP3    H239628   2.077   4.337  16.984  0.7473  0.9127  0.1805
 5145TIP3   OH239629   1.035   5.096  17.920 -0.6585  0.0379 -0.3996
 5145TIP3    H139630   1.069   5.015  17.882 -0.7839  0.9818 -2.6279
 5145TIP3    H239631   0.958   5.068  17.970 -1.4307 -1.0857 -2.1504
 5146TIP3   OH239632   6.305   2.219  16.366 -0.4436  0.7175  0.3822
 5146TIP3    H139633   6.268   2.258  16.287  1.9205  1.7403 -0.3238
 5146TIP3    H239634   6.335   2.133  16.337  2.5803  1.9709 -0.6256
 5147TIP3   OH239635   0.658   3.112  15.122  0.0745  0.8511 -0.3391
 5147TIP3    H139636   0.564   3.101  15.108  0.0038  0.6997  0.2354
 5147TIP3    H239637   0.692   3.022  15.128 -0.3279  0.7842  3.1956
 5148TIP3   OH239638   1.848   1.511  14.963  0.8735  0.1359 -0.4292
 5148TIP3    H139639   1.899   1.433  14.944  0.8283  0.3723 -1.6091
 5148TIP3    H239640   1.764   1.478  14.997  1.5994 -0.2599  1.0910
 5149TIP3   OH239641   5.457   6.253  16.519 -0.6126  0.5002  0.4116
 5149TIP3    H139642   5.503   6.296  16.591 -1.6685  1.9068  0.2933
 5149TIP3    H239643   5.366   6.281  16.529 -0.7119  1.1459 -1.7345
 5150TIP3   OH239644   0.092   4.075  15.847 -0.2398 -0.1230 -0.1721
 5150TIP3    H139645   0.010   4.124  15.844  0.7845  1.6419 -0.8579
 5150TIP3    H239646   0.086   4.012  15.775 -0.7770  0.3519 -0.5498
 5151TIP3   OH239647   4.019   2.866  16.745 -0.3891 -1.1399 -0.4515
 5151TIP3    H139648   4.011   2.814  16.666 -3.1878 -0.4764 -0.6975
 5151TIP3    H239649   3.995   2.807  16.816  1.4732 -1.5426 -0.0828
 5152TIP3   OH239650   4.767   2.788  16.737 -0.0993 -0.3407 -0.1117
 5152TIP3    H139651   4.839   2.757  16.682 -0.5035 -0.9618 -0.2976
 5152TIP3    H239652   4.738   2.710  16.784  0.2598  0.1862  1.0212
 5153TIP3   OH239653   6.417   6.400  15.536 -0.3628  0.0973  0.1907
 5153TIP3    H139654   6.511   6.418  15.530 -0.7123  1.5981 -2.4811
 5153TIP3    H239655   6.394   6.419  15.626  2.1743 -2.0274  1.4147
 5154TIP3   OH239656   5.402   6.681  16.776 -0.1384  0.2298 -0.0377
 5154TIP3    H139657   5.418   6.598  16.821  0.4166 -0.2020 -1.0001
 5154TIP3    H239658   5.316   6.670  16.736  0.2105 -0.1305 -0.6969
 5155TIP3   OH239659   4.998   3.243  16.662 -0.6280  0.1147 -0.4153
 5155TIP3    H139660   4.950   3.164  16.638 -1.7653 -0.1874  2.4222
 5155TIP3    H239661   4.943   3.286  16.727  1.3679  1.6152  0.3923
 5156TIP3   OH239662   0.299   5.899  17.402 -0.2963  0.1642  0.0355
 5156TIP3    H139663   0.325   5.901  17.494  0.8160 -0.0999 -0.2579
 5156TIP3    H239664   0.247   5.819  17.393  1.0004 -0.7128  0.0902
 5157TIP3   OH239665   6.321   3.545  15.692  0.2933  0.5480  0.4799
 5157TIP3    H139666   6.359   3.516  15.609  0.0849  1.9381 -0.1210
 5157TIP3    H239667   6.368   3.495  15.759 -2.2317 -3.7365 -0.5467
 5158TIP3   OH239668   0.141   2.063  17.527 -0.4038  0.3283  0.5982
 5158TIP3    H139669   0.143   1.997  17.596  0.8686  0.1463  0.4136
 5158TIP3    H239670   0.140   2.012  17.446 -0.1502  0.5364  0.4627
 5159TIP3   OH239671   0.023   0.369  17.337 -0.0676 -0.3298  0.1895
 5159TIP3    H139672   0.081   0.332  17.270 -0.7950 -0.5893 -0.3053
 5159TIP3    H239673   0.082   0.393  17.409  0.7006 -0.2466 -0.4509
 5160TIP3   OH239674   0.300   6.498  16.522  0.8162  0.4366  0.4762
 5160TIP3    H139675   0.261   6.582  16.545 -0.7104 -0.3690  0.9535
 5160TIP3    H239676   0.314   6.503  16.427  0.6164  1.1746  0.4842
 5161TIP3   OH239677   4.295   0.365  17.455 -0.3499 -0.4462 -0.1334
 5161TIP3    H139678   4.244   0.406  17.525 -1.6764 -0.9670 -0.7517
 5161TIP3    H239679   4.386   0.379  17.480 -0.7877  0.4422  1.0646
 5162TIP3   OH239680   3.951   2.989  15.705 -0.2653  0.5997  0.2633
 5162TIP3    H139681   3.989   3.075  15.684  1.3666  0.0239  0.6510
 5162TIP3    H239682   3.931   2.950  15.620 -0.2791  1.0566  0.0539
 5163TIP3   OH239683   0.817   0.683  14.853  0.7698  0.0703 -0.6322
 5163TIP3    H139684   0.738   0.712  14.899  1.5456  1.2311  0.0094
 5163TIP3    H239685   0.810   0.723  14.766  0.5574 -0.0032 -0.6514
 5164TIP3   OH239686   0.216   5.305  15.437  0.3375  0.3892  0.3805
 5164TIP3    H139687   0.169   5.296  15.520 -0.0678  0.5897  0.1723
 5164TIP3    H239688   0.247   5.216  15.418 -1.0016  0.0128 -0.0955
 5165TIP3   OH239689   5.937   6.105  15.060  0.0562  0.1697 -0.1359
 5165TIP3    H139690   5.889   6.024  15.077  1.1969 -0.6459 -0.6787
 5165TIP3    H239691   5.988   6.120  15.139 -0.8289  0.8649  0.3173
 5166TIP3   OH239692   0.636   6.295  16.853 -0.2417 -0.1114 -0.0329
 5166TIP3    H139693   0.722   6.266  16.885  0.3516  2.2766  0.7593
 5166TIP3    H239694   0.573   6.258  16.915  0.2040 -1.6399 -0.4493
 5167TIP3   OH239695   2.882   1.036  15.171 -0.1146  0.2913  0.0260
 5167TIP3    H139696   2.920   1.039  15.084 -1.2755  1.4766 -0.4776
 5167TIP3    H239697   2.957   1.028  15.230  0.8227  1.2947 -0.9878
 5168TIP3   OH239698   2.806   5.214  17.600 -0.2965  0.3929  0.5863
 5168TIP3    H139699   2.884   5.268  17.588 -0.9307  1.2068  0.0034
 5168TIP3    H239700   2.803   5.159  17.522  0.8015 -1.1294  1.5525
 5169TIP3   OH239701   0.971   0.203  15.503 -0.4811  0.0972  0.7644
 5169TIP3    H139702   0.976   0.131  15.439 -1.4702 -0.2165  1.0236
 5169TIP3    H239703   0.979   0.282  15.450 -1.7819 -0.1478  0.1786
 5170TIP3   OH239704   2.465   6.517  14.908 -0.2385  0.1123  0.4850
 5170TIP3    H139705   2.399   6.565  14.959 -1.9602 -1.3276 -0.2693
 5170TIP3    H239706   2.438   6.425  14.915  2.9312 -0.8508  1.8705
 5171TIP3   OH239707   2.525   1.029  16.710  0.7185 -0.6087  0.1177
 5171TIP3    H139708   2.443   1.079  16.713  0.0698 -1.6476 -0.0318
 5171TIP3    H239709   2.590   1.088  16.749 -0.0623  0.2901  0.0943
 5172TIP3   OH239710   1.234   4.942  16.821  0.1447 -0.0126 -0.4794
 5172TIP3    H139711   1.328   4.955  16.836 -0.3489  2.1690  1.2111
 5172TIP3    H239712   1.192   4.986  16.895 -2.2535  0.1312 -1.8421
 5173TIP3   OH239713   1.486   2.417  16.831 -0.3473  0.1860  0.1919
 5173TIP3    H139714   1.569   2.445  16.871  0.3817 -0.6338 -0.6778
 5173TIP3    H239715   1.446   2.361  16.897 -0.0215  0.2815  0.4788
 5174TIP3   OH239716   0.650   4.496  15.141 -0.0336 -0.3061 -0.2224
 5174TIP3    H139717   0.634   4.519  15.049  2.2222  3.6996  0.1735
 5174TIP3    H239718   0.740   4.463  15.142 -0.4828 -1.5741  0.4522
 5175TIP3   OH239719   2.517   5.654  16.163 -0.2656 -0.6634  0.2747
 5175TIP3    H139720   2.450   5.595  16.129  1.1138 -1.3306 -1.4683
 5175TIP3    H239721   2.556   5.607  16.237 -1.8046 -0.1714  1.4504
 5176TIP3   OH239722   0.992   3.660  14.964  0.3475  0.2739  0.0976
 5176TIP3    H139723   1.013   3.645  14.872 -0.9163 -0.7984 -0.0338
 5176TIP3    H239724   0.933   3.589  14.988 -0.3304  1.2285  1.4041
 5177TIP3   OH239725   5.825   0.656  16.992 -0.2993 -0.1591  0.2882
 5177TIP3    H139726   5.919   0.664  17.004 -0.1922 -2.4560  1.3928
 5177TIP3    H239727   5.814   0.599  16.916 -0.7444 -1.2577  1.1510
 5178TIP3   OH239728   5.855   6.666  14.794 -0.4386 -0.2024 -0.1793
 5178TIP3    H139729   5.947   6.690  14.798 -0.2515 -0.5040 -2.0302
 5178TIP3    H239730   5.817   6.726  14.730 -1.0665 -1.4530 -1.0132
 5179TIP3   OH239731   2.202   6.066  14.561 -0.0760  0.2114  0.1262
 5179TIP3    H139732   2.287   6.072  14.518 -1.3636  2.0813 -2.4345
 5179TIP3    H239733   2.182   6.156  14.587 -1.8573  0.0933 -0.6707
 5180TIP3   OH239734   0.098   6.622  16.170  0.3556 -0.1661 -0.1685
 5180TIP3    H139735   0.020   6.573  16.143  0.8060 -0.4856 -0.9463
 5180TIP3    H239736   0.091   6.705  16.123  0.2106  0.0239  0.1894
 5181TIP3   OH239737   1.402   3.909  16.597  0.4328 -0.2927  0.3225
 5181TIP3    H139738   1.446   3.883  16.677  0.0153 -1.2290  0.2689
 5181TIP3    H239739   1.410   3.833  16.539 -2.6087 -1.2221  0.9011
 5182TIP3   OH239740   6.462   2.309  17.825 -0.2607  0.0498  0.1882
 5182TIP3    H139741   6.366   2.314  17.833 -0.5510 -1.8730 -1.2971
 5182TIP3    H239742   6.477   2.236  17.765  2.1710  0.2410  0.4714
 5183TIP3   OH239743   3.813   0.418  17.456  0.0092  0.6325  0.0551
 5183TIP3    H139744   3.849   0.503  17.481 -0.1629  0.8915 -0.5639
 5183TIP3    H239745   3.878   0.381  17.395  0.0894  0.3174  0.3290
 5184TIP3   OH239746   0.171   2.592  18.048 -0.5616 -0.3615  0.0333
 5184TIP3    H139747   0.248   2.632  18.008 -0.4488  0.3238  0.9018
 5184TIP3    H239748   0.206   2.519  18.100 -0.5996 -0.6333 -0.3244
 5185TIP3   OH239749   3.902   0.003  16.292 -0.0678  0.3222 -0.0411
 5185TIP3    H139750   3.928  -0.067  16.352 -1.0991  2.4486  3.1614
 5185TIP3    H239751   3.820  -0.028  16.253 -0.2186 -0.4971  0.8965
 5186TIP3   OH239752   4.413   1.718  18.275 -0.5488 -0.1185 -0.1214
 5186TIP3    H139753   4.412   1.672  18.192  0.7130  1.0096 -0.8028
 5186TIP3    H239754   4.393   1.809  18.253  1.8730  0.6220  0.4645
 5187TIP3   OH239755   1.187   1.721  17.768  0.1378 -0.7738 -0.6069
 5187TIP3    H139756   1.128   1.732  17.842  1.1598  0.9904  0.0010
 5187TIP3    H239757   1.189   1.626  17.753 -2.1125 -0.9420 -0.0961
 5188TIP3   OH239758   2.263   3.897  15.563  0.0674 -0.8059 -0.2051
 5188TIP3    H139759   2.269   3.821  15.504 -1.1032 -0.2767 -1.0415
 5188TIP3    H239760   2.231   3.861  15.646  1.1963 -1.4709 -0.0307
 5189TIP3   OH239761   3.052   4.873  17.447 -0.1038  0.2241  0.0274
 5189TIP3    H139762   3.054   4.957  17.400 -0.2287  0.0702 -0.2511
 5189TIP3    H239763   3.035   4.897  17.538  0.8323  0.5822  0.1241
 5190TIP3   OH239764   0.653   3.305  15.793 -0.0697 -0.1594  0.1040
 5190TIP3    H139765   0.680   3.381  15.843 -0.6934 -0.0819  0.3309
 5190TIP3    H239766   0.655   3.334  15.701 -0.2119  0.1064  0.1833
 5191TIP3   OH239767   4.858   4.040  16.908 -0.0284 -0.6854  0.2228
 5191TIP3    H139768   4.946   4.001  16.899  0.2196 -0.5971  1.9615
 5191TIP3    H239769   4.801   3.965  16.925  0.1232 -0.5170  1.5436
 5192TIP3   OH239770   4.379   3.102  17.014 -0.6693  0.1988 -0.0599
 5192TIP3    H139771   4.446   3.125  16.950 -3.0482  1.8961 -2.1339
 5192TIP3    H239772   4.351   3.014  16.989  0.2508 -0.2169  0.3540
 5193TIP3   OH239773   0.042   4.101  16.565  0.1644  0.4885 -0.4962
 5193TIP3    H139774   0.046   4.005  16.561  0.7924  0.5324 -1.1644
 5193TIP3    H239775  -0.050   4.122  16.549 -0.4285 -0.0741  1.8218
 5194TIP3   OH239776   5.119   4.668  15.073 -0.8306  0.4886 -0.3479
 5194TIP3    H139777   5.208   4.686  15.101 -0.9491  1.7058 -0.6942
 5194TIP3    H239778   5.095   4.587  15.118  0.1996  0.5206  0.2785
 5195TIP3   OH239779   3.676   6.394  15.373  0.2501  0.3767 -0.0882
 5195TIP3    H139780   3.655   6.487  15.382  0.0439  0.1343  3.0515
 5195TIP3    H239781   3.768   6.387  15.401  1.2382 -0.0589 -3.0946
 5196TIP3   OH239782   2.461   1.239  15.505  0.5127  0.2231 -0.1322
 5196TIP3    H139783   2.411   1.202  15.433  0.1530 -0.5139  0.4884
 5196TIP3    H239784   2.550   1.247  15.470  1.0286 -2.8488  0.2194
 5197TIP3   OH239785   2.911   5.627  17.846  0.8458 -0.0165 -0.2771
 5197TIP3    H139786   2.918   5.714  17.807  0.3392  0.9998  1.7522
 5197TIP3    H239787   2.818   5.608  17.846  0.9223 -0.4002 -0.3605
 5198TIP3   OH239788   5.707   2.999  17.757  0.0248  0.3543 -0.3854
 5198TIP3    H139789   5.738   3.088  17.772 -0.4294  0.5496 -0.5838
 5198TIP3    H239790   5.613   3.008  17.744  0.2722  0.1672 -2.7736
 5199TIP3   OH239791   0.115   3.057  16.882 -0.1524 -0.1257  0.0694
 5199TIP3    H139792   0.116   3.020  16.970 -2.2082  3.9399  2.0815
 5199TIP3    H239793   0.205   3.048  16.851  0.9224 -0.7803  3.0717
 5200TIP3   OH239794   0.439   1.209  17.645  0.6733 -0.5869 -0.0259
 5200TIP3    H139795   0.369   1.153  17.612 -0.7417 -0.0786  1.9352
 5200TIP3    H239796   0.462   1.170  17.729 -0.4465  1.7667  1.4634
 5201TIP3   OH239797   4.744   0.771  16.437  0.1812 -0.2792 -0.7644
 5201TIP3    H139798   4.716   0.688  16.477 -1.8687  1.2724  1.2888
 5201TIP3    H239799   4.830   0.752  16.400  0.0765 -3.1354  0.2079
 5202TIP3   OH239800   1.635   4.793  16.101 -0.5558 -0.4122 -0.3426
 5202TIP3    H139801   1.597   4.805  16.188  0.1454 -1.8073  0.1991
 5202TIP3    H239802   1.650   4.698  16.095  0.5985 -0.1831 -1.4607
 5203TIP3   OH239803   5.377   0.266  15.443 -0.2802 -0.6990  0.1155
 5203TIP3    H139804   5.306   0.295  15.386 -1.0480  1.4515  2.0086
 5203TIP3    H239805   5.332   0.223  15.516  0.3390  0.4173  1.1921
 5204TIP3   OH239806   5.506   1.318  16.459 -0.3247 -0.0867 -0.7811
 5204TIP3    H139807   5.428   1.263  16.453 -0.3042 -0.1013 -0.9146
 5204TIP3    H239808   5.500   1.378  16.385 -0.2223 -0.0720 -0.7786
 5205TIP3   OH239809   4.636   1.743  16.962  0.3417  0.0457 -0.1617
 5205TIP3    H139810   4.565   1.686  16.933  1.3834 -0.6894 -1.3636
 5205TIP3    H239811   4.715   1.702  16.928  1.5078  0.0487  2.3884
 5206TIP3   OH239812   3.540   5.504  16.744 -0.3875 -0.0777 -0.2634
 5206TIP3    H139813   3.606   5.457  16.693  1.7949  1.7535  0.6838
 5206TIP3    H239814   3.538   5.458  16.828  0.7901  0.6865  0.2063
 5207TIP3   OH239815   0.611   3.245  16.738  0.0239  0.2451  0.1870
 5207TIP3    H139816   0.663   3.259  16.660  0.2154  1.5958  0.5248
 5207TIP3    H239817   0.614   3.151  16.754 -1.4016 -0.3111 -2.3616
 5208TIP3   OH239818   2.623   3.012  16.124 -0.1499  0.1853  0.1757
 5208TIP3    H139819   2.548   2.998  16.182 -0.1609 -0.6144 -0.0173
 5208TIP3    H239820   2.601   3.091  16.076  0.9373  2.3274  2.9405
 5209TIP3   OH239821   6.729   0.136  16.925  0.2113  0.1545 -0.2742
 5209TIP3    H139822   6.705   0.215  16.974  0.4735  0.3888 -0.5192
 5209TIP3    H239823   6.818   0.153  16.894  0.1672 -0.1218 -0.5608
 5210TIP3   OH239824   2.984   2.733  15.237 -0.5510 -0.0817  0.2472
 5210TIP3    H139825   3.062   2.789  15.235 -0.1953 -0.5804 -0.0587
 5210TIP3    H239826   3.007   2.662  15.297 -1.1661  0.3334  0.9811
 5211TIP3   OH239827   2.761   3.084  17.875 -0.2057  0.2217  0.3661
 5211TIP3    H139828   2.811   3.149  17.825  1.3940 -0.7747  0.5766
 5211TIP3    H239829   2.780   3.104  17.966  1.0018 -0.9853  0.4268
 5212TIP3   OH239830   6.604   0.498  16.783 -0.0402  0.3058 -0.1574
 5212TIP3    H139831   6.513   0.503  16.752 -0.1461 -0.2470  0.0509
 5212TIP3    H239832   6.598   0.448  16.865  0.2254  1.7948  0.7992
 5213TIP3   OH239833   3.697   0.874  17.842  0.7123  0.3134  0.3846
 5213TIP3    H139834   3.708   0.956  17.792 -0.3243 -0.3015 -0.9100
 5213TIP3    H239835   3.634   0.896  17.910 -1.1090  0.1704 -1.1516
 5214TIP3   OH239836   0.684   4.681  15.670 -0.4644 -0.3820  0.0079
 5214TIP3    H139837   0.742   4.613  15.702 -0.2552 -0.0546  0.3259
 5214TIP3    H239838   0.614   4.686  15.736  0.3654  0.8201  0.8409
 5215TIP3   OH239839   6.286   5.757  16.287 -0.0870 -0.1006  0.3279
 5215TIP3    H139840   6.351   5.690  16.264 -1.1312 -1.2194  0.5458
 5215TIP3    H239841   6.248   5.783  16.203 -0.3853 -0.5328  0.3227
 5216TIP3   OH239842   5.128   3.648  16.132 -1.1371  0.2077 -1.0132
 5216TIP3    H139843   5.143   3.715  16.065  2.0405  0.1042 -0.5300
 5216TIP3    H239844   5.096   3.696  16.208 -1.4225  0.7923 -1.4891
 5217TIP3   OH239845   0.563   6.461  16.071  0.5051  0.4259  0.3411
 5217TIP3    H139846   0.629   6.495  16.131  0.0664  0.5108  0.7865
 5217TIP3    H239847   0.480   6.495  16.105  0.0070 -1.2625  0.9737
 5218TIP3   OH239848   5.833   6.399  15.408 -0.2536  0.5965 -0.0612
 5218TIP3    H139849   5.783   6.321  15.382 -0.5678  0.9755 -0.6000
 5218TIP3    H239850   5.780   6.473  15.379  0.8039  1.0066 -1.0262
 5219TIP3   OH239851   6.118   3.017  17.166 -0.2502  0.3736 -0.2495
 5219TIP3    H139852   6.172   2.951  17.211 -1.2039 -1.1741 -1.2765
 5219TIP3    H239853   6.177   3.055  17.101  0.2733  0.4377  0.2484
 5220TIP3   OH239854   1.259   1.580  17.086  0.1407  0.3277 -0.0518
 5220TIP3    H139855   1.340   1.551  17.045  0.5674 -2.7149  2.5885
 5220TIP3    H239856   1.272   1.565  17.179 -3.7306 -1.1358  0.4418
 5221TIP3   OH239857   3.860   4.874  15.028 -0.2146  0.0467  0.3382
 5221TIP3    H139858   3.828   4.827  14.951 -3.0727 -0.4207  1.6651
 5221TIP3    H239859   3.855   4.967  15.002 -0.4887 -0.1361 -0.2855
 5222TIP3   OH239860   3.912   4.258  15.742  0.0258  0.0453  0.3327
 5222TIP3    H139861   3.866   4.328  15.787 -0.1985  0.3541 -0.3663
 5222TIP3    H239862   3.946   4.298  15.662 -2.7566 -1.2640 -1.7074
 5223TIP3   OH239863   6.493   2.571  16.512  0.7219 -0.0146  0.1842
 5223TIP3    H139864   6.434   2.571  16.436  0.6656  1.1684  0.1988
 5223TIP3    H239865   6.524   2.662  16.517  0.7299 -0.0815  1.5763
 5224TIP3   OH239866   6.013   6.451  15.177 -0.6770 -0.2384  0.0757
 5224TIP3    H139867   6.082   6.400  15.219  0.4233  0.3594 -0.9502
 5224TIP3    H239868   5.977   6.505  15.248  0.1073 -0.3434  0.5667
 5225TIP3   OH239869   6.442   3.015  15.124 -0.1983  0.1518 -0.3392
 5225TIP3    H139870   6.387   3.003  15.047  0.2311 -0.4152 -0.5668
 5225TIP3    H239871   6.382   3.043  15.193 -0.9718 -1.4782 -0.3013
 5226TIP3   OH239872   5.343   2.917  15.925  0.3621 -0.0276 -0.0181
 5226TIP3    H139873   5.304   3.004  15.925  0.3964  0.0237  1.8790
 5226TIP3    H239874   5.409   2.920  15.994  0.1376 -1.6415  0.3097
 5227TIP3   OH239875   6.516   3.825  16.048 -0.3912 -0.2641 -0.0364
 5227TIP3    H139876   6.545   3.810  15.958  1.2507 -0.6859  0.5289
 5227TIP3    H239877   6.424   3.850  16.040 -0.2077 -0.0579 -1.8442
 5228TIP3   OH239878   2.951   1.058  14.667  0.3163  0.4568  0.3859
 5228TIP3    H139879   2.997   1.020  14.592  0.1126  1.4147 -0.2299
 5228TIP3    H239880   2.934   1.149  14.642 -1.2644  0.3286  0.8943
 5229TIP3   OH239881   5.557   0.141  16.801 -0.3162 -0.1769 -0.3899
 5229TIP3    H139882   5.508   0.059  16.799  1.6230 -1.3773 -1.0686
 5229TIP3    H239883   5.607   0.137  16.883 -0.6123  0.5956 -0.1606
 5230TIP3   OH239884   4.724   3.958  15.993  0.3811  0.1563  0.1739
 5230TIP3    H139885   4.637   3.936  15.959  0.2390  1.6513 -0.5438
 5230TIP3    H239886   4.766   3.874  16.009 -1.5311 -0.6242  1.4438
 5231TIP3   OH239887   5.186   0.024  15.268 -0.6078 -0.5572  0.0853
 5231TIP3    H139888   5.187   0.021  15.363 -0.0674  0.1629  0.1118
 5231TIP3    H239889   5.100  -0.009  15.243 -1.5269  1.1057  0.8920
 5232TIP3   OH239890   3.229   6.274  16.320  0.4868 -0.1406 -0.3072
 5232TIP3    H139891   3.206   6.275  16.227  0.0300 -1.2361 -0.2241
 5232TIP3    H239892   3.309   6.223  16.324 -1.2571 -3.0628  0.2105
 5233TIP3   OH239893   1.129   2.489  16.359  0.4918  0.6185 -0.3969
 5233TIP3    H139894   1.035   2.506  16.365  0.7529  1.7152  1.1130
 5233TIP3    H239895   1.165   2.567  16.316  0.7678  0.3776 -0.6095
 5234TIP3   OH239896   1.056   1.878  15.954  0.3623 -0.0169 -0.0630
 5234TIP3    H139897   1.004   1.827  15.892 -1.4815  1.9855 -0.3110
 5234TIP3    H239898   0.995   1.944  15.988  2.1453  0.9288  1.5230
 5235TIP3   OH239899   0.786   3.827  15.062  0.5829  0.2848 -0.3013
 5235TIP3    H139900   0.874   3.805  15.032  0.0705 -2.6280  0.0120
 5235TIP3    H239901   0.750   3.884  14.995  2.2998  0.5776 -1.0074
 5236TIP3   OH239902   4.648   6.294  16.438 -1.0017 -0.1243  0.7639
 5236TIP3    H139903   4.666   6.201  16.451 -0.5850 -0.0691  0.5969
 5236TIP3    H239904   4.734   6.335  16.440 -0.7113 -0.1776 -2.8894
 5237TIP3   OH239905   0.251   0.233  16.511  0.6175  0.4307  0.1258
 5237TIP3    H139906   0.182   0.264  16.453 -1.0978 -1.7316  0.8680
 5237TIP3    H239907   0.281   0.311  16.557 -0.9506  1.5137 -0.6083
 5238TIP3   OH239908   4.446   6.187  14.380 -0.3740  0.0443  0.0070
 5238TIP3    H139909   4.537   6.198  14.350  0.4134 -0.5012  2.0129
 5238TIP3    H239910   4.423   6.272  14.417 -0.0329 -0.3305  1.0947
 5239TIP3   OH239911   3.291   0.905  16.874 -0.5067 -0.1696  0.3427
 5239TIP3    H139912   3.314   0.920  16.782  0.1447  0.2342  0.5627
 5239TIP3    H239913   3.196   0.893  16.873 -0.7829  1.6295 -0.1833
 5240TIP3   OH239914   1.910   0.946  16.616 -0.0783  0.3283  0.0251
 5240TIP3    H139915   1.968   0.883  16.574  1.8572  2.9255 -1.4960
 5240TIP3    H239916   1.869   0.897  16.687  1.9157 -2.3778 -0.5236
 5241TIP3   OH239917   2.335   6.632  18.190  0.7442  0.0915 -0.5892
 5241TIP3    H139918   2.409   6.605  18.245  1.4291  1.4505 -0.8149
 5241TIP3    H239919   2.307   6.716  18.226 -1.2331 -0.7502 -0.0198
 5242TIP3   OH239920   6.045   1.716  16.716 -0.3016 -0.0343 -0.3062
 5242TIP3    H139921   6.134   1.705  16.750 -1.0901  1.5324  2.5508
 5242TIP3    H239922   6.038   1.810  16.699 -0.9027 -0.3820 -2.3156
 5243TIP3   OH239923   1.292   1.480  17.322  0.5072 -0.0683 -0.2866
 5243TIP3    H139924   1.359   1.420  17.354  1.2402 -0.0974 -1.8071
 5243TIP3    H239925   1.266   1.530  17.400  0.6610 -1.5818  0.7854
 5244TIP3   OH239926   3.157   4.188  17.388 -0.2677  0.2064 -0.1686
 5244TIP3    H139927   3.244   4.225  17.375 -0.6584  1.3459  0.2863
 5244TIP3    H239928   3.171   4.094  17.396  1.4823  0.5869  3.9834
 5245TIP3   OH239929   0.479   3.895  15.025 -0.2817  0.1628 -0.1919
 5245TIP3    H139930   0.447   3.828  14.965 -1.2004 -0.7041  1.2217
 5245TIP3    H239931   0.478   3.853  15.111  0.8191  1.4321  0.4731
 5246TIP3   OH239932   4.740   1.914  14.993 -0.0642  0.4877 -0.2821
 5246TIP3    H139933   4.789   1.989  14.958  2.7128 -1.6919 -1.4763
 5246TIP3    H239934   4.750   1.921  15.088  1.0622  1.0753 -0.4288
 5247TIP3   OH239935   6.057   6.587  17.413 -0.0173  0.1492  0.8696
 5247TIP3    H139936   6.015   6.515  17.365  1.9448  0.4432 -1.4647
 5247TIP3    H239937   6.044   6.664  17.358  0.9068  0.8702  1.6169
 5248TIP3   OH239938   5.032   2.777  18.115 -0.1396  0.1768  0.8953
 5248TIP3    H139939   5.014   2.871  18.103  0.5023 -0.0087 -2.9911
 5248TIP3    H239940   4.948   2.739  18.138 -0.6945  1.5349  1.2077
 5249TIP3   OH239941   3.717   6.137  15.470 -0.8636 -0.0282  0.5720
 5249TIP3    H139942   3.680   6.220  15.439 -1.9468 -0.4907  0.5839
 5249TIP3    H239943   3.755   6.098  15.391 -1.3605 -0.0349  0.3265
 5250TIP3   OH239944   1.885   0.035  15.350 -0.1744  0.0773 -0.2533
 5250TIP3    H139945   1.834   0.113  15.328  1.1593  0.7150 -1.1831
 5250TIP3    H239946   1.895   0.039  15.445  0.4688  1.4312 -0.3646
 5251TIP3   OH239947   1.972   5.779  17.290  0.1819 -0.0672  0.2875
 5251TIP3    H139948   1.996   5.871  17.298  2.3619 -0.5751  0.1455
 5251TIP3    H239949   1.948   5.752  17.379  3.1696 -0.2358  1.1503
 5252TIP3   OH239950   6.190   5.726  17.473 -0.2350 -0.2672  0.0160
 5252TIP3    H139951   6.160   5.806  17.518  0.6889 -0.1537  0.4598
 5252TIP3    H239952   6.255   5.689  17.533 -2.4396 -2.7620  1.0510
 5253TIP3   OH239953   2.290   5.930  16.996  0.1145 -0.1144 -0.2794
 5253TIP3    H139954   2.247   5.845  17.005 -1.5031  0.6847 -0.1686
 5253TIP3    H239955   2.254   5.967  16.915 -1.8458  1.8627  1.3665
 5254TIP3   OH239956   3.295   3.550  15.562 -0.2716  0.9428  0.1223
 5254TIP3    H139957   3.379   3.556  15.607 -1.7692  0.9617  3.2268
 5254TIP3    H239958   3.251   3.632  15.584 -1.2810  0.7462 -1.0622
 5255TIP3   OH239959   0.353   4.079  16.262 -0.4122 -0.2339  0.1872
 5255TIP3    H139960   0.323   4.054  16.174  0.1005  0.9838 -0.3573
 5255TIP3    H239961   0.427   4.022  16.280 -0.2480 -0.1944 -0.3611
 5256TIP3   OH239962   6.513   3.042  15.457  0.5017  0.6199 -0.4064
 5256TIP3    H139963   6.597   3.085  15.469  1.0735 -0.8881  1.4787
 5256TIP3    H239964   6.525   2.986  15.381  1.3902  0.0439  0.1421
 5257TIP3   OH239965   2.780   4.847  16.756 -0.0890 -0.9026  0.4456
 5257TIP3    H139966   2.754   4.809  16.672  1.2413 -2.0184  0.4989
 5257TIP3    H239967   2.699   4.850  16.807 -1.2137  1.1130 -1.3047
 5258TIP3   OH239968   4.641   0.315  18.033 -0.0960 -0.2094 -0.1755
 5258TIP3    H139969   4.629   0.234  18.084  1.1866 -0.2498  0.0992
 5258TIP3    H239970   4.628   0.288  17.942  0.3619 -0.7443 -0.0913
 5259TIP3   OH239971   3.199   1.559  17.255  0.0370 -0.1136 -0.4416
 5259TIP3    H139972   3.287   1.594  17.267 -0.6833  1.4731  0.5908
 5259TIP3    H239973   3.180   1.572  17.163  1.2095 -1.3640 -0.8937
 5260TIP3   OH239974   4.888   1.658  15.280 -0.0113 -0.1472  0.0852
 5260TIP3    H139975   4.898   1.633  15.188 -0.8133  0.5517 -0.2148
 5260TIP3    H239976   4.971   1.635  15.321  1.1080  1.2918 -1.2364
 5261TIP3   OH239977   0.062   1.674  16.254 -0.3705 -0.4062 -0.4617
 5261TIP3    H139978   0.124   1.728  16.303 -0.8923 -0.8997  0.7946
 5261TIP3    H239979   0.116   1.623  16.194  0.3548 -0.2351  0.0404
 5262TIP3   OH239980   1.953   4.251  15.868  0.5595  0.5988  0.3727
 5262TIP3    H139981   2.037   4.219  15.901 -0.1675 -0.1566  1.5715
 5262TIP3    H239982   1.947   4.216  15.780  0.7607 -0.7865  0.8873
 5263TIP3   OH239983   4.226   0.136  15.093 -0.6011  0.3178 -0.2153
 5263TIP3    H139984   4.237   0.043  15.074 -0.9274  0.0332  0.9015
 5263TIP3    H239985   4.286   0.180  15.034 -0.8362 -0.5679 -1.1379
 5264TIP3   OH239986   5.607   0.682  16.687 -1.1069  0.5931  0.0006
 5264TIP3    H139987   5.580   0.712  16.600 -0.5599  0.3599 -0.2534
 5264TIP3    H239988   5.533   0.704  16.744 -1.4670  0.7538 -0.5194
 5265TIP3   OH239989   4.198   2.576  15.742  0.0784 -0.0484 -0.0060
 5265TIP3    H139990   4.136   2.522  15.695 -0.9040  2.1411 -1.3908
 5265TIP3    H239991   4.202   2.538  15.830 -3.3360 -0.2530  0.1907
 5266TIP3   OH239992   4.739   1.710  14.804 -0.1507 -0.5406  0.3858
 5266TIP3    H139993   4.760   1.780  14.865  0.4621 -0.7839  0.4611
 5266TIP3    H239994   4.685   1.752  14.737  2.6949  0.7888 -1.2819
 5267TIP3   OH239995   2.364   1.290  16.466  0.6430 -0.1244 -0.2979
 5267TIP3    H139996   2.445   1.284  16.516 -0.7473  0.5621  2.1807
 5267TIP3    H239997   2.295   1.281  16.531 -1.2934  1.1389 -2.0686
 5268TIP3   OH239998   4.146   5.753  17.098  0.4977  0.0513 -0.0050
 5268TIP3    H139999   4.151   5.670  17.146  0.0669  0.3424  0.5372
 5268TIP3    H240000   4.067   5.796  17.130  0.3464  0.3767 -0.7737
 5269TIP3   OH240001   1.969   1.899  16.853 -0.2951  0.0464  0.0112
 5269TIP3    H140002   2.007   1.928  16.769 -0.8410 -0.3044 -0.3599
 5269TIP3    H240003   2.044   1.893  16.912 -0.0196  1.2111 -0.1860
 5270TIP3   OH240004   0.107   2.584  16.183 -0.3787 -0.0079  0.6936
 5270TIP3    H140005   0.018   2.560  16.211  0.0917 -1.0620  1.3318
 5270TIP3    H240006   0.111   2.557  16.091  0.0223 -2.1516  1.2972
 5271TIP3   OH240007   3.951   0.654  17.001  0.3252  0.1372  0.1300
 5271TIP3    H140008   3.863   0.691  17.001  0.4787  0.5132 -0.3061
 5271TIP3    H240009   3.952   0.593  17.075  0.3007  1.5659  1.3388
 5272TIP3   OH240010   3.426   3.611  16.935  0.3252 -0.4574  0.0053
 5272TIP3    H140011   3.463   3.523  16.942 -0.5310 -1.0859 -2.2571
 5272TIP3    H240012   3.475   3.652  16.863  0.1436  0.6154  0.4685
 5273TIP3   OH240013   1.781   5.945  16.475 -0.4154  0.0196 -0.3663
 5273TIP3    H140014   1.715   6.010  16.499 -0.9033 -0.8899  0.8945
 5273TIP3    H240015   1.760   5.868  16.529  1.7030 -0.2783  0.1482
 5274TIP3   OH240016   6.762   3.293  16.847 -0.2787 -0.0128 -0.4109
 5274TIP3    H140017   6.781   3.291  16.753 -1.2882  1.0160 -0.6576
 5274TIP3    H240018   6.822   3.229  16.885  2.2047  1.5809 -1.3924
 5275TIP3   OH240019   5.806   3.544  16.333 -0.1941  0.3792  0.0761
 5275TIP3    H140020   5.844   3.457  16.321 -0.1582  0.2693  0.9301
 5275TIP3    H240021   5.756   3.537  16.414  0.8050  1.4865  0.8201
 5276TIP3   OH240022   5.110   5.065  17.754 -0.2143  0.4263 -0.6131
 5276TIP3    H140023   5.122   5.143  17.807  1.1855 -0.3524  0.2616
 5276TIP3    H240024   5.178   5.004  17.783 -0.3161 -0.5762 -2.2891
 5277TIP3   OH240025   4.409   4.493  17.651 -0.3404  1.0159  0.6166
 5277TIP3    H140026   4.357   4.415  17.670  0.1475  0.7419  0.8380
 5277TIP3    H240027   4.422   4.535  17.736 -1.1167  1.6780  0.4247
 5278TIP3   OH240028   0.472   5.624  15.880  0.0157  0.3552  0.5843
 5278TIP3    H140029   0.467   5.658  15.791 -0.5256 -0.1942  0.4022
 5278TIP3    H240030   0.518   5.540  15.872 -2.3860 -1.0242  0.4182
 5279TIP3   OH240031   0.246   1.921  14.946  0.1039 -0.4300  0.4434
 5279TIP3    H140032   0.281   1.832  14.940 -0.7507 -0.6922 -2.3499
 5279TIP3    H240033   0.297   1.963  15.015  0.4063 -3.1199  1.9850
 5280TIP3   OH240034   2.543   3.170  16.445  0.4530  0.1435  0.1567
 5280TIP3    H140035   2.481   3.143  16.512 -0.5082  0.4339 -0.5999
 5280TIP3    H240036   2.629   3.155  16.484 -0.0856 -0.6967  1.0456
 5281TIP3   OH240037   0.983   2.785  15.108 -0.0432 -1.1821 -0.0771
 5281TIP3    H140038   1.060   2.836  15.134 -1.3891  1.9299 -1.5425
 5281TIP3    H240039   1.010   2.741  15.028  0.1564  0.3099 -0.8806
 5282TIP3   OH240040   2.384   5.675  15.722  0.0262  0.0958 -0.0139
 5282TIP3    H140041   2.475   5.695  15.746 -0.5542  1.8111  0.9225
 5282TIP3    H240042   2.388   5.653  15.629  1.1150  2.4325 -0.5869
 5283TIP3   OH240043   2.606   4.892  15.051 -0.3852 -0.4344  0.9057
 5283TIP3    H140044   2.571   4.911  14.964  0.0387 -1.6916  0.4305
 5283TIP3    H240045   2.686   4.944  15.057 -0.2420 -0.5864  0.4004
 5284TIP3   OH240046   5.686   5.137  14.455  0.5739 -0.0499  0.1766
 5284TIP3    H140047   5.739   5.066  14.418  0.7549  1.2433 -2.1715
 5284TIP3    H240048   5.732   5.217  14.430 -0.8269  0.9928  0.8278
 5285TIP3   OH240049   0.539   5.632  16.961  0.1262  0.4784  0.3337
 5285TIP3    H140050   0.601   5.562  16.982  0.8538  0.7637 -0.8177
 5285TIP3    H240051   0.453   5.594  16.979  0.6069  0.8429  4.3528
 5286TIP3   OH240052   3.098   6.672  16.366  0.5008  0.9020  0.3736
 5286TIP3    H140053   3.030   6.620  16.324 -0.2503  1.0289  1.3942
 5286TIP3    H240054   3.174   6.665  16.308  0.6124 -1.7635  0.7001
 5287TIP3   OH240055   5.818   1.518  15.446 -0.4003 -0.1835 -0.1714
 5287TIP3    H140056   5.826   1.605  15.407 -0.8702  0.6019  1.4084
 5287TIP3    H240057   5.894   1.471  15.414 -0.5862  0.5242 -1.7379
 5288TIP3   OH240058   6.741   0.105  15.746 -0.2563  0.0101 -0.1520
 5288TIP3    H140059   6.676   0.126  15.813  0.7743  0.8143  0.6399
 5288TIP3    H240060   6.819   0.080  15.796 -0.3840 -2.4746 -1.0859
 5289TIP3   OH240061   2.643   5.717  15.769 -0.1702  0.1400  0.6326
 5289TIP3    H140062   2.655   5.791  15.710 -0.6806  0.1116  0.4927
 5289TIP3    H240063   2.731   5.683  15.782  0.0343  0.5928  0.4682
 5290TIP3   OH240064   3.427   6.601  17.004 -0.2277  0.9810 -0.0690
 5290TIP3    H140065   3.425   6.507  16.984 -0.4282  0.8512  0.5498
 5290TIP3    H240066   3.335   6.626  17.006 -0.2046  1.0071  0.6279
 5291TIP3   OH240067   1.068   6.397  16.424 -0.3452  0.5621 -0.3822
 5291TIP3    H140068   0.997   6.361  16.371 -0.6606  0.1046  0.3353
 5291TIP3    H240069   1.049   6.367  16.513 -0.5954  2.4370  0.2542
 5292TIP3   OH240070   6.341   4.101  14.487  0.2479  0.1159 -0.0927
 5292TIP3    H140071   6.339   4.032  14.421 -0.0984  0.8282 -0.8549
 5292TIP3    H240072   6.258   4.147  14.475  1.0150  1.4571 -0.4821
 5293TIP3   OH240073   4.757   0.617  15.601  0.8480  0.0474  0.0145
 5293TIP3    H140074   4.731   0.586  15.688  1.4869  0.7827  0.4835
 5293TIP3    H240075   4.759   0.712  15.610  3.0580  0.0513 -0.1699
 5294TIP3   OH240076   3.420   5.848  15.843 -0.5214  0.1818  0.7423
 5294TIP3    H140077   3.389   5.761  15.818 -0.2398  0.0903  0.7065
 5294TIP3    H240078   3.508   5.833  15.879 -0.6461  0.3984  1.1410
 5295TIP3   OH240079   5.171   4.333  17.061  0.2158 -0.6611  0.2116
 5295TIP3    H140080   5.193   4.373  16.977  0.5926 -0.2305  0.5159
 5295TIP3    H240081   5.075   4.339  17.066  0.3205  1.3152  0.7832
 5296TIP3   OH240082   2.854   6.021  17.481 -0.1987 -0.2477 -0.7578
 5296TIP3    H140083   2.916   6.093  17.475  1.1358 -1.3925 -1.1135
 5296TIP3    H240084   2.860   5.976  17.397  1.0918 -2.4025  0.4000
 5297TIP3   OH240085   1.468   2.862  17.314  0.1734 -0.1976 -0.1176
 5297TIP3    H140086   1.481   2.826  17.226  0.9377 -1.3210  0.4333
 5297TIP3    H240087   1.528   2.936  17.319  0.1837 -0.1759 -0.5075
 5298TIP3   OH240088   3.592   1.975  17.842  0.7481 -0.5440  0.1651
 5298TIP3    H140089   3.520   1.998  17.901  0.7451  1.2703 -0.4818
 5298TIP3    H240090   3.590   1.879  17.838  0.5623 -0.7412  2.8549
 5299TIP3   OH240091   2.235   1.222  18.186 -0.5355  0.5686  0.4669
 5299TIP3    H140092   2.257   1.215  18.093 -3.4921 -0.3519 -0.2497
 5299TIP3    H240093   2.319   1.238  18.229  1.4280 -2.0255 -2.0170
 5300TIP3   OH240094   5.292   2.170  17.402  0.4600 -0.3553  0.0421
 5300TIP3    H140095   5.345   2.183  17.324 -0.6777 -1.0125 -0.8694
 5300TIP3    H240096   5.223   2.110  17.375 -1.2421  1.0829  0.9595
 5301TIP3   OH240097   6.131   1.211  15.661  0.2568 -0.3455  0.0815
 5301TIP3    H140098   6.068   1.142  15.640  2.0416 -1.9009 -0.3411
 5301TIP3    H240099   6.207   1.193  15.606  1.3716  1.0703  1.0704
 5302TIP3   OH240100   6.484   3.080  17.456  0.2014 -0.2444 -0.3468
 5302TIP3    H140101   6.492   3.174  17.474  1.6549 -0.0917 -1.5577
 5302TIP3    H240102   6.554   3.062  17.393  1.0184 -2.4741  1.0773
 5303TIP3   OH240103   1.219   5.557  17.505  0.2049 -0.7011  0.5305
 5303TIP3    H140104   1.305   5.539  17.545 -0.4758 -0.2535  2.2824
 5303TIP3    H240105   1.212   5.652  17.507  0.3083 -0.6379 -1.0866
 5304TIP3   OH240106   1.979   6.277  16.343 -0.3174 -0.5023 -0.0233
 5304TIP3    H140107   1.945   6.332  16.272 -0.2603 -1.8016 -1.0994
 5304TIP3    H240108   1.993   6.337  16.416  2.3955  1.4918 -1.9866
 5305TIP3   OH240109   4.295   3.908  16.724 -0.5605  0.1543 -0.5529
 5305TIP3    H140110   4.302   4.004  16.722  0.0466  0.1762  1.2894
 5305TIP3    H240111   4.346   3.879  16.649 -0.7549  1.2608 -1.1386
 5306TIP3   OH240112   4.385   6.336  16.812 -0.6455  0.2245 -0.6495
 5306TIP3    H140113   4.433   6.292  16.882 -1.7085  0.4707  0.2608
 5306TIP3    H240114   4.453   6.372  16.755  0.2357 -0.3428  0.0192
 5307TIP3   OH240115   3.690   3.074  17.524  0.2382  0.3427 -0.1873
 5307TIP3    H140116   3.608   3.122  17.513  0.0288 -0.2587 -1.4405
 5307TIP3    H240117   3.748   3.110  17.457  1.0376  0.8335  0.7586
 5308TIP3   OH240118   0.298   4.439  17.599  0.0293 -0.5881  0.3408
 5308TIP3    H140119   0.368   4.490  17.640  0.7133 -1.4873  0.3271
 5308TIP3    H240120   0.218   4.478  17.632  0.5273  0.3381  0.5170
 5309TIP3   OH240121   0.923   4.151  16.497 -0.3623  0.4359 -0.2831
 5309TIP3    H140122   1.004   4.196  16.520 -0.7747  0.6907  0.7323
 5309TIP3    H240123   0.945   4.058  16.497 -0.1381  0.4894  0.2780
 5310TIP3   OH240124   2.767   5.274  16.359  0.6640 -0.3281 -0.2084
 5310TIP3    H140125   2.706   5.348  16.359  1.6838  0.5542  1.2752
 5310TIP3    H240126   2.720   5.204  16.313 -0.7645  0.8762 -0.6424
 5311TIP3   OH240127   0.215   2.155  15.537 -0.0369  0.0468  0.0559
 5311TIP3    H140128   0.160   2.121  15.466 -0.6817  1.3644 -0.1068
 5311TIP3    H240129   0.259   2.078  15.572  0.2642 -0.6413 -1.7497
 5312TIP3   OH240130   3.830   2.561  16.133 -0.0523 -0.1964 -0.0041
 5312TIP3    H140131   3.743   2.593  16.155  0.4382  1.6619 -0.5352
 5312TIP3    H240132   3.868   2.535  16.217 -0.3136  1.1957  0.5798
 5313TIP3   OH240133   2.343   1.677  16.239  0.0220 -0.1291 -0.6747
 5313TIP3    H140134   2.252   1.668  16.269  0.3031 -1.5565 -0.1577
 5313TIP3    H240135   2.381   1.590  16.251  1.3422  0.3282 -1.3082
 5314TIP3   OH240136   4.610   1.642  15.324  0.0018  0.2634  0.5517
 5314TIP3    H140137   4.586   1.595  15.244 -0.1547  1.0881  0.1034
 5314TIP3    H240138   4.703   1.660  15.313 -0.0892  0.6546  0.4032
 5315TIP3   OH240139   4.838   6.313  15.032  0.2723 -0.2974 -0.2615
 5315TIP3    H140140   4.821   6.268  14.949  0.2322 -2.4416  0.8379
 5315TIP3    H240141   4.912   6.370  15.013 -0.9041  0.7046 -2.2262
 5316TIP3   OH240142   5.143   4.012  16.902 -0.5539 -0.5716  0.7015
 5316TIP3    H140143   5.181   3.927  16.882  1.6115  0.2857  0.9033
 5316TIP3    H240144   5.163   4.026  16.995  2.1643  1.5223 -0.0705
 5317TIP3   OH240145   0.794   0.647  15.248 -0.1741 -0.4188 -0.2912
 5317TIP3    H140146   0.817   0.730  15.208  0.0345 -0.9397 -1.2944
 5317TIP3    H240147   0.876   0.597  15.248  0.0654 -0.0954  1.7000
 5318TIP3   OH240148   2.609   6.325  15.143 -0.5557  0.7944  0.4088
 5318TIP3    H140149   2.688   6.348  15.092 -0.8033  0.6515 -0.0451
 5318TIP3    H240150   2.554   6.278  15.081 -2.2414  3.2713 -0.1176
 5319TIP3   OH240151   5.725   5.619  17.221 -0.0040  0.0335  0.9739
 5319TIP3    H140152   5.709   5.675  17.298 -1.0362  0.0129  0.7975
 5319TIP3    H240153   5.797   5.562  17.247 -0.4999 -0.1449  2.0395
 5320TIP3   OH240154   5.401   1.371  16.985  0.3278 -0.6766 -0.0301
 5320TIP3    H140155   5.445   1.386  16.901  1.4728  0.7278  0.7680
 5320TIP3    H240156   5.430   1.444  17.040 -0.7913 -1.2955  1.4374
 5321TIP3   OH240157   3.866   5.514  16.579  0.0857  0.0028 -0.0276
 5321TIP3    H140158   3.887   5.422  16.595  1.9813 -0.0253 -2.1605
 5321TIP3    H240159   3.904   5.560  16.654 -0.1377 -0.8756  0.6431
 5322TIP3   OH240160   3.254   5.007  14.598 -0.4941  0.2688 -0.2239
 5322TIP3    H140161   3.267   4.927  14.649 -0.2902 -0.9301 -2.0596
 5322TIP3    H240162   3.159   5.018  14.595 -0.5222  0.1124  0.0587
 5323TIP3   OH240163   2.521   3.846  17.248  0.0059 -0.0668  0.1989
 5323TIP3    H140164   2.519   3.936  17.217  0.0677  0.3057  1.2212
 5323TIP3    H240165   2.599   3.843  17.305  1.6119 -1.4900 -1.9088
 5324TIP3   OH240166   4.792   4.742  16.226 -0.4195 -0.1842  0.0137
 5324TIP3    H140167   4.790   4.683  16.301 -0.6286  0.7473  0.7533
 5324TIP3    H240168   4.879   4.731  16.189 -0.1730 -0.3406  0.6377
 5325TIP3   OH240169   5.700   4.395  15.418  0.0568  0.0578 -0.0385
 5325TIP3    H140170   5.627   4.439  15.463 -2.1246 -2.2517 -1.0648
 5325TIP3    H240171   5.744   4.465  15.369 -1.9119  1.4599  0.0851
 5326TIP3   OH240172   0.923   0.138  17.481  0.0638  0.0367  0.1084
 5326TIP3    H140173   0.895   0.187  17.404 -0.7868  0.3211  0.5896
 5326TIP3    H240174   0.844   0.093  17.511  0.8748 -1.9316 -0.5147
 5327TIP3   OH240175   6.189   2.620  16.061 -0.1993  0.1454  0.5475
 5327TIP3    H140176   6.261   2.665  16.017 -1.5032  2.8780  0.9778
 5327TIP3    H240177   6.110   2.659  16.023 -1.4492 -1.7945  1.0369
 5328TIP3   OH240178   6.303   5.949  15.724  0.2332  0.2288 -0.0608
 5328TIP3    H140179   6.265   5.880  15.668  0.2673  2.0829 -2.5402
 5328TIP3    H240180   6.236   5.964  15.791 -1.1215 -0.2016 -1.2466
 5329TIP3   OH240181   1.325   3.524  14.065 -0.2356 -0.4777 -0.9822
 5329TIP3    H140182   1.265   3.480  14.125  0.2266 -1.1084 -0.9760
 5329TIP3    H240183   1.298   3.616  14.068 -0.8005 -0.6505 -0.5083
 5330TIP3   OH240184   2.340   2.057  17.236  0.1544 -0.2001  0.3267
 5330TIP3    H140185   2.430   2.084  17.223  0.7010 -1.4255  1.2949
 5330TIP3    H240186   2.288   2.134  17.214  1.4538  0.6665  0.1920
 5331TIP3   OH240187   1.730   3.021  15.935 -0.1661 -0.1818  0.0334
 5331TIP3    H140188   1.815   3.060  15.957 -0.0869 -0.4955  0.3012
 5331TIP3    H240189   1.751   2.950  15.874 -0.0700 -1.1796  1.1812
 5332TIP3   OH240190   0.822   2.534  14.741  0.1552  0.0353 -0.0449
 5332TIP3    H140191   0.833   2.624  14.772 -0.9334 -0.1683  1.0017
 5332TIP3    H240192   0.843   2.479  14.816  0.3541 -0.5824 -0.5388
 5333TIP3   OH240193   5.790   2.573  16.214  0.1039  0.2813  0.3342
 5333TIP3    H140194   5.815   2.650  16.164  0.2981  1.0143  1.5242
 5333TIP3    H240195   5.697   2.587  16.235  0.0643  0.0540  0.3158
 5334TIP3   OH240196   1.784   6.670  16.655 -0.1508  0.1323  0.3668
 5334TIP3    H140197   1.800   6.589  16.704  0.4405 -0.6759 -1.1061
 5334TIP3    H240198   1.867   6.688  16.612 -0.1689  1.7478  0.9345
 5335TIP3   OH240199   4.145   4.414  16.539 -0.1949 -0.0404 -0.4775
 5335TIP3    H140200   4.215   4.472  16.568 -1.4733  1.0748  0.4721
 5335TIP3    H240201   4.084   4.410  16.612 -0.4063 -2.2280 -0.7014
 5336TIP3   OH240202   3.736   6.523  17.766  0.6896  0.5389  0.5247
 5336TIP3    H140203   3.721   6.614  17.791 -2.4115 -0.2761  2.1054
 5336TIP3    H240204   3.667   6.503  17.704  1.2970 -0.7644  0.2310
 5337TIP3   OH240205   0.991   0.448  14.858 -0.0902  0.0455 -0.0087
 5337TIP3    H140206   0.936   0.411  14.789  0.6086 -2.2633  0.5661
 5337TIP3    H240207   0.977   0.542  14.852  1.0493  0.1482 -4.2504
 5338TIP3   OH240208   3.449   3.997  16.546 -0.4420 -0.2097 -0.0186
 5338TIP3    H140209   3.450   3.936  16.620  3.5880 -0.2204  0.1806
 5338TIP3    H240210   3.485   3.946  16.473  2.3734  1.5351 -0.0259
 5339TIP3   OH240211   5.455   4.349  16.396  0.4998 -0.2305  0.1685
 5339TIP3    H140212   5.474   4.273  16.452  3.1167 -1.3690 -2.0191
 5339TIP3    H240213   5.381   4.321  16.343 -0.0440 -0.3084  0.9403
 5340TIP3   OH240214   2.954   2.268  16.259  0.1831 -0.0712  0.4644
 5340TIP3    H140215   2.883   2.215  16.295 -1.0986  2.2129  1.5188
 5340TIP3    H240216   2.932   2.280  16.167 -1.6157  1.7148  1.0663
 5341TIP3   OH240217   1.990   1.110  17.138 -0.1723  0.0337 -0.4597
 5341TIP3    H140218   2.035   1.040  17.187  1.1027  1.3014  0.2670
 5341TIP3    H240219   2.000   1.085  17.046  2.7637  0.5718 -0.4029
 5342TIP3   OH240220   4.130   5.041  16.064 -0.1650 -0.1441  0.2323
 5342TIP3    H140221   4.199   5.004  16.009  0.9265  1.0213  0.7903
 5342TIP3    H240222   4.060   4.975  16.061  0.2063 -0.5381 -1.8115
 5343TIP3   OH240223   6.729   1.827  17.280  0.1060  0.6563 -0.1906
 5343TIP3    H140224   6.643   1.849  17.243 -0.1085  1.4242  0.7113
 5343TIP3    H240225   6.709   1.791  17.367  0.7452  2.1748  0.6196
 5344TIP3   OH240226   4.911   5.215  16.554 -0.5922 -0.2503 -0.1727
 5344TIP3    H140227   4.941   5.303  16.531 -0.8881 -0.5303 -1.7096
 5344TIP3    H240228   4.872   5.181  16.474 -0.0968 -1.9520  0.2722
 5345TIP3   OH240229   0.947   1.400  16.117  0.0652  0.0513  0.5842
 5345TIP3    H140230   0.999   1.320  16.124  0.2259  0.2291  1.5561
 5345TIP3    H240231   0.915   1.416  16.205 -2.4999 -0.6026 -0.1491
 5346TIP3   OH240232   1.359   1.547  15.690 -0.3921 -0.3071  0.3355
 5346TIP3    H140233   1.312   1.583  15.614 -1.2971 -0.4929  0.7966
 5346TIP3    H240234   1.422   1.615  15.713  0.9790 -0.8747 -1.5138
 5347TIP3   OH240235   5.377   3.836  15.304  1.0678 -0.1634  0.2064
 5347TIP3    H140236   5.324   3.901  15.351  0.0286  0.0508 -1.1948
 5347TIP3    H240237   5.460   3.881  15.287  0.4327  0.7573 -0.5800
 5348TIP3   OH240238   6.709   3.357  15.052 -0.1180 -0.6185 -0.5993
 5348TIP3    H140239   6.756   3.428  15.007 -0.5161 -0.2165 -0.3912
 5348TIP3    H240240   6.671   3.306  14.981  2.2068 -2.1082 -0.8850
 5349TIP3   OH240241   1.443   6.609  16.317  0.4329  0.9260  0.3255
 5349TIP3    H140242   1.538   6.601  16.318  0.3494 -0.2109  0.5599
 5349TIP3    H240243   1.412   6.536  16.371 -0.6125  0.2850 -1.0666
 5350TIP3   OH240244   3.649   6.663  15.387 -0.4268  0.1110  0.3907
 5350TIP3    H140245   3.676   6.753  15.366 -1.2766  0.2488 -0.1370
 5350TIP3    H240246   3.600   6.634  15.310  0.1306 -0.9378  0.4143
 5351TIP3   OH240247   0.305   3.388  16.871  0.8925  0.7441  0.1238
 5351TIP3    H140248   0.259   3.470  16.886 -0.4901 -0.1135  0.7067
 5351TIP3    H240249   0.359   3.405  16.794 -1.4737  1.3567 -1.4810
 5352TIP3   OH240250   6.769   5.889  16.716  0.1772 -0.8952 -0.1889
 5352TIP3    H140251   6.772   5.939  16.635 -2.6065  0.2880  0.3215
 5352TIP3    H240252   6.753   5.798  16.689 -1.2137 -0.4298 -0.9780
 5353TIP3   OH240253   1.642   6.055  15.933  0.6461 -0.0938 -0.3015
 5353TIP3    H140254   1.658   6.150  15.933  1.3002 -0.1924  0.2276
 5353TIP3    H240255   1.720   6.018  15.892  0.1997 -0.3812 -0.8960
 5354TIP3   OH240256   5.146   3.523  15.543  0.4790  0.4887 -0.1857
 5354TIP3    H140257   5.231   3.524  15.586  0.8858  0.5648 -0.9741
 5354TIP3    H240258   5.122   3.431  15.539 -0.0918  0.5508  1.1945
 5355TIP3   OH240259   6.640   4.040  15.515  0.7020 -0.3545  0.8356
 5355TIP3    H140260   6.730   4.014  15.500  0.3823 -1.7745  1.2484
 5355TIP3    H240261   6.590   3.999  15.444  0.4259  0.8034  0.3352
 5356TIP3   OH240262   3.024   4.456  14.536  0.3092  0.3284 -0.4819
 5356TIP3    H140263   2.939   4.495  14.514 -0.2676 -0.9282 -0.5760
 5356TIP3    H240264   3.063   4.518  14.598 -0.5739  1.0389 -0.6027
 5357TIP3   OH240265   3.352   2.903  17.196 -0.2893 -0.4061 -0.0237
 5357TIP3    H140266   3.347   2.813  17.230  0.1558  0.4448  2.5450
 5357TIP3    H240267   3.262   2.936  17.202 -0.0480  0.0733  1.4842
 5358TIP3   OH240268   3.737   3.146  16.185 -0.0794  0.6917 -0.0276
 5358TIP3    H140269   3.760   3.216  16.246  0.2110 -0.6226  1.4271
 5358TIP3    H240270   3.663   3.101  16.226 -1.2599  1.0241 -1.6659
 5359TIP3   OH240271   1.559   1.448  17.252  0.1288 -0.5662  0.1414
 5359TIP3    H140272   1.518   1.473  17.169 -0.5223  2.6693  1.2761
 5359TIP3    H240273   1.653   1.452  17.235  0.0017 -1.2067 -0.7511
 5360TIP3   OH240274   1.518   3.799  14.253  0.6122 -0.3054  0.4143
 5360TIP3    H140275   1.466   3.761  14.182  1.9583 -0.0201 -0.7563
 5360TIP3    H240276   1.474   3.881  14.274 -2.7066 -2.5272  3.3965
 5361TIP3   OH240277   0.314   0.453  15.732 -0.0697 -0.0303 -0.2194
 5361TIP3    H140278   0.336   0.534  15.686 -0.7642 -0.3717 -1.1877
 5361TIP3    H240279   0.252   0.409  15.674  1.3590 -1.9387 -0.4047
 5362TIP3   OH240280   5.764   4.449  16.951 -0.1237  0.5589  0.2692
 5362TIP3    H140281   5.812   4.375  16.914  0.6118  0.9592  0.4022
 5362TIP3    H240282   5.763   4.432  17.046  0.3389  0.8785  0.3359
 5363TIP3   OH240283   0.523   1.326  17.272 -0.2386  0.7430 -0.6390
 5363TIP3    H140284   0.570   1.394  17.321 -0.0289 -0.1010  0.3464
 5363TIP3    H240285   0.551   1.244  17.312 -0.7863  0.0857 -1.5710
 5364TIP3   OH240286   2.200   4.961  17.756 -0.1172 -0.0837  1.2328
 5364TIP3    H140287   2.243   4.975  17.672 -0.8494  0.0262  0.8663
 5364TIP3    H240288   2.208   4.867  17.772 -0.2015 -0.1427  0.9196
 5365TIP3   OH240289   3.819   2.248  15.005 -0.5752 -0.2567  0.5159
 5365TIP3    H140290   3.836   2.338  15.034  0.5534 -0.5943  0.9620
 5365TIP3    H240291   3.823   2.196  15.085  2.1520 -1.1455 -0.0837
 5366TIP3   OH240292   1.647   0.403  17.035  0.2314  0.1814  0.0779
 5366TIP3    H140293   1.588   0.372  17.104 -0.7188  1.3438 -0.1701
 5366TIP3    H240294   1.595   0.467  16.987  1.2518  0.2096 -1.0338
 5367TIP3   OH240295   4.046   1.847  15.528  0.7830 -0.0745  0.2600
 5367TIP3    H140296   3.976   1.829  15.465 -0.1943  0.6564  1.1042
 5367TIP3    H240297   4.112   1.780  15.511  0.4197 -0.0633 -1.3546
 5368TIP3   OH240298   0.680   3.616  17.685  0.4906 -0.3918  0.4550
 5368TIP3    H140299   0.655   3.524  17.676 -1.1225 -0.0953  1.4568
 5368TIP3    H240300   0.684   3.630  17.779 -1.8190  1.1448  0.4073
 5369TIP3   OH240301   3.317   1.011  16.015 -0.5091 -0.3727 -0.4397
 5369TIP3    H140302   3.390   1.060  16.053 -2.0767  0.5349  1.5805
 5369TIP3    H240303   3.358   0.932  15.979  1.4746  0.0768  0.6598
 5370TIP3   OH240304   1.036   3.353  17.416 -0.3698 -0.0196 -0.3745
 5370TIP3    H140305   1.054   3.442  17.446  0.2053  0.2126 -1.3561
 5370TIP3    H240306   1.011   3.305  17.495 -1.6988  1.2556  0.0139
 5371TIP3   OH240307   4.558   2.505  18.045 -0.4950  0.2713 -0.2897
 5371TIP3    H140308   4.504   2.455  18.107 -4.3228  2.2117 -1.7075
 5371TIP3    H240309   4.590   2.439  17.984 -0.9254 -1.0491  0.8339
 5372TIP3   OH240310   0.019   3.083  15.826  0.4874 -0.2220  0.8351
 5372TIP3    H140311   0.065   3.167  15.833 -0.3906  0.2271  1.4341
 5372TIP3    H240312  -0.029   3.088  15.744  1.6230 -0.7708  0.1096
 5373TIP3   OH240313   4.511   3.566  15.557 -0.0624  0.2546  0.1468
 5373TIP3    H140314   4.522   3.519  15.475 -0.2762 -0.7542  0.6787
 5373TIP3    H240315   4.528   3.658  15.535 -2.2049  0.3514 -1.4809
 5374TIP3   OH240316   6.646   6.180  15.689  0.3203  0.1405  0.0585
 5374TIP3    H140317   6.727   6.186  15.739 -0.2277  0.6632  0.9129
 5374TIP3    H240318   6.651   6.251  15.626  1.1535 -0.7120 -0.8644
 5375TIP3   OH240319   6.643   2.787  16.480  0.2282 -0.4710 -0.0174
 5375TIP3    H140320   6.729   2.804  16.520  0.4901  2.6992 -1.6009
 5375TIP3    H240321   6.654   2.815  16.389 -2.1645 -1.1820 -0.5781
 5376TIP3   OH240322   0.247   1.525  16.719 -0.1474 -0.1099  0.1014
 5376TIP3    H140323   0.310   1.595  16.738  0.7256 -1.0373  0.7657
 5376TIP3    H240324   0.164   1.570  16.706 -0.0291  0.9364  2.4238
 5377TIP3   OH240325   6.658   1.523  17.248 -0.0080 -0.1908  0.2982
 5377TIP3    H140326   6.734   1.571  17.283  1.1636 -2.1811  0.6321
 5377TIP3    H240327   6.583   1.578  17.271  1.3767  2.6328 -1.4040
 5378TIP3   OH240328   1.446   5.445  17.533 -0.2507  0.0441 -0.5535
 5378TIP3    H140329   1.528   5.431  17.580  0.1766  2.4894 -0.4053
 5378TIP3    H240330   1.473   5.477  17.447 -1.0539  0.2544 -0.7380
 5379TIP3   OH240331   0.712   5.359  16.493  0.1068 -0.0037 -0.1105
 5379TIP3    H140332   0.794   5.327  16.455 -0.3880 -1.8171  0.2665
 5379TIP3    H240333   0.644   5.305  16.453 -0.9152  1.2919 -0.2131
 5380TIP3   OH240334   6.243   6.192  16.818  0.0550  0.3819 -0.7456
 5380TIP3    H140335   6.259   6.109  16.772  2.0443  0.5566 -0.4463
 5380TIP3    H240336   6.152   6.185  16.848  0.1733 -1.7144 -0.6919
 5381TIP3   OH240337   5.014   6.373  16.990  0.3076  0.5053 -0.0426
 5381TIP3    H140338   4.926   6.412  16.998  0.3072  0.8038 -1.2451
 5381TIP3    H240339   5.036   6.384  16.897  0.0836 -2.9110 -0.6109
 5382TIP3   OH240340   3.051   0.851  16.786  0.2392  1.2520  0.3661
 5382TIP3    H140341   3.067   0.799  16.707  0.9081  1.3493  0.4293
 5382TIP3    H240342   2.957   0.842  16.802  0.5909 -1.3105  1.3500
 5383TIP3   OH240343   0.777   0.216  17.272 -0.2766 -0.8602 -0.0198
 5383TIP3    H140344   0.808   0.146  17.213 -1.0662 -0.3131 -1.1139
 5383TIP3    H240345   0.754   0.288  17.213 -0.4567 -0.0496  1.0244
 5384TIP3   OH240346   5.148   5.954  15.564  0.3647  0.5503  0.2979
 5384TIP3    H140347   5.083   5.966  15.495  0.4763  3.2550  0.5231
 5384TIP3    H240348   5.100   5.913  15.636 -0.5062  0.4429 -0.3313
 5385TIP3   OH240349   1.122   0.956  17.963  0.3483  0.0050  0.7489
 5385TIP3    H140350   1.128   0.943  18.058 -0.6819 -1.8724  0.6084
 5385TIP3    H240351   1.054   0.895  17.935 -1.1629  2.2864 -0.8805
 5386TIP3   OH240352   5.424   1.387  16.069  0.2353  0.1944 -0.0997
 5386TIP3    H140353   5.380   1.446  16.130 -1.1137  0.3136 -1.1431
 5386TIP3    H240354   5.459   1.445  16.000 -1.6188 -0.1983 -1.4488
 5387TIP3   OH240355   3.292   1.294  15.597  0.1927 -0.3956  0.4238
 5387TIP3    H140356   3.247   1.298  15.681  0.4856  2.3239  0.5428
 5387TIP3    H240357   3.295   1.384  15.567 -0.5694 -1.3653 -2.9285
 5388TIP3   OH240358   1.018   5.073  17.493 -0.0611 -0.0957 -0.2069
 5388TIP3    H140359   0.997   5.032  17.577  0.8031  1.2628  0.7249
 5388TIP3    H240360   0.956   5.035  17.431  0.1498 -2.1290  0.7448
 5389TIP3   OH240361   3.320   5.736  15.448 -0.0647  0.3182 -0.1561
 5389TIP3    H140362   3.339   5.802  15.382 -1.2370  0.6899 -0.1521
 5389TIP3    H240363   3.337   5.779  15.532  0.6221  0.1174 -0.1898
 5390TIP3   OH240364   4.024   1.027  18.095 -0.4831  0.3573 -0.7592
 5390TIP3    H140365   4.050   0.994  18.181  0.4058  0.2575 -1.0521
 5390TIP3    H240366   4.009   0.949  18.042  0.2735  0.4087 -1.0636
 5391TIP3   OH240367   5.950   5.567   7.428  0.1215  0.4144 -0.2697
 5391TIP3    H140368   6.027   5.568   7.484  0.6625  1.1971 -1.0050
 5391TIP3    H240369   5.884   5.617   7.478  0.3659  0.4816 -0.0147
 5392TIP3   OH240370   4.591   3.260  10.090 -0.4120 -0.8351 -0.5432
 5392TIP3    H140371   4.496   3.254  10.103 -0.4703 -0.1848 -0.6450
 5392TIP3    H240372   4.603   3.243   9.997 -0.4221 -0.9996 -0.5144
 5393TIP3   OH240373   0.260   6.537   6.939 -0.3712  0.3873 -0.2754
 5393TIP3    H140374   0.229   6.575   6.857 -2.1121  1.0656  0.6473
 5393TIP3    H240375   0.206   6.459   6.951 -1.7949  1.5431  1.3302
 5394TIP3   OH240376   6.609   0.228   9.663  0.1121 -0.1575 -0.1261
 5394TIP3    H140377   6.638   0.318   9.673  2.0354 -0.7655  0.2730
 5394TIP3    H240378   6.677   0.176   9.706 -2.2158 -1.7043  1.9767
 5395TIP3   OH240379   4.759   0.271   8.154 -0.4616  0.2531 -0.1681
 5395TIP3    H140380   4.742   0.282   8.247 -1.1893 -0.1554 -0.2478
 5395TIP3    H240381   4.680   0.306   8.111 -0.2912  0.0930 -0.6171
 5396TIP3   OH240382   0.024   0.334   8.050 -0.0107 -0.6252 -0.4699
 5396TIP3    H140383   0.117   0.311   8.044 -0.1761 -1.1097 -1.3044
 5396TIP3    H240384   0.004   0.328   8.143  0.9222  0.0170 -0.2088
 5397TIP3   OH240385   0.372   2.990   8.916 -0.0640  0.0257 -0.1704
 5397TIP3    H140386   0.421   2.950   8.988 -1.4590 -0.3774  0.6021
 5397TIP3    H240387   0.432   3.054   8.878  0.1506  1.5812  2.5290
 5398TIP3   OH240388   1.355   0.664   6.353 -0.4228 -0.5394 -0.2700
 5398TIP3    H140389   1.372   0.671   6.259  1.2917  0.4648  0.0657
 5398TIP3    H240390   1.433   0.700   6.394 -1.3962 -0.3872  1.5565
 5399TIP3   OH240391   1.612   0.304   7.709 -0.6347 -0.2400  0.6725
 5399TIP3    H140392   1.528   0.282   7.670 -0.3121 -1.2888  0.5264
 5399TIP3    H240393   1.593   0.376   7.770 -1.6610 -0.5742  0.7595
 5400TIP3   OH240394   1.812   0.728   7.000 -0.5278 -0.0314  0.2921
 5400TIP3    H140395   1.808   0.823   6.989  0.8298  0.1785  1.3397
 5400TIP3    H240396   1.788   0.693   6.914 -2.2433  1.2082  0.2087
 5401TIP3   OH240397   6.169   5.547   7.572 -0.2289 -0.0400 -0.0561
 5401TIP3    H140398   6.200   5.589   7.652 -3.4650  1.1842  0.7018
 5401TIP3    H240399   6.249   5.521   7.526  1.7890 -0.9616  3.5788
 5402TIP3   OH240400   5.759   3.248   9.045  0.2726 -0.1505  0.3643
 5402TIP3    H140401   5.791   3.256   8.956  0.0894  0.2017  0.3299
 5402TIP3    H240402   5.677   3.199   9.036 -0.2530  0.7377  0.2288
 5403TIP3   OH240403   6.335   6.226   6.987  0.2540  0.1704  0.2495
 5403TIP3    H140404   6.287   6.297   7.031  0.7465  0.7959 -0.1952
 5403TIP3    H240405   6.331   6.153   7.048 -0.2171  0.5997  0.7503
 5404TIP3   OH240406   5.920   1.878   8.569 -0.0659 -0.4337 -0.1170
 5404TIP3    H140407   5.984   1.848   8.505 -0.4682 -0.6923 -0.3987
 5404TIP3    H240408   5.842   1.897   8.518 -0.3182 -0.4232  0.2705
 5405TIP3   OH240409   5.005   5.364   8.079  0.4431 -0.1799  0.1638
 5405TIP3    H140410   4.947   5.423   8.127  1.0551  1.3118 -0.8797
 5405TIP3    H240411   5.011   5.402   7.992  3.2234 -0.1347  0.3140
 5406TIP3   OH240412   0.793   3.001   9.665  0.2571  0.5437  0.3581
 5406TIP3    H140413   0.848   3.058   9.611  1.3361 -0.6572  0.1056
 5406TIP3    H240414   0.823   3.016   9.754  1.0338 -0.0892  0.2230
 5407TIP3   OH240415   6.484   2.563   7.433 -0.6453 -0.1339 -0.0288
 5407TIP3    H140416   6.467   2.613   7.353 -0.5414 -0.2737 -0.1404
 5407TIP3    H240417   6.482   2.628   7.503  0.8614  0.2656 -0.3164
 5408TIP3   OH240418   1.994   0.525   7.600 -0.5288  0.2402 -0.5521
 5408TIP3    H140419   2.078   0.569   7.611 -1.1486  1.5536 -0.8037
 5408TIP3    H240420   2.005   0.440   7.642  1.4208 -0.2622 -1.9973
 5409TIP3   OH240421   3.119   3.313   8.512  0.2219 -0.0586 -0.0353
 5409TIP3    H140422   3.134   3.399   8.551 -0.6547  0.5526 -1.0113
 5409TIP3    H240423   3.083   3.332   8.425 -3.1698 -1.3698  0.9196
 5410TIP3   OH240424   0.316   4.181   8.694 -0.4394 -0.2847  0.1244
 5410TIP3    H140425   0.240   4.206   8.746  0.7023  0.8814  1.3023
 5410TIP3    H240426   0.336   4.258   8.641 -0.2887 -0.7109 -0.4557
 5411TIP3   OH240427   3.458   3.700   8.469 -0.2948 -0.3159 -0.4233
 5411TIP3    H140428   3.517   3.627   8.450 -1.3307 -0.8880 -1.6327
 5411TIP3    H240429   3.384   3.661   8.515  0.9882  0.6769  2.7519
 5412TIP3   OH240430   1.377   3.217   6.965  0.4315  0.5174  0.4271
 5412TIP3    H140431   1.457   3.210   6.912  1.9755  1.5226  2.4726
 5412TIP3    H240432   1.388   3.151   7.034 -0.7640  0.3199  0.4464
 5413TIP3   OH240433   5.488   0.025   8.821  0.0023  0.1499 -0.0831
 5413TIP3    H140434   5.435  -0.041   8.776  0.2254 -0.0527 -0.0473
 5413TIP3    H240435   5.433   0.055   8.893 -0.2221  0.2300 -0.2877
 5414TIP3   OH240436   5.176   0.609   7.372 -0.2302  0.3329  0.0140
 5414TIP3    H140437   5.115   0.566   7.432 -0.0049 -0.2956 -0.2054
 5414TIP3    H240438   5.262   0.588   7.408 -0.1143  0.5287 -0.1496
 5415TIP3   OH240439   6.391   6.605   9.012 -0.3966 -0.2800 -0.1819
 5415TIP3    H140440   6.310   6.601   9.062  0.0579 -0.6257  0.5528
 5415TIP3    H240441   6.363   6.609   8.921 -1.2792  1.9455  0.1354
 5416TIP3   OH240442   0.941   0.900   9.570  0.5620 -0.7441 -0.1603
 5416TIP3    H140443   0.912   0.918   9.481  0.7661 -1.6118 -0.4108
 5416TIP3    H240444   1.026   0.858   9.560  0.1750 -1.6915  0.4006
 5417TIP3   OH240445   5.431   0.712   8.742  0.1833  0.2418 -0.3503
 5417TIP3    H140446   5.499   0.764   8.697  0.4073 -0.5632 -0.9795
 5417TIP3    H240447   5.349   0.743   8.704 -0.0362  2.5750  1.7639
 5418TIP3   OH240448   4.444   1.091   7.362  0.4864 -0.1319  0.5640
 5418TIP3    H140449   4.440   1.021   7.297 -1.0726  0.6023 -0.1798
 5418TIP3    H240450   4.485   1.164   7.316  0.0201  0.1639  0.6050
 5419TIP3   OH240451   3.547   2.441   8.747  0.3262  0.0435  0.1992
 5419TIP3    H140452   3.587   2.388   8.816  0.5955  1.8943  1.5445
 5419TIP3    H240453   3.620   2.489   8.708 -0.1065  0.6386  0.1078
 5420TIP3   OH240454   6.211   1.369   8.937  0.3404 -0.1592 -0.8130
 5420TIP3    H140455   6.151   1.443   8.948 -0.2949 -0.5017 -1.7796
 5420TIP3    H240456   6.297   1.403   8.960  0.2789  1.2800 -2.5216
 5421TIP3   OH240457   2.024   0.416   9.058  0.3610  0.4163 -0.4492
 5421TIP3    H140458   2.060   0.328   9.043  0.9382  0.4063  0.8471
 5421TIP3    H240459   2.044   0.463   8.978  0.3978 -0.5217 -1.0121
 5422TIP3   OH240460   6.428   5.716   8.542 -0.0462  0.2197  0.1628
 5422TIP3    H140461   6.353   5.764   8.506  0.1119  0.7619  0.5484
 5422TIP3    H240462   6.496   5.782   8.551  0.9465 -0.5223 -1.4380
 5423TIP3   OH240463   5.388   6.745   7.249  0.3021  0.0995 -0.2701
 5423TIP3    H140464   5.307   6.727   7.200  0.0898  0.5432 -0.0875
 5423TIP3    H240465   5.437   6.663   7.245 -0.6011 -0.4897  0.4648
 5424TIP3   OH240466   4.567   1.973   8.332 -0.1840  0.0766 -0.2098
 5424TIP3    H140467   4.636   2.038   8.340 -0.4517  0.3928 -0.4298
 5424TIP3    H240468   4.506   1.993   8.403  0.6593 -1.0953  0.8918
 5425TIP3   OH240469   3.396   6.326   9.333 -0.1696 -0.5634 -0.4224
 5425TIP3    H140470   3.450   6.398   9.364 -1.4607  0.0568  0.4791
 5425TIP3    H240471   3.440   6.247   9.363  0.8773 -0.1420 -0.7966
 5426TIP3   OH240472   0.041   0.467  10.228 -0.4344  0.0289 -0.8324
 5426TIP3    H140473  -0.014   0.516  10.167  2.2163  1.5490 -2.1786
 5426TIP3    H240474   0.130   0.487  10.202  0.8744 -3.7425  0.0412
 5427TIP3   OH240475   1.316   5.195   8.442 -0.6279  0.0873 -0.3815
 5427TIP3    H140476   1.250   5.127   8.454  0.8835 -1.4306 -0.3561
 5427TIP3    H240477   1.345   5.217   8.531  0.9274 -1.3784 -0.4694
 5428TIP3   OH240478   5.840   2.383   9.229  0.0458  0.8934  0.3406
 5428TIP3    H140479   5.872   2.446   9.295  1.4792  1.2267 -0.6368
 5428TIP3    H240480   5.806   2.438   9.159 -2.3876  0.5453  1.1431
 5429TIP3   OH240481   2.277   6.759   9.574 -0.4931 -0.0581 -0.2594
 5429TIP3    H140482   2.232   6.680   9.604 -0.6570 -0.3068 -1.1392
 5429TIP3    H240483   2.279   6.816   9.651  0.7710 -1.4079  0.7513
 5430TIP3   OH240484   6.688   1.492   6.458  0.6300 -0.1282 -0.7258
 5430TIP3    H140485   6.702   1.436   6.535  1.5073 -1.0861 -1.5466
 5430TIP3    H240486   6.650   1.433   6.392 -1.1689  0.9330 -0.7030
 5431TIP3   OH240487   2.291   2.795   9.370 -0.1313  0.0820 -0.2949
 5431TIP3    H140488   2.378   2.835   9.367 -0.1676  0.2066  0.2080
 5431TIP3    H240489   2.290   2.734   9.296  0.2691  0.3098 -0.4920
 5432TIP3   OH240490   6.107   3.540   7.754 -0.0914  0.7302 -0.0713
 5432TIP3    H140491   6.155   3.462   7.784 -0.2752  0.1509 -1.2169
 5432TIP3    H240492   6.175   3.601   7.726  0.0431  0.8741  0.5508
 5433TIP3   OH240493   0.462   4.016   7.619  0.0065  0.0951  0.7136
 5433TIP3    H140494   0.367   4.011   7.609  0.0315  1.4106 -0.3879
 5433TIP3    H240495   0.489   4.084   7.558  1.7597 -0.8344  0.4034
 5434TIP3   OH240496   1.362   6.620   8.627  0.0242 -0.1724  0.0990
 5434TIP3    H140497   1.377   6.535   8.585  0.0937 -0.9444  1.5999
 5434TIP3    H240498   1.280   6.652   8.588  0.0086 -0.9183 -0.4995
 5435TIP3   OH240499   1.799   6.320   8.141  0.4448  0.1061  0.0356
 5435TIP3    H140500   1.802   6.324   8.237 -0.6499  4.2953  0.0866
 5435TIP3    H240501   1.863   6.384   8.112  1.1811 -1.4978 -2.1544
 5436TIP3   OH240502   4.257   0.588   6.761 -0.2079  0.0161 -0.2543
 5436TIP3    H140503   4.208   0.507   6.775  1.4746 -1.0069  0.0184
 5436TIP3    H240504   4.335   0.561   6.711 -0.2909  1.7083 -1.3748
 5437TIP3   OH240505   1.729   0.221   9.849 -0.5260  0.3013  0.2401
 5437TIP3    H140506   1.752   0.237   9.940 -0.4075 -2.5422  0.7933
 5437TIP3    H240507   1.667   0.148   9.852 -0.4122  0.0436 -1.9617
 5438TIP3   OH240508   2.747   4.721   9.475  0.3613  0.9078 -0.3651
 5438TIP3    H140509   2.675   4.760   9.523  0.8438  0.4729  0.7528
 5438TIP3    H240510   2.823   4.732   9.533  1.3298  1.9037 -1.7619
 5439TIP3   OH240511   6.187   6.601   6.772  0.4434  0.0928  0.4824
 5439TIP3    H140512   6.264   6.546   6.758 -0.5905 -1.2158 -0.3186
 5439TIP3    H240513   6.114   6.540   6.778 -0.9041  1.3732 -1.5016
 5440TIP3   OH240514   4.469   3.509   7.786 -0.0266  0.2036  0.4734
 5440TIP3    H140515   4.542   3.452   7.763  0.3347  0.7721  0.1671
 5440TIP3    H240516   4.399   3.485   7.725 -0.6186 -1.3329  1.7006
 5441TIP3   OH240517   2.193   3.651   6.714 -0.0409 -0.1731 -0.1239
 5441TIP3    H140518   2.112   3.697   6.734 -0.9097 -1.8190  0.3369
 5441TIP3    H240519   2.260   3.698   6.765 -0.9518  0.3182  0.6589
 5442TIP3   OH240520   4.504   0.826   8.045  0.0663  0.2790  0.2280
 5442TIP3    H140521   4.544   0.795   7.964  0.1047  1.3354 -0.1674
 5442TIP3    H240522   4.461   0.748   8.082 -1.8757  0.2379 -1.9332
 5443TIP3   OH240523   4.714   2.860   9.088 -0.7028 -0.1957  0.4101
 5443TIP3    H140524   4.803   2.845   9.119 -0.6788  1.4353  1.2726
 5443TIP3    H240525   4.672   2.910   9.158 -2.5685 -1.5868  0.3701
 5444TIP3   OH240526   5.619   1.660   9.539  0.2026 -0.1496  0.0514
 5444TIP3    H140527   5.648   1.680   9.628 -0.0211  0.0775  0.0752
 5444TIP3    H240528   5.667   1.581   9.515 -0.3828 -0.7205  0.6965
 5445TIP3   OH240529   3.463   0.385   8.033  0.1917  0.2998  0.5060
 5445TIP3    H140530   3.465   0.452   7.965 -1.7209  0.7653  0.8551
 5445TIP3    H240531   3.372   0.356   8.036  0.4315 -0.4182  2.1874
 5446TIP3   OH240532   6.441   3.751   9.642  0.1928 -0.1394  0.1797
 5446TIP3    H140533   6.535   3.733   9.641  0.1463 -0.5829 -2.4531
 5446TIP3    H240534   6.431   3.828   9.586 -1.0601 -0.3519  0.0832
 5447TIP3   OH240535   0.077   5.463   9.607 -0.3606  0.1857 -0.1540
 5447TIP3    H140536   0.068   5.548   9.649  0.1083  0.7696 -1.2069
 5447TIP3    H240537   0.169   5.457   9.583 -0.7205  0.1146 -1.5870
 5448TIP3   OH240538   5.425   4.014   9.818  0.3317 -0.0105 -0.0511
 5448TIP3    H140539   5.371   3.935   9.821  4.5276 -3.1338  1.8329
 5448TIP3    H240540   5.451   4.030   9.909  2.3025  1.5165 -0.7993
 5449TIP3   OH240541   3.623   1.071   9.043  0.1322  0.1517 -0.3411
 5449TIP3    H140542   3.608   1.083   8.949 -2.0484  1.0618  0.0568
 5449TIP3    H240543   3.692   1.005   9.048 -1.2726 -1.6107 -2.5491
 5450TIP3   OH240544   1.380   0.305   8.729  0.4575 -0.3779 -0.0163
 5450TIP3    H140545   1.463   0.273   8.763  0.7412  0.0823 -0.2556
 5450TIP3    H240546   1.386   0.291   8.634  0.6084  0.4169 -0.1306
 5451TIP3   OH240547   5.104   5.184   9.045  0.4875 -0.1858  0.0478
 5451TIP3    H140548   5.151   5.216   9.123 -0.7157  0.0162  0.7180
 5451TIP3    H240549   5.130   5.092   9.038 -0.0462 -0.4587  1.2381
 5452TIP3   OH240550   1.596   5.686   8.366  0.6989 -0.4953 -0.0420
 5452TIP3    H140551   1.606   5.593   8.348  1.3341 -0.5575  0.5860
 5452TIP3    H240552   1.677   5.711   8.412  1.0576  0.6211 -1.2256
 5453TIP3   OH240553   0.743   0.302   8.554 -0.9269  0.0260 -0.0634
 5453TIP3    H140554   0.822   0.336   8.512 -0.9298  0.3476  0.1886
 5453TIP3    H240555   0.775   0.255   8.631 -0.8580 -1.2126 -0.8077
 5454TIP3   OH240556   0.770   6.149   7.379 -0.5190 -0.1604  0.1868
 5454TIP3    H140557   0.858   6.144   7.417 -0.3902 -2.2393 -0.2869
 5454TIP3    H240558   0.714   6.172   7.454  0.3367  0.7518  0.5807
 5455TIP3   OH240559   2.187   2.866   7.853  0.2174 -0.5131 -0.5220
 5455TIP3    H140560   2.277   2.848   7.825  0.2113  0.4593 -1.2538
 5455TIP3    H240561   2.186   2.845   7.947  1.8572  1.5716  0.0433
 5456TIP3   OH240562   0.573   2.106   9.186  0.1491  0.1907  0.2233
 5456TIP3    H140563   0.599   2.152   9.106  1.4024 -0.2418  0.3624
 5456TIP3    H240564   0.648   2.050   9.208  0.2046  0.9583  2.1970
 5457TIP3   OH240565   3.669   0.660   8.309  0.4331 -0.5509  0.3255
 5457TIP3    H140566   3.701   0.573   8.282  0.7745 -0.7112  1.2057
 5457TIP3    H240567   3.715   0.677   8.391  0.1057  0.3217  0.3301
 5458TIP3   OH240568   4.572   3.890   8.255 -0.2000 -0.1469  0.4652
 5458TIP3    H140569   4.585   3.835   8.332  0.5296 -0.9160 -0.1796
 5458TIP3    H240570   4.648   3.949   8.254  0.2499 -0.7124 -0.1079
 5459TIP3   OH240571   2.735   0.529   8.411 -0.4132  0.5095 -0.4538
 5459TIP3    H140572   2.735   0.605   8.353 -0.0230  0.5535 -0.3976
 5459TIP3    H240573   2.690   0.461   8.361 -1.2671  0.9303 -0.2936
 5460TIP3   OH240574   3.320   1.680   9.176  0.6626  0.5508 -0.4048
 5460TIP3    H140575   3.239   1.673   9.126  1.0832 -0.4173 -0.9590
 5460TIP3    H240576   3.388   1.650   9.116  1.1331 -0.9948  0.8340
 5461TIP3   OH240577   1.931   6.391   6.813 -0.0044 -0.4820 -0.2384
 5461TIP3    H140578   2.025   6.371   6.806  0.0956  0.1998 -1.0206
 5461TIP3    H240579   1.888   6.308   6.792  0.3737 -1.8965  3.7796
 5462TIP3   OH240580   4.305   5.527   7.551 -0.4122 -0.1912 -0.3817
 5462TIP3    H140581   4.381   5.469   7.563  0.4822  0.6503 -1.6686
 5462TIP3    H240582   4.343   5.611   7.527 -1.6904  0.9371  1.2908
 5463TIP3   OH240583   5.270   2.681   9.472 -0.0689  0.0909 -0.2466
 5463TIP3    H140584   5.335   2.701   9.539  1.1072 -0.7432 -1.1138
 5463TIP3    H240585   5.218   2.610   9.510  0.6001 -0.3854 -0.2125
 5464TIP3   OH240586   5.809   6.217   7.762 -0.1723 -0.3776 -0.5581
 5464TIP3    H140587   5.831   6.190   7.851  0.1489  1.4297 -0.0563
 5464TIP3    H240588   5.718   6.188   7.751 -0.7762  0.7825  0.9751
 5465TIP3   OH240589   1.715   3.726   8.044 -0.2322 -0.1266 -0.4896
 5465TIP3    H140590   1.704   3.755   7.953  1.3769  1.2749 -0.2777
 5465TIP3    H240591   1.785   3.781   8.079  0.8711 -2.2561  0.8924
 5466TIP3   OH240592   1.093   6.698   6.664 -0.6086  0.2317  0.5146
 5466TIP3    H140593   1.030   6.754   6.618  0.2026  0.5440 -0.2440
 5466TIP3    H240594   1.168   6.755   6.679  0.6027 -0.8610 -1.0822
 5467TIP3   OH240595   0.797   4.124   8.385  0.2139  0.4388  0.1258
 5467TIP3    H140596   0.893   4.124   8.382  0.2145  1.3521 -0.3359
 5467TIP3    H240597   0.772   4.041   8.345  0.8239 -0.4337  1.4984
 5468TIP3   OH240598   3.866   4.606   7.020 -0.3634  0.2768  0.5109
 5468TIP3    H140599   3.832   4.592   7.108  0.1289 -0.3877  0.6031
 5468TIP3    H240600   3.895   4.697   7.019  1.2261 -0.1879  1.5946
 5469TIP3   OH240601   2.335   0.428   6.948 -0.1722 -0.3396  0.1990
 5469TIP3    H140602   2.334   0.361   7.016  0.3949 -0.1990  0.3562
 5469TIP3    H240603   2.333   0.511   6.997  0.8446 -0.2317  0.0710
 5470TIP3   OH240604   2.406   1.096   6.838  0.5901  0.3425 -0.7370
 5470TIP3    H140605   2.471   1.131   6.898 -0.1039  0.6834 -0.1656
 5470TIP3    H240606   2.426   1.003   6.832 -1.0544 -0.3146  2.3349
 5471TIP3   OH240607   0.776   3.964   7.503 -0.0913  0.4275  0.1548
 5471TIP3    H140608   0.792   3.974   7.597 -1.6686  2.3084  0.2693
 5471TIP3    H240609   0.735   3.878   7.494 -1.9687  1.1371  1.5023
 5472TIP3   OH240610   0.032   3.864   9.472  0.5108  0.0315 -0.0068
 5472TIP3    H140611  -0.061   3.886   9.479  0.3481 -0.2558 -1.0589
 5472TIP3    H240612   0.077   3.934   9.519 -0.1046  1.5869 -1.6164
 5473TIP3   OH240613   3.177   2.521   9.236 -0.2073 -0.3945 -0.1230
 5473TIP3    H140614   3.179   2.495   9.328 -2.3817  0.5284  0.2527
 5473TIP3    H240615   3.095   2.486   9.202 -0.5912  1.2575 -1.0483
 5474TIP3   OH240616   5.399   4.252   8.719  0.1083  0.1089 -0.2360
 5474TIP3    H140617   5.382   4.202   8.799  0.1102  0.9186  0.2745
 5474TIP3    H240618   5.492   4.276   8.724  0.6077 -1.4106 -1.3911
 5475TIP3   OH240619   2.732   5.910   9.589 -0.5948 -0.3261  0.0044
 5475TIP3    H140620   2.827   5.918   9.598 -0.7002  0.1394  0.8447
 5475TIP3    H240621   2.698   5.997   9.612 -1.3004 -0.8866  1.1700
 5476TIP3   OH240622   0.930   6.324   7.196  0.5820  0.2106  0.0189
 5476TIP3    H140623   0.938   6.236   7.232 -1.5214  0.0394  0.1541
 5476TIP3    H240624   1.021   6.352   7.182  1.3384 -2.7879 -2.0885
 5477TIP3   OH240625   2.183   3.830   9.818 -1.0481  0.2196  0.1990
 5477TIP3    H140626   2.112   3.798   9.873  0.0800  1.3326  2.4014
 5477TIP3    H240627   2.150   3.912   9.781 -1.1034  0.4714  0.8030
 5478TIP3   OH240628   1.807   3.825   9.964 -0.2259 -0.0916  0.0329
 5478TIP3    H140629   1.866   3.900   9.954 -2.4633  1.6590 -0.9281
 5478TIP3    H240630   1.864   3.753   9.991  2.4347  1.3086 -1.4594
 5479TIP3   OH240631   4.613   5.952   8.449  0.4018  0.5035  0.3917
 5479TIP3    H140632   4.662   5.906   8.380  0.3158  0.5349  0.3098
 5479TIP3    H240633   4.671   6.024   8.474  0.7584  0.0584  0.8763
 5480TIP3   OH240634   4.462   6.610   9.095  0.0209  0.4920 -0.0781
 5480TIP3    H140635   4.521   6.648   9.159 -0.7977  1.1879  0.2924
 5480TIP3    H240636   4.516   6.593   9.018  0.6787  1.1732  0.2270
 5481TIP3   OH240637   3.510   4.564   9.297  0.3983  0.1093  0.2344
 5481TIP3    H140638   3.484   4.525   9.381  0.1432 -1.7106 -0.6341
 5481TIP3    H240639   3.575   4.630   9.321  0.4333 -0.4541  1.8635
 5482TIP3   OH240640   0.828   3.165   7.705  0.4077  0.2287 -0.5699
 5482TIP3    H140641   0.733   3.153   7.710  0.5954 -1.2619 -0.2398
 5482TIP3    H240642   0.853   3.199   7.791  0.1745  0.7264 -0.6926
 5483TIP3   OH240643   0.249   0.691   9.629  0.2882  0.1904  0.3686
 5483TIP3    H140644   0.216   0.774   9.595 -1.1450 -0.1228  0.9301
 5483TIP3    H240645   0.326   0.716   9.681  1.3445  0.8697 -1.4478
 5484TIP3   OH240646   2.610   2.492   8.321 -0.1425  0.4374  0.5791
 5484TIP3    H140647   2.682   2.434   8.294  1.5707  1.5434  2.4297
 5484TIP3    H240648   2.567   2.445   8.392 -1.0294 -0.0601 -0.2768
 5485TIP3   OH240649   6.062   3.054   8.864 -0.2804 -0.3113 -0.0239
 5485TIP3    H140650   6.136   3.049   8.803 -0.3038  3.6320 -0.6464
 5485TIP3    H240651   6.098   3.026   8.948  1.9951  1.3952 -0.3299
 5486TIP3   OH240652   4.078   1.288   8.557 -0.3655  0.1735  0.4432
 5486TIP3    H140653   4.039   1.202   8.537 -0.4801  0.2633  0.2770
 5486TIP3    H240654   4.166   1.283   8.522 -1.1238  0.9581 -1.7471
 5487TIP3   OH240655   4.832   6.069   6.698  0.9967  0.5453 -0.2817
 5487TIP3    H140656   4.919   6.102   6.722 -0.4752  3.8985  1.1036
 5487TIP3    H240657   4.830   6.074   6.602  1.9708  1.5545 -0.2668
 5488TIP3   OH240658   6.764   2.632   7.020 -0.2214  0.0754  0.0069
 5488TIP3    H140659   6.788   2.722   7.000 -0.8569 -0.1162 -1.7691
 5488TIP3    H240660   6.844   2.582   7.003 -0.3685  0.0885 -0.7335
 5489TIP3   OH240661   3.129   1.260   9.593  0.2583  0.4378 -0.0317
 5489TIP3    H140662   3.189   1.334   9.601 -1.1057  1.6514 -0.5864
 5489TIP3    H240663   3.042   1.298   9.610 -0.4523 -1.0752 -0.1511
 5490TIP3   OH240664   6.576   2.339   7.584  0.1125  0.1385  0.6595
 5490TIP3    H140665   6.588   2.272   7.516 -0.9002 -1.2652  1.8010
 5490TIP3    H240666   6.530   2.410   7.539  0.6617 -0.1628 -0.4305
 5491TIP3   OH240667   5.813   4.163   8.976 -0.3096 -0.0133  0.0062
 5491TIP3    H140668   5.886   4.148   9.037  0.5355  0.4556 -0.8527
 5491TIP3    H240669   5.856   4.185   8.893 -1.4070 -1.5619 -1.0279
 5492TIP3   OH240670   1.312   3.322   9.763 -0.2040 -0.3882 -0.3074
 5492TIP3    H140671   1.307   3.264   9.840 -3.3536 -0.6976 -0.5775
 5492TIP3    H240672   1.348   3.403   9.797 -0.4714 -0.8797  1.2834
 5493TIP3   OH240673   0.846   1.285   8.233  0.8341 -0.0094  0.7098
 5493TIP3    H140674   0.901   1.320   8.164  0.2761 -0.2040  0.1599
 5493TIP3    H240675   0.773   1.347   8.240 -0.9651 -1.7336 -1.3018
 5494TIP3   OH240676   6.308   0.760   6.825 -0.0914 -0.1550  0.5472
 5494TIP3    H140677   6.229   0.705   6.829  0.4364 -1.0229 -0.3792
 5494TIP3    H240678   6.380   0.698   6.839  0.5500  0.2068 -1.0314
 5495TIP3   OH240679   2.549   2.785   7.227 -0.6084  0.3566  0.0510
 5495TIP3    H140680   2.637   2.769   7.261 -0.1616 -0.0369 -1.2230
 5495TIP3    H240681   2.527   2.873   7.259  1.0696  1.2864 -1.2059
 5496TIP3   OH240682   1.749   1.825   9.896 -0.0142 -0.7167 -0.3033
 5496TIP3    H140683   1.743   1.732   9.875 -0.5946 -0.1173 -3.2389
 5496TIP3    H240684   1.659   1.855   9.900  0.1611  0.2767 -2.5672
 5497TIP3   OH240685   2.791   4.292   7.218 -0.5705 -0.1057  0.0532
 5497TIP3    H140686   2.749   4.349   7.154  0.2364  1.5171  0.8849
 5497TIP3    H240687   2.721   4.266   7.277 -0.5553  2.4924  1.3785
 5498TIP3   OH240688   2.361   2.812   7.556  0.5998  0.3853  0.3200
 5498TIP3    H140689   2.280   2.856   7.581 -0.3334 -0.8459 -0.4007
 5498TIP3    H240690   2.384   2.851   7.471 -0.0753 -0.2735 -0.1850
 5499TIP3   OH240691   0.922   1.349   9.279 -0.5699 -0.6432  0.4425
 5499TIP3    H140692   0.994   1.300   9.239 -1.1669 -0.9152 -0.3319
 5499TIP3    H240693   0.951   1.364   9.369  0.1321 -1.4019  0.3650
 5500TIP3   OH240694   5.688   4.732   6.726 -0.6019 -0.4954  0.3142
 5500TIP3    H140695   5.631   4.757   6.653 -0.5107 -1.4366 -0.0959
 5500TIP3    H240696   5.628   4.711   6.797 -0.8858 -2.6154 -0.4659
 5501TIP3   OH240697   1.992   2.704   8.248 -0.2989 -0.1085  0.1229
 5501TIP3    H140698   2.080   2.735   8.224 -1.1287  1.6417 -0.8663
 5501TIP3    H240699   2.007   2.620   8.291  1.8956  0.3534  0.3803
 5502TIP3   OH240700   2.639   4.182   8.068 -0.5507 -0.7776 -0.5559
 5502TIP3    H140701   2.615   4.184   8.161  0.5095 -0.4972 -0.2791
 5502TIP3    H240702   2.555   4.182   8.022 -1.1253  1.7493  0.3401
 5503TIP3   OH240703   1.188   2.210   7.377  0.2197 -0.3963  0.1645
 5503TIP3    H140704   1.255   2.241   7.438  0.3773  3.1050 -1.5644
 5503TIP3    H240705   1.229   2.135   7.334  1.6841 -0.4107  1.4720
 5504TIP3   OH240706   5.407   1.834   8.125  0.7729  0.5331  0.2723
 5504TIP3    H140707   5.439   1.748   8.098  0.3313  0.9454 -1.7477
 5504TIP3    H240708   5.434   1.843   8.216  0.7336 -1.7815  0.5538
 5505TIP3   OH240709   3.798   6.131   9.680 -0.1798  0.5705 -0.5105
 5505TIP3    H140710   3.779   6.038   9.691 -1.0292  0.8119  0.1796
 5505TIP3    H240711   3.894   6.137   9.683 -0.1597 -0.1083  1.0453
 5506TIP3   OH240712   1.741   0.320   6.822  0.2610 -0.0838  0.0726
 5506TIP3    H140713   1.758   0.414   6.808  0.8722 -0.4639 -1.9582
 5506TIP3    H240714   1.793   0.298   6.899  0.8664  1.0414  0.0117
 5507TIP3   OH240715   0.318   4.666   7.633  0.2209  0.1688 -0.5538
 5507TIP3    H140716   0.247   4.669   7.569  0.2079 -0.6336 -0.5870
 5507TIP3    H240717   0.398   4.670   7.581  0.2101  0.2680 -0.5642
 5508TIP3   OH240718   2.300   2.760  10.066  0.1161 -0.0944  0.5728
 5508TIP3    H140719   2.317   2.667  10.084  0.0520  0.1733  2.1692
 5508TIP3    H240720   2.361   2.807  10.123 -0.3011  0.8492  0.2621
 5509TIP3   OH240721   3.349   2.990   9.101 -0.3336  0.2526  0.1201
 5509TIP3    H140722   3.297   2.955   9.174  0.8601  0.8052  1.2789
 5509TIP3    H240723   3.355   2.917   9.039 -0.4407 -0.6088  1.0852
 5510TIP3   OH240724   4.448   1.846   9.695 -0.0361  0.1439 -0.0628
 5510TIP3    H140725   4.543   1.840   9.690  0.1100  1.7139  0.2976
 5510TIP3    H240726   4.425   1.795   9.773  0.5925  0.3994  0.2968
 5511TIP3   OH240727   1.195   6.445   9.012 -0.4771 -0.4102  0.3272
 5511TIP3    H140728   1.221   6.537   9.004 -1.4290 -0.2303 -1.0822
 5511TIP3    H240729   1.194   6.429   9.106 -1.9030  1.5283  0.7091
 5512TIP3   OH240730   3.437   1.742   7.559  0.0299 -0.0761 -0.4592
 5512TIP3    H140731   3.507   1.680   7.540 -0.6355 -1.3726  1.0834
 5512TIP3    H240732   3.364   1.687   7.588 -1.2462  1.3181 -0.8808
 5513TIP3   OH240733   6.371   2.984   7.121 -0.2683 -0.0391 -0.1518
 5513TIP3    H140734   6.355   3.057   7.180 -2.4828 -0.9091  0.3892
 5513TIP3    H240735   6.302   2.990   7.055  1.8072  0.5762 -2.4443
 5514TIP3   OH240736   1.538   6.443   6.779 -0.5454 -0.3700  0.3290
 5514TIP3    H140737   1.502   6.355   6.782  0.9173 -1.0201 -0.3666
 5514TIP3    H240738   1.480   6.490   6.718 -0.2667 -1.3790 -0.7443
 5515TIP3   OH240739   1.111   4.624   7.187 -0.6364  0.1840 -0.5171
 5515TIP3    H140740   1.086   4.697   7.244 -0.2678  1.4697 -1.9298
 5515TIP3    H240741   1.040   4.617   7.124 -2.5708 -3.2151  1.7456
 5516TIP3   OH240742   4.387   3.441   6.950 -0.4900 -0.0543  0.0912
 5516TIP3    H140743   4.408   3.458   6.858  0.1908  0.3910  0.3138
 5516TIP3    H240744   4.300   3.479   6.962 -0.6918 -0.3387 -0.4259
 5517TIP3   OH240745   0.852   4.636  16.480  0.4320 -0.0146 -0.3895
 5517TIP3    H140746   0.778   4.689  16.510  1.0774  0.8274 -0.2561
 5517TIP3    H240747   0.894   4.689  16.412  0.1872 -1.0289 -1.3478
 5518TIP3   OH240748   5.028   1.105   9.903  0.4255 -0.0800  0.1932
 5518TIP3    H140749   5.016   1.039   9.834  1.0782 -0.0660  0.0632
 5518TIP3    H240750   4.940   1.142   9.916  0.5681  1.1852 -1.9170
 5519TIP3   OH240751   3.834   2.338   6.970 -0.9121  0.4533  1.1188
 5519TIP3    H140752   3.865   2.391   6.896  0.4708 -2.6192 -0.6847
 5519TIP3    H240753   3.889   2.364   7.043  0.1889  1.0327  0.1167
 5520TIP3   OH240754   1.420   3.068   8.290  0.1988 -0.4564  0.6839
 5520TIP3    H140755   1.458   3.152   8.315  0.9264 -0.9145  1.1663
 5520TIP3    H240756   1.384   3.032   8.371 -1.7574  0.1806  0.1507
 5521TIP3   OH240757   4.513   1.024   6.675 -0.1775 -0.1409  0.2406
 5521TIP3    H140758   4.483   1.014   6.765 -1.0562  2.4365  0.3250
 5521TIP3    H240759   4.551   0.939   6.652  0.4722 -0.7283  3.1597
 5522TIP3   OH240760   1.477   3.118   9.919  0.4062 -0.4372 -0.0865
 5522TIP3    H140761   1.454   3.073  10.000  0.7783 -1.3652 -0.4854
 5522TIP3    H240762   1.569   3.140   9.928  0.7800 -1.6220 -0.7266
 5523TIP3   OH240763   1.036   1.483   6.595  0.8401 -0.3648  0.1393
 5523TIP3    H140764   1.062   1.563   6.549  1.1192 -0.6494 -0.2090
 5523TIP3    H240765   1.017   1.512   6.684 -0.4897  0.3335 -0.3382
 5524TIP3   OH240766   5.640   0.997   7.854 -0.1631 -0.0956 -0.4992
 5524TIP3    H140767   5.647   1.068   7.918 -1.1541  1.7934 -2.3586
 5524TIP3    H240768   5.706   1.018   7.788 -0.0877 -1.2399 -0.8118
 5525TIP3   OH240769   3.004   3.280   8.770 -0.4175 -0.1808  0.0312
 5525TIP3    H140770   3.030   3.209   8.828 -0.5803 -1.2086 -1.1120
 5525TIP3    H240771   3.048   3.262   8.687 -1.6501  0.2068 -0.7449
 5526TIP3   OH240772   1.586   1.050   8.089 -0.2474  0.1152  0.2002
 5526TIP3    H140773   1.665   0.997   8.076 -0.4955  0.0911 -1.3096
 5526TIP3    H240774   1.606   1.102   8.167  0.7121 -0.8808  0.6483
 5527TIP3   OH240775   5.849   3.048   7.083 -0.6362  0.2868  0.2848
 5527TIP3    H140776   5.939   3.016   7.089 -0.2756  0.4019 -2.8297
 5527TIP3    H240777   5.857   3.143   7.097 -0.2499  0.3003 -0.0029
 5528TIP3   OH240778   5.870   3.677   8.683  0.0005  0.0409  0.2163
 5528TIP3    H140779   5.794   3.673   8.741 -2.3080 -1.4234 -2.6113
 5528TIP3    H240780   5.913   3.593   8.694 -0.5916 -0.3446 -0.3117
 5529TIP3   OH240781   0.503   3.550  16.526  0.0035 -0.3683 -0.2823
 5529TIP3    H140782   0.440   3.606  16.481  0.0198 -0.6140 -0.6202
 5529TIP3    H240783   0.567   3.611  16.563  0.9575 -0.2120 -2.0615
 5530TIP3   OH240784   0.381   4.692   9.002  0.6100  0.2969 -0.2134
 5530TIP3    H140785   0.455   4.657   9.052 -0.0508 -0.1885  0.4561
 5530TIP3    H240786   0.380   4.785   9.023 -0.1665 -0.0445  1.3862
 5531TIP3   OH240787   6.692   5.590   9.401  0.1547  0.7372 -0.3963
 5531TIP3    H140788   6.716   5.642   9.324 -0.2875  0.8818 -0.4372
 5531TIP3    H240789   6.776   5.566   9.440  0.4898 -1.4508 -2.2850
 5532TIP3   OH240790   3.829   3.340   6.649 -0.1591  0.1087  0.0270
 5532TIP3    H140791   3.778   3.419   6.631 -0.4356  0.2014  1.1734
 5532TIP3    H240792   3.764   3.272   6.663  0.0801 -0.3279 -0.9269
 5533TIP3   OH240793   5.558   3.410   8.857 -0.1430 -0.1388  0.2406
 5533TIP3    H140794   5.552   3.327   8.808  0.6775 -0.1614  0.1546
 5533TIP3    H240795   5.540   3.386   8.947  2.3504 -0.8752  0.6200
 5534TIP3   OH240796   1.521   3.778   9.858  0.2788  0.3428 -0.6023
 5534TIP3    H140797   1.455   3.833   9.900 -1.3377 -0.5921 -1.8095
 5534TIP3    H240798   1.604   3.823   9.875 -0.0859 -0.3452  4.2076
 5535TIP3   OH240799   6.398   5.077   9.845  0.0799  0.1444  0.0693
 5535TIP3    H140800   6.485   5.059   9.880 -0.4714 -0.6996  1.0316
 5535TIP3    H240801   6.373   5.161   9.884  1.5388  1.8518 -2.3370
 5536TIP3   OH240802   0.370   3.927   9.591 -0.3030  0.6969  0.0916
 5536TIP3    H140803   0.290   3.972   9.617 -1.4827 -0.6801 -0.9970
 5536TIP3    H240804   0.409   3.898   9.674 -2.0594 -0.4190  0.5931
 5537TIP3   OH240805   6.066   3.721   8.125  0.2205 -0.6426  0.1476
 5537TIP3    H140806   6.132   3.707   8.057  0.7722 -1.0024  0.7458
 5537TIP3    H240807   6.011   3.791   8.091  0.4035 -0.9151 -0.7304
 5538TIP3   OH240808   6.694   5.167   8.195 -0.1149 -0.4804  0.7304
 5538TIP3    H140809   6.685   5.115   8.275 -1.0822  1.4580  1.9637
 5538TIP3    H240810   6.752   5.239   8.220 -2.5964  1.6963  0.6011
 5539TIP3   OH240811   4.564   2.357   6.906 -0.0984  0.5087  0.0571
 5539TIP3    H140812   4.586   2.363   6.999 -0.1426  1.4343  0.0154
 5539TIP3    H240813   4.548   2.448   6.879  2.0099  0.5214 -1.3562
 5540TIP3   OH240814   0.870   6.101   6.839 -0.0983 -0.2141 -0.2551
 5540TIP3    H140815   0.817   6.088   6.918 -0.4680 -1.2948 -0.6557
 5540TIP3    H240816   0.834   6.039   6.776 -0.9441  1.8030 -1.8785
 5541TIP3   OH240817   0.753   2.213   8.617 -0.6708  0.1459  0.3696
 5541TIP3    H140818   0.794   2.287   8.573  0.4200  0.5075  1.9166
 5541TIP3    H240819   0.661   2.218   8.591 -0.2014  0.7183 -1.2873
 5542TIP3   OH240820   0.007   3.678   9.103  0.3549  0.0712  0.4582
 5542TIP3    H140821  -0.008   3.708   9.013  1.2230 -1.5622 -0.2645
 5542TIP3    H240822   0.102   3.687   9.116  0.2112  0.5036  1.3013
 5543TIP3   OH240823   1.557   4.263   7.964 -0.4727 -0.1890  0.0354
 5543TIP3    H140824   1.531   4.199   8.031  0.0434 -1.0528 -0.5750
 5543TIP3    H240825   1.475   4.298   7.931 -0.7490  1.1012  1.8837
 5544TIP3   OH240826   4.706   2.370   9.263  0.0337 -0.1828 -0.6899
 5544TIP3    H140827   4.669   2.458   9.267 -1.1196 -0.5782 -1.9966
 5544TIP3    H240828   4.722   2.346   9.355 -3.7670 -0.3196  0.0644
 5545TIP3   OH240829   0.635   3.959   7.171  0.4808 -0.4836 -0.5923
 5545TIP3    H140830   0.591   3.949   7.256 -0.1095  0.7989 -0.7206
 5545TIP3    H240831   0.681   3.877   7.158  0.4654 -0.7600  0.9128
 5546TIP3   OH240832   5.671   4.701   7.106 -0.9606 -0.6431 -0.1767
 5546TIP3    H140833   5.728   4.651   7.048  1.1474  0.4868  0.7957
 5546TIP3    H240834   5.701   4.677   7.194 -2.4093 -0.4492  0.3888
 5547TIP3   OH240835   6.231   0.260   7.596  0.1513 -0.0671  0.2183
 5547TIP3    H140836   6.309   0.275   7.649  2.1516 -1.1258 -2.1866
 5547TIP3    H240837   6.169   0.327   7.623  1.7065  0.5099  2.5713
 5548TIP3   OH240838   3.373   6.670   7.613 -0.0269 -0.5244 -0.0146
 5548TIP3    H140839   3.431   6.713   7.675  1.2667 -0.8977 -0.9202
 5548TIP3    H240840   3.411   6.583   7.601 -1.0133 -0.9346 -0.3206
 5549TIP3   OH240841   5.223   1.782   7.272  0.0636 -0.4351 -0.0241
 5549TIP3    H140842   5.224   1.699   7.320  0.6486  0.0647  0.8352
 5549TIP3    H240843   5.152   1.771   7.209  0.7033 -1.9395 -0.5417
 5550TIP3   OH240844   6.030   2.697   9.856 -0.3962  0.0529  0.2347
 5550TIP3    H140845   5.995   2.770   9.805 -0.5425 -1.3810 -1.8585
 5550TIP3    H240846   6.083   2.738   9.924  0.9611  2.1111 -1.9069
 5551TIP3   OH240847   1.488   6.494   7.967 -0.0063 -0.2178 -0.3066
 5551TIP3    H140848   1.543   6.544   7.907  1.0770 -1.9382 -0.8146
 5551TIP3    H240849   1.493   6.541   8.050  0.1978  1.0146 -1.0067
 5552TIP3   OH240850   2.662   5.747   7.430  0.0389 -0.8373 -0.6879
 5552TIP3    H140851   2.730   5.708   7.485  1.7128  2.5732 -0.0890
 5552TIP3    H240852   2.689   5.726   7.341 -0.5972 -3.1440 -0.4143
 5553TIP3   OH240853   2.371   1.740   9.349  0.4033  0.3329  0.0428
 5553TIP3    H140854   2.284   1.771   9.324  0.8161  1.1472 -0.4019
 5553TIP3    H240855   2.357   1.699   9.435 -0.5910 -0.4338 -0.4671
 5554TIP3   OH240856   1.958   5.760   8.132  0.2915  0.5850 -0.2506
 5554TIP3    H140857   1.954   5.728   8.042  1.4240  0.1986 -0.1832
 5554TIP3    H240858   1.932   5.851   8.126 -0.7353  0.2710 -0.7949
 5555TIP3   OH240859   5.817   0.307   8.544 -0.4397 -0.2920  0.0754
 5555TIP3    H140860   5.794   0.399   8.538 -0.5755 -0.3413 -0.2032
 5555TIP3    H240861   5.734   0.261   8.557 -0.3967 -0.3913  0.0080
 5556TIP3   OH240862   2.959   1.578   8.783 -0.5327  0.0709  0.0316
 5556TIP3    H140863   3.023   1.578   8.854 -2.4731  0.5930  1.9039
 5556TIP3    H240864   2.959   1.668   8.750  0.5430 -0.2297 -0.8392
 5557TIP3   OH240865   6.280   2.251   9.273  0.2809 -0.0659 -0.0792
 5557TIP3    H140866   6.185   2.243   9.273  0.2259  0.4987  0.3524
 5557TIP3    H240867   6.304   2.254   9.366  0.7458 -0.4779 -0.1812
 5558TIP3   OH240868   1.489   4.600  10.029 -0.2986  0.2138  0.1810
 5558TIP3    H140869   1.443   4.616  10.111  0.2607 -2.1719  1.0240
 5558TIP3    H240870   1.424   4.558   9.973 -0.0679 -0.1971  0.2171
 5559TIP3   OH240871   5.319   4.072   7.383 -0.3238  0.0927 -1.0629
 5559TIP3    H140872   5.399   4.054   7.333  1.1404 -1.0095  1.4803
 5559TIP3    H240873   5.299   3.990   7.427 -1.2979  1.0885  0.4633
 5560TIP3   OH240874   6.139   0.111   9.400  0.0325 -0.1992 -0.5854
 5560TIP3    H140875   6.152   0.190   9.452  0.9545  1.2168 -2.8012
 5560TIP3    H240876   6.050   0.082   9.421 -0.4795  1.6706 -0.0460
 5561TIP3   OH240877   3.955   0.389   9.242 -0.6996 -0.3919  0.1514
 5561TIP3    H140878   3.958   0.434   9.326  0.0291 -0.9570  0.4419
 5561TIP3    H240879   4.047   0.376   9.218 -0.8935 -1.2560 -0.1723
 5562TIP3   OH240880   5.736   1.203   6.718 -0.4420 -0.5927  0.3140
 5562TIP3    H140881   5.779   1.221   6.802  0.3949  0.4139 -0.3074
 5562TIP3    H240882   5.752   1.110   6.702 -0.3846 -0.7355  1.1385
 5563TIP3   OH240883   5.935   1.696   6.737 -0.1043 -0.2507 -0.0493
 5563TIP3    H140884   5.921   1.604   6.712 -0.2528 -0.3328  0.3213
 5563TIP3    H240885   6.028   1.712   6.720 -0.2094 -0.2967 -0.6644
 5564TIP3   OH240886   3.971   2.476   8.400  0.5578 -0.3552 -0.3433
 5564TIP3    H140887   3.989   2.545   8.337  1.0623 -0.3467 -0.1914
 5564TIP3    H240888   4.004   2.396   8.359  0.8368 -0.3589 -0.1194
 5565TIP3   OH240889   5.616   6.155   9.517 -0.0025  0.6465 -0.5133
 5565TIP3    H140890   5.649   6.066   9.529 -2.6735 -0.2134  1.4459
 5565TIP3    H240891   5.660   6.206   9.585 -0.6041  0.1302  0.2833
 5566TIP3   OH240892   6.542   4.784   8.842  0.3736 -0.5323  0.3637
 5566TIP3    H140893   6.521   4.702   8.886 -0.7809 -0.2081  0.4500
 5566TIP3    H240894   6.471   4.843   8.867  0.8954  0.3292 -0.1431
 5567TIP3   OH240895   4.479   1.628   9.033  0.0006  0.1168 -0.0903
 5567TIP3    H140896   4.526   1.709   9.051 -0.6737  0.3545  0.6555
 5567TIP3    H240897   4.498   1.609   8.941  1.6989  0.0957  0.2241
 5568TIP3   OH240898   4.979   2.495   8.612 -0.4740  0.1683  0.0101
 5568TIP3    H140899   5.042   2.537   8.670  0.6733 -0.5428 -0.6874
 5568TIP3    H240900   5.029   2.427   8.566 -1.7739 -0.5109 -0.4678
 5569TIP3   OH240901   4.100   3.507   8.672  0.0746 -0.6657 -0.5432
 5569TIP3    H140902   4.087   3.418   8.705  0.6214 -0.9191 -0.9871
 5569TIP3    H240903   4.194   3.512   8.653  0.0592  0.0281 -0.4679
 5570TIP3   OH240904   4.414   3.996  10.525  0.0271 -0.1918 -0.5487
 5570TIP3    H140905   4.454   3.912  10.503  1.6206  0.2592  0.4571
 5570TIP3    H240906   4.405   4.042  10.442 -1.6468 -1.6507 -1.2245
 5571TIP3   OH240907   4.148   3.746   7.730 -0.2919 -0.8674  0.2955
 5571TIP3    H140908   4.241   3.761   7.750 -0.2303  0.3831 -0.8554
 5571TIP3    H240909   4.107   3.737   7.816  0.6996 -0.2066  0.8547
 5572TIP3   OH240910   6.736   2.979   9.243 -0.2550 -0.0765 -0.1149
 5572TIP3    H140911   6.692   2.897   9.264 -0.2723 -0.2037 -0.6411
 5572TIP3    H240912   6.673   3.027   9.189 -1.1042  1.1998  1.8937
 5573TIP3   OH240913   4.729   1.538   8.516 -0.4247  0.9122 -0.4851
 5573TIP3    H140914   4.701   1.591   8.591  0.0705  1.5123 -0.7220
 5573TIP3    H240915   4.725   1.598   8.441  1.4584  1.0285 -0.5387
 5574TIP3   OH240916   3.609   4.332   7.282 -0.0280  0.0069 -0.0156
 5574TIP3    H140917   3.521   4.296   7.273 -0.2862  0.7334 -0.4984
 5574TIP3    H240918   3.667   4.261   7.254 -0.3413 -1.0798  1.9466
 5575TIP3   OH240919   6.324   1.845   8.182 -0.1963  0.7783  0.1237
 5575TIP3    H140920   6.324   1.760   8.137 -0.0500  0.4355  0.7477
 5575TIP3    H240921   6.254   1.894   8.141 -1.1582 -0.1261  0.6237
 5576TIP3   OH240922   2.013   4.250   9.157  0.1172 -0.2352 -0.5227
 5576TIP3    H140923   1.996   4.166   9.115 -0.8743  0.0634 -0.7427
 5576TIP3    H240924   1.958   4.250   9.236  0.3633  0.0688 -0.3472
 5577TIP3   OH240925   4.419   2.238   8.108 -0.3619  0.1280 -0.1972
 5577TIP3    H140926   4.368   2.165   8.143  0.5772 -0.6021 -0.2835
 5577TIP3    H240927   4.501   2.235   8.158 -0.2750  1.0713 -0.2711
 5578TIP3   OH240928   1.055   3.462   8.213  0.1647  0.4878  0.4531
 5578TIP3    H140929   1.073   3.477   8.305 -2.3252 -1.8673  1.4814
 5578TIP3    H240930   0.968   3.500   8.199 -0.4835 -1.1336 -0.2348
 5579TIP3   OH240931   6.035   1.440   7.187 -0.9028 -0.4822 -0.5630
 5579TIP3    H140932   5.943   1.425   7.164 -0.7040 -0.2814 -1.5330
 5579TIP3    H240933   6.079   1.449   7.103  0.1396 -1.3313 -0.1270
 5580TIP3   OH240934   4.484   2.895  10.131 -0.1751 -0.0331 -0.6246
 5580TIP3    H140935   4.481   2.812  10.179 -1.1138 -0.6032 -1.6282
 5580TIP3    H240936   4.402   2.939  10.154  1.9580  2.5804  3.1450
 5581TIP3   OH240937   5.629   4.684   9.257 -0.1914 -0.4425 -0.0630
 5581TIP3    H140938   5.610   4.666   9.164  0.1261  1.0294 -0.4406
 5581TIP3    H240939   5.724   4.675   9.264 -0.4035 -2.6795  0.6467
 5582TIP3   OH240940   4.210   0.280   7.709  0.1298 -0.0492 -0.2372
 5582TIP3    H140941   4.221   0.340   7.636  2.3380 -1.7988 -1.4607
 5582TIP3    H240942   4.166   0.332   7.777 -0.4675  2.1088 -2.1646
 5583TIP3   OH240943   2.175   0.473   6.713 -0.1012  0.3193  0.0641
 5583TIP3    H140944   2.253   0.449   6.764  2.4209  2.6536 -2.3111
 5583TIP3    H240945   2.141   0.552   6.756 -0.9870 -0.4936  0.8907
 5584TIP3   OH240946   1.106   2.174   8.684  0.5945  0.4295  0.3690
 5584TIP3    H140947   1.158   2.095   8.669 -0.6614 -0.5747  1.1043
 5584TIP3    H240948   1.015   2.145   8.676  0.0761  1.5188  1.8639
 5585TIP3   OH240949   2.561   0.056   7.969  0.2502 -0.3864  0.4356
 5585TIP3    H140950   2.532   0.061   7.877  0.9339 -1.5144  0.1441
 5585TIP3    H240951   2.501  -0.006   8.010  0.1456 -0.1256  0.6821
 5586TIP3   OH240952   3.504   3.641   6.776 -0.1537  0.0198  0.0725
 5586TIP3    H140953   3.468   3.728   6.756  1.1999  0.4106 -0.7859
 5586TIP3    H240954   3.465   3.618   6.861 -2.3246  0.4382 -0.7361
 5587TIP3   OH240955   1.798   0.907   7.544 -0.3367  0.2452 -0.0589
 5587TIP3    H140956   1.890   0.892   7.525  0.0342 -0.1036  1.7911
 5587TIP3    H240957   1.773   0.836   7.603 -1.4982  0.9040  0.2921
 5588TIP3   OH240958   1.635   3.558   8.500 -0.1238 -0.0268 -1.0200
 5588TIP3    H140959   1.612   3.529   8.588 -1.7983 -0.6215 -1.6279
 5588TIP3    H240960   1.688   3.637   8.514 -2.3632  1.3227  0.4892
 5589TIP3   OH240961   4.779   5.271   9.803 -0.3351 -0.0106 -0.1101
 5589TIP3    H140962   4.780   5.366   9.814  1.4131  0.1243 -1.0640
 5589TIP3    H240963   4.691   5.251   9.772 -1.2964  1.0458  1.7819
 5590TIP3   OH240964   4.143   6.048   8.081 -0.0268 -0.6372  0.3506
 5590TIP3    H140965   4.220   6.022   8.030 -0.9595 -1.6666 -0.5787
 5590TIP3    H240966   4.069   6.009   8.035 -1.2281  1.1456  0.6557
 5591TIP3   OH240967   3.782   5.038   9.563 -0.2021 -0.0158  0.4045
 5591TIP3    H140968   3.803   5.105   9.628  1.6719  0.0470 -0.1869
 5591TIP3    H240969   3.824   4.959   9.596  1.6043  0.2327 -1.0931
 5592TIP3   OH240970   5.399   3.490   7.543  0.3326 -0.3576 -0.6563
 5592TIP3    H140971   5.434   3.569   7.502  0.1885 -0.5522 -1.1615
 5592TIP3    H240972   5.438   3.418   7.494 -0.2955 -0.5846 -0.8253
 5593TIP3   OH240973   0.118   2.795   7.994 -0.4451 -0.0132 -0.0003
 5593TIP3    H140974   0.178   2.840   7.933  1.8260 -0.1503  1.9969
 5593TIP3    H240975   0.074   2.729   7.940  0.0069  1.1520 -1.8886
 5594TIP3   OH240976   6.272   4.035   7.376  0.1636 -0.0228  0.4027
 5594TIP3    H140977   6.190   4.084   7.376 -0.3889 -0.9134 -0.3967
 5594TIP3    H240978   6.309   4.050   7.463 -1.4402 -0.5660  1.2155
 5595TIP3   OH240979   3.182   6.773   8.691  0.3103  0.1920 -0.3797
 5595TIP3    H140980   3.181   6.713   8.766  0.7283  0.3916 -0.2092
 5595TIP3    H240981   3.117   6.839   8.713  0.2524  0.1103 -0.3057
 5596TIP3   OH240982   2.814   2.120   7.243  0.3659  0.0235  0.4729
 5596TIP3    H140983   2.842   2.110   7.152 -0.7105 -0.7296  0.1929
 5596TIP3    H240984   2.857   2.048   7.289  3.2527  2.0536  1.2190
 5597TIP3   OH240985   4.348   4.050   6.737  0.1349  0.3114  0.1306
 5597TIP3    H140986   4.434   4.030   6.772  0.0843 -1.1515 -0.5261
 5597TIP3    H240987   4.359   4.135   6.694  0.7946  0.9612  1.4895
 5598TIP3   OH240988   5.984   4.634   8.008  0.4491  0.1192 -0.2377
 5598TIP3    H140989   5.947   4.608   7.923 -1.4611 -0.6636  0.7662
 5598TIP3    H240990   5.916   4.688   8.048  1.1379  0.1242  0.9775
 5599TIP3   OH240991   2.510   6.696   9.180 -0.0689  0.4931 -0.2104
 5599TIP3    H140992   2.504   6.791   9.178  1.5228  0.9488  4.3794
 5599TIP3    H240993   2.585   6.675   9.125  0.3415  2.0349 -0.2623
 5600TIP3   OH240994   4.158   0.455   8.887  0.1639  0.8894  0.2132
 5600TIP3    H140995   4.157   0.484   8.978  0.3216  1.7254 -0.0500
 5600TIP3    H240996   4.213   0.376   8.888 -0.7246  0.2589  1.0184
 5601TIP3   OH240997   6.136   2.931   9.115 -0.2261 -0.1874  0.0919
 5601TIP3    H140998   6.085   2.863   9.158  0.2656 -0.7496 -0.1960
 5601TIP3    H240999   6.224   2.893   9.106 -0.0768  0.2836 -0.5258
 5602TIP3   OH241000   4.191   1.026   9.004  0.0917  0.2375 -0.3759
 5602TIP3    H141001   4.196   1.015   9.099  2.6870 -0.3289 -0.4997
 5602TIP3    H241002   4.179   1.120   8.992  0.7964  0.4591  0.5243
 5603TIP3   OH241003   4.892   5.523   7.428  0.8258 -0.6233 -0.0938
 5603TIP3    H141004   4.906   5.617   7.421 -0.4531 -0.0901  2.9653
 5603TIP3    H241005   4.966   5.492   7.480  1.4799 -1.4516 -1.4528
 5604TIP3   OH241006   3.363   2.683   9.014  0.5918  0.3289 -0.1640
 5604TIP3    H141007   3.275   2.673   8.979  1.0194 -0.2797 -1.1184
 5604TIP3    H241008   3.379   2.600   9.060  0.5615  0.5467  0.2349
 5605TIP3   OH241009   3.407   3.925   8.621  0.5930  0.4748  0.3001
 5605TIP3    H141010   3.452   3.853   8.576  0.8579 -0.4631  1.9773
 5605TIP3    H241011   3.477   3.986   8.644  0.4666  0.9208 -0.4716
 5606TIP3   OH241012   3.156   3.423   9.260 -0.0927  0.0257 -0.1365
 5606TIP3    H141013   3.149   3.327   9.259  1.4738 -0.1159  0.1083
 5606TIP3    H241014   3.115   3.451   9.179  1.8619 -1.0791 -1.5871
 5607TIP3   OH241015   5.961   1.376   9.126 -0.3763  0.0721  0.2688
 5607TIP3    H141016   5.970   1.320   9.203  0.9104  0.0399  0.1120
 5607TIP3    H241017   5.876   1.352   9.089  0.3294 -2.1110 -0.0610
 5608TIP3   OH241018   4.358   1.791   7.614  0.1634  0.3586 -0.1267
 5608TIP3    H141019   4.269   1.793   7.578  1.0650  0.7897 -2.4866
 5608TIP3    H241020   4.359   1.861   7.679 -1.2831  0.1697  0.1256
 5609TIP3   OH241021   3.835   2.110   7.377  0.0910 -0.7548  0.1026
 5609TIP3    H141022   3.835   2.205   7.379  0.1259 -0.7568  0.2255
 5609TIP3    H241023   3.790   2.087   7.296 -2.0753 -0.6591  1.2100
 5610TIP3   OH241024   0.583   3.524   7.047  0.0616  0.8096 -0.5353
 5610TIP3    H141025   0.544   3.486   7.126  1.0056  1.8799  0.4720
 5610TIP3    H241026   0.576   3.454   6.981 -3.1406  0.7952 -0.3150
 5611TIP3   OH241027   4.472   0.174   7.697  0.0433  0.1886  0.8350
 5611TIP3    H141028   4.473   0.134   7.610 -0.5412  0.5862  0.6360
 5611TIP3    H241029   4.380   0.196   7.711  0.0640 -0.2899  1.7517
 5612TIP3   OH241030   5.196   1.241   7.886 -0.4856  0.1350 -0.1077
 5612TIP3    H141031   5.248   1.195   7.952  0.1367  0.6568 -0.2285
 5612TIP3    H241032   5.129   1.288   7.937 -0.2964  0.1647  0.1157
 5613TIP3   OH241033   6.185   2.039   7.106  0.1444 -0.1555 -0.1217
 5613TIP3    H141034   6.140   1.957   7.128  0.3669 -0.0376  0.8043
 5613TIP3    H241035   6.133   2.107   7.149 -0.9848  0.3903 -2.2140
 5614TIP3   OH241036   1.937   2.168   7.668  0.2295  0.3773  0.2370
 5614TIP3    H141037   2.007   2.125   7.717  1.8525  1.0058 -1.4258
 5614TIP3    H241038   1.921   2.111   7.593  0.9174  1.5445 -0.8504
 5615TIP3   OH241039   3.347   0.579   8.300  0.2681  0.2680 -0.1013
 5615TIP3    H141040   3.430   0.626   8.286 -0.8866  2.2933 -0.4915
 5615TIP3    H241041   3.294   0.602   8.224 -0.4066 -1.6634 -0.2711
 5616TIP3   OH241042   0.874   3.052   9.917  0.3141 -0.2506 -0.4993
 5616TIP3    H141043   0.846   3.144   9.927 -0.9689 -0.7596  1.1868
 5616TIP3    H241044   0.963   3.051   9.951 -0.2876  0.1044  1.2566
 5617TIP3   OH241045   5.221   4.105   9.340 -0.1821 -0.4043  0.2377
 5617TIP3    H141046   5.244   4.060   9.421  0.0146 -2.0336 -0.6696
 5617TIP3    H241047   5.281   4.179   9.335 -1.1490  0.5870  2.2599
 5618TIP3   OH241048   2.013   2.015   9.661  0.2211  0.0100  0.1784
 5618TIP3    H141049   2.102   1.984   9.679  0.1396 -0.5661 -0.3600
 5618TIP3    H241050   1.990   2.069   9.736 -0.1513 -2.3851  1.9210
 5619TIP3   OH241051   0.282   2.685   9.290 -0.4473  0.5260  0.2513
 5619TIP3    H141052   0.367   2.654   9.258 -0.0150  0.1999  1.6272
 5619TIP3    H241053   0.217   2.633   9.242  0.2221 -1.3857  1.2993
 5620TIP3   OH241054   4.438   2.131   6.760 -0.0883 -0.2094  0.1878
 5620TIP3    H141055   4.448   2.226   6.755  1.2401 -0.0616  3.4666
 5620TIP3    H241056   4.357   2.112   6.712  1.0848  2.1528 -3.0317
 5621TIP3   OH241057   1.210   4.265   8.187 -0.0552  0.0415 -0.0423
 5621TIP3    H141058   1.212   4.346   8.136  0.0222 -0.5944 -1.0755
 5621TIP3    H241059   1.298   4.258   8.224 -0.6537  1.4933  1.8291
 5622TIP3   OH241060   1.147   1.332   8.606  0.2873 -0.3245 -0.2756
 5622TIP3    H141061   1.186   1.311   8.521  1.6594  1.7143 -0.2232
 5622TIP3    H241062   1.052   1.329   8.590  0.4205 -2.7172 -1.1111
 5623TIP3   OH241063   6.426   5.687   8.973 -0.7248 -0.0077  0.4164
 5623TIP3    H141064   6.502   5.738   9.001 -1.2169  0.4202  0.9963
 5623TIP3    H241065   6.374   5.676   9.053 -2.5685  1.9122 -0.4476
 5624TIP3   OH241066   3.610   4.505   7.798  0.1068  0.3552  0.0249
 5624TIP3    H141067   3.532   4.472   7.755  0.0898  0.8931 -0.3731
 5624TIP3    H241068   3.580   4.580   7.849  0.1309 -0.2496  0.9678
 5625TIP3   OH241069   0.967   2.067   8.455  0.0282 -0.3278  0.0234
 5625TIP3    H141070   1.061   2.062   8.437  0.0331 -1.6340  0.3568
 5625TIP3    H241071   0.928   2.089   8.370  0.6932  1.1755  0.0748
 5626TIP3   OH241072   2.504   5.094   7.204 -0.4655 -0.2158 -0.7444
 5626TIP3    H141073   2.410   5.112   7.197 -0.3545 -0.1484 -2.8598
 5626TIP3    H241074   2.545   5.157   7.144  1.0372  0.3893  0.8421
 5627TIP3   OH241075   2.543   4.557   7.054  0.2910  0.1709  0.4071
 5627TIP3    H141076   2.456   4.546   7.092 -0.2097  2.1171 -0.0607
 5627TIP3    H241077   2.563   4.650   7.066  1.5900  0.1085 -0.9825
 5628TIP3   OH241078   0.175   2.153   9.074  0.4501 -0.3053 -0.1566
 5628TIP3    H141079   0.099   2.147   9.016  0.1202  0.6798  0.1392
 5628TIP3    H241080   0.214   2.238   9.052  0.2753  0.1175  1.0889
 5629TIP3   OH241081   4.636   1.213   9.218  0.4173 -0.4663  0.2917
 5629TIP3    H141082   4.647   1.307   9.201 -0.8853 -0.5263 -1.1628
 5629TIP3    H241083   4.550   1.193   9.182  2.0291 -2.9090 -2.7012
 5630TIP3   OH241084   3.882   4.080   8.112  0.3808  0.1770  0.4473
 5630TIP3    H141085   3.943   4.051   8.044 -0.5268  0.6341 -0.5824
 5630TIP3    H241086   3.939   4.112   8.182  1.3569  1.1437 -0.7277
 5631TIP3   OH241087   5.531   6.180   9.000 -0.3444  0.4527  0.5575
 5631TIP3    H141088   5.570   6.219   9.079  2.0274  0.4625 -0.5233
 5631TIP3    H241089   5.540   6.247   8.933  0.4844 -0.5954 -0.4350
 5632TIP3   OH241090   4.608   5.093   9.056 -0.5476 -0.4076  0.1202
 5632TIP3    H141091   4.681   5.136   9.012 -2.1402  1.3414 -0.9348
 5632TIP3    H241092   4.631   5.097   9.149  0.9133 -0.3966 -0.2048
 5633TIP3   OH241093   3.513   1.433   9.192  0.1504  0.1405 -0.5660
 5633TIP3    H141094   3.585   1.370   9.191 -0.5363 -0.6761 -0.1015
 5633TIP3    H241095   3.487   1.439   9.285 -1.4647 -0.8838 -0.9018
 5634TIP3   OH241096   4.892   6.160   7.198  0.6091  0.1391  0.4261
 5634TIP3    H141097   4.853   6.150   7.111 -2.2190  1.0569  1.4909
 5634TIP3    H241098   4.865   6.082   7.245 -1.0871  1.3288  1.5362
 5635TIP3   OH241099   6.258   5.679   7.810 -0.1339 -0.5512 -0.1398
 5635TIP3    H141100   6.165   5.679   7.834 -0.0669  2.3906  0.4378
 5635TIP3    H241101   6.303   5.707   7.889  1.1512 -0.6734 -0.8015
 5636TIP3   OH241102   3.060   4.847   7.874 -0.0566 -0.4565 -0.2050
 5636TIP3    H141103   3.034   4.928   7.917  0.6948 -1.3326  2.0532
 5636TIP3    H241104   2.977   4.804   7.851 -0.6053 -0.8069  2.1558
 5637TIP3   OH241105   2.980   4.730   6.694  0.0294 -0.2458  0.1221
 5637TIP3    H141106   3.038   4.806   6.680 -1.0355  0.7089  0.7405
 5637TIP3    H241107   3.015   4.688   6.772  0.2920 -0.0640  0.1044
 5638TIP3   OH241108   3.977   2.247   7.880 -0.2700 -0.4247  0.8277
 5638TIP3    H141109   3.884   2.264   7.892 -0.0622 -0.2707  2.3824
 5638TIP3    H241110   4.021   2.327   7.907  0.2885  0.1201 -1.4673
 5639TIP3   OH241111   0.816   1.433   7.644  0.3680 -0.4475 -0.0475
 5639TIP3    H141112   0.906   1.422   7.676  0.2443 -0.3918  0.3356
 5639TIP3    H241113   0.790   1.518   7.680  0.5809  0.1111 -1.1710
 5640TIP3   OH241114   3.549   4.303   8.371  0.7395  0.4734 -0.6142
 5640TIP3    H141115   3.530   4.216   8.337  0.4786  0.7838 -1.2743
 5640TIP3    H241116   3.558   4.358   8.294  2.2551  0.7779 -0.2614
 5641TIP3   OH241117   6.367   4.639  10.360 -0.0131  0.5260 -0.1644
 5641TIP3    H141118   6.387   4.732  10.345 -1.1981  0.9257  0.5854
 5641TIP3    H241119   6.286   4.640  10.411 -0.2193 -0.9388 -0.4246
 5642TIP3   OH241120   4.426   6.422   9.416 -0.5372  0.1415 -0.0295
 5642TIP3    H141121   4.472   6.393   9.338 -1.3817 -0.6653 -0.2382
 5642TIP3    H241122   4.474   6.383   9.489 -0.1953  0.2812 -0.1788
 5643TIP3   OH241123   5.404   5.339   7.112  0.4138  0.7866  0.2619
 5643TIP3    H141124   5.331   5.322   7.053  0.7394 -1.5431  0.4568
 5643TIP3    H241125   5.482   5.324   7.059  0.7764  1.8774  0.4491
 5644TIP3   OH241126   1.333   4.327   6.829 -0.5106 -0.6801  0.3886
 5644TIP3    H141127   1.288   4.395   6.779  1.8143 -0.4514 -1.5672
 5644TIP3    H241128   1.346   4.365   6.916 -1.3546  0.4060  0.0640
 5645TIP3   OH241129   3.247   4.769   8.069  0.2177  0.4351 -0.7308
 5645TIP3    H141130   3.169   4.791   8.018 -0.4816 -0.7931 -0.2170
 5645TIP3    H241131   3.312   4.746   8.002 -0.3548 -0.1058 -1.1142
 5646TIP3   OH241132   0.912   2.630   7.972  0.3291  0.2313 -0.2343
 5646TIP3    H141133   0.976   2.700   7.988 -0.9581  1.3185  0.4585
 5646TIP3    H241134   0.895   2.593   8.059 -1.2741  1.1837 -0.0940
 5647TIP3   OH241135   1.896   5.445   9.136 -0.1326  0.5083  0.2014
 5647TIP3    H141136   1.952   5.442   9.058 -1.6450  1.7822 -1.0197
 5647TIP3    H241137   1.952   5.416   9.207  1.6934  0.5200 -1.1565
 5648TIP3   OH241138   4.786   6.632   7.141  0.0722 -0.0481  0.0397
 5648TIP3    H141139   4.757   6.668   7.225 -0.4793  0.6724 -0.4358
 5648TIP3    H241140   4.804   6.709   7.087  0.4911 -0.4987 -0.4770
 5649TIP3   OH241141   5.841   4.335   7.636  0.0075 -0.1964 -0.5948
 5649TIP3    H141142   5.777   4.291   7.580 -1.5083  0.5231  0.5023
 5649TIP3    H241143   5.800   4.418   7.658  1.9111  0.8816 -0.9060
 5650TIP3   OH241144   2.936   1.303   7.841  0.1830  0.0619 -0.0045
 5650TIP3    H141145   2.862   1.249   7.867  1.8473 -1.8253  1.0766
 5650TIP3    H241146   2.954   1.358   7.917 -0.2080  0.6706 -0.3426
 5651TIP3   OH241147   1.595   5.940   8.929  0.0034 -0.0062 -0.3270
 5651TIP3    H141148   1.523   5.966   8.987 -0.8909 -1.2812 -0.8205
 5651TIP3    H241149   1.624   5.856   8.963  1.0331  0.3286 -0.3563
 5652TIP3   OH241150   0.076   2.273   8.022  0.1799 -0.2107  0.2631
 5652TIP3    H141151   0.135   2.349   8.027  1.1110 -0.8733 -0.3152
 5652TIP3    H241152   0.012   2.297   7.956 -0.0815  0.4305  0.7355
 5653TIP3   OH241153   5.583   3.594   9.282  0.1048 -0.7896  0.0585
 5653TIP3    H141154   5.530   3.514   9.273 -0.7056 -0.3649  0.8687
 5653TIP3    H241155   5.657   3.580   9.222  0.4424 -2.5181  0.8089
 5654TIP3   OH241156   0.406   3.146   9.356 -0.4931 -0.5372 -0.9139
 5654TIP3    H141157   0.333   3.087   9.339 -0.6585 -0.9049  0.8753
 5654TIP3    H241158   0.465   3.095   9.413 -0.1125  0.6408 -0.2233
 5655TIP3   OH241159   1.441   1.459   7.788  0.0859  0.3391  0.2721
 5655TIP3    H141160   1.478   1.532   7.837  1.3481 -0.3431  0.3601
 5655TIP3    H241161   1.460   1.381   7.841  2.1105 -0.5061 -1.5368
 5656TIP3   OH241162   5.648   0.242   6.333  0.0302  0.4156  0.2336
 5656TIP3    H141163   5.632   0.241   6.239  1.0325  1.8865 -0.0003
 5656TIP3    H241164   5.581   0.300   6.368  0.4504  0.9277  0.2171
 5657TIP3   OH241165   1.215   1.214   7.943  0.1541 -0.6801  0.0300
 5657TIP3    H141166   1.306   1.243   7.942  0.2228 -0.8131  1.4028
 5657TIP3    H241167   1.173   1.267   8.011 -0.2730 -2.1292  0.9414
 5658TIP3   OH241168   1.257   3.446   7.523  0.7686  0.0165 -0.5980
 5658TIP3    H141169   1.312   3.390   7.468 -0.1981 -0.7103 -0.8336
 5658TIP3    H241170   1.180   3.393   7.543  0.6449  0.6272  0.6456
 5659TIP3   OH241171   1.331   3.890   7.750  0.1615  0.5575 -0.6604
 5659TIP3    H141172   1.246   3.909   7.709 -1.2482 -1.1302  1.2734
 5659TIP3    H241173   1.356   3.805   7.713  0.5628  0.6241 -0.5387
 5660TIP3   OH241174   6.424   4.539   9.765 -0.3099 -0.4324  0.1792
 5660TIP3    H141175   6.441   4.556   9.857 -3.6303  2.8360  0.4492
 5660TIP3    H241176   6.334   4.506   9.763 -0.2673 -0.5593 -1.8792
 5661TIP3   OH241177   4.708   2.069   9.696  0.0952  0.3762 -0.0783
 5661TIP3    H141178   4.738   2.039   9.782 -1.7394 -1.7089 -0.0951
 5661TIP3    H241179   4.633   2.125   9.715 -0.1261  0.1636 -0.3386
 5662TIP3   OH241180   2.433   3.896   8.210  0.1573  0.0866  0.3401
 5662TIP3    H141181   2.484   3.889   8.129 -0.7671  0.6384 -0.3096
 5662TIP3    H241182   2.498   3.889   8.280  0.9125 -0.9595 -0.4330
 5663TIP3   OH241183   1.365   1.929   7.903  0.3047 -0.8882  0.1067
 5663TIP3    H141184   1.422   1.922   7.826 -1.0127  0.4798 -1.0545
 5663TIP3    H241185   1.333   1.840   7.916 -0.7612 -0.8810 -2.0091
 5664TIP3   OH241186   5.234   2.401   6.866 -0.5871  0.3109 -0.0383
 5664TIP3    H141187   5.195   2.347   6.797  0.6603 -0.7381  0.0266
 5664TIP3    H241188   5.226   2.491   6.833 -1.8748  0.0306 -0.5779
 5665TIP3   OH241189   0.270   0.030   7.058 -0.7296  0.7065 -0.2669
 5665TIP3    H141190   0.331   0.041   7.131 -0.8304 -1.0239  0.1011
 5665TIP3    H241191   0.272  -0.063   7.039 -3.2841  0.5856 -0.2251
 5666TIP3   OH241192   3.831   0.274   9.910  0.4362 -0.2612  0.5120
 5666TIP3    H141193   3.891   0.345   9.889  0.6941 -0.2227  1.3420
 5666TIP3    H241194   3.886   0.195   9.909  0.0405 -0.5454 -0.9743
 5667TIP3   OH241195   5.885   2.311   7.698 -0.2069 -0.1604  0.1056
 5667TIP3    H141196   5.805   2.349   7.661 -0.2025 -2.1016 -2.1275
 5667TIP3    H241197   5.859   2.225   7.729  0.6814 -0.1404  0.9537
 5668TIP3   OH241198   3.214   4.233   8.133 -0.3189  0.0769 -0.2548
 5668TIP3    H141199   3.297   4.190   8.152 -1.0603 -1.2815 -0.0174
 5668TIP3    H241200   3.217   4.252   8.040  0.9822  1.6648  0.0605
 5669TIP3   OH241201   0.293   3.636   8.012  0.7629 -0.1895 -0.0298
 5669TIP3    H141202   0.365   3.690   7.978  1.8692 -0.8991  1.0728
 5669TIP3    H241203   0.215   3.668   7.966  1.7267  0.8112 -1.0473
 5670TIP3   OH241204   0.634   3.261   9.720  0.3729 -0.1417 -0.1751
 5670TIP3    H141205   0.682   3.247   9.802  0.4197  0.6056 -0.0677
 5670TIP3    H241206   0.682   3.210   9.655 -0.1419 -1.4152  0.4089
 5671TIP3   OH241207   2.266   6.753   8.947  0.4689 -0.4612  0.1042
 5671TIP3    H141208   2.274   6.696   9.024  0.9095 -1.0556 -0.3804
 5671TIP3    H241209   2.342   6.732   8.893 -0.5227 -0.9713 -1.1190
 5672TIP3   OH241210   6.636   1.006   8.566 -0.1625 -0.1105 -0.2336
 5672TIP3    H141211   6.684   1.027   8.486  0.2295 -1.0525 -0.2611
 5672TIP3    H241212   6.544   1.001   8.539 -0.1212  0.3451 -0.4595
 5673TIP3   OH241213   3.749   0.664   7.295 -0.1785  0.0211  0.3143
 5673TIP3    H141214   3.733   0.746   7.342 -0.1416  0.7061 -0.8223
 5673TIP3    H241215   3.664   0.644   7.254 -0.3761 -0.8865  1.1287
 5674TIP3   OH241216   5.500   6.526   6.658 -0.4479 -0.1549 -0.4110
 5674TIP3    H141217   5.584   6.510   6.616 -0.4847 -1.1446 -0.1204
 5674TIP3    H241218   5.521   6.539   6.750 -0.6925 -1.3610 -0.1700
 5675TIP3   OH241219   3.165   2.003   7.937 -0.1743  0.2081 -0.5446
 5675TIP3    H141220   3.157   2.031   7.846  0.3952  1.2525 -0.2914
 5675TIP3    H241221   3.257   2.016   7.958 -0.4542  0.7838  0.4199
 5676TIP3   OH241222   1.611   6.510   7.678  0.5203  0.5872 -0.5520
 5676TIP3    H141223   1.593   6.601   7.703  1.7648  0.9690 -0.9779
 5676TIP3    H241224   1.656   6.517   7.594  0.7317 -0.4224 -0.5280
 5677TIP3   OH241225   5.989   4.581   9.902  0.0224 -0.2391  0.1312
 5677TIP3    H141226   5.955   4.669   9.885 -0.9062 -0.3865  1.0768
 5677TIP3    H241227   5.911   4.528   9.915  0.5953 -0.9934  0.5525
 5678TIP3   OH241228   0.430   0.076   8.721  0.0669  0.4477 -0.5210
 5678TIP3    H141229   0.395   0.029   8.797 -0.1576  0.2979 -0.7167
 5678TIP3    H241230   0.502   0.128   8.756  0.7438 -0.5373 -0.4049
 5679TIP3   OH241231   2.247   2.303   7.189  0.2876 -0.4278 -0.1330
 5679TIP3    H141232   2.279   2.336   7.104  0.1449  0.9197  0.3096
 5679TIP3    H241233   2.237   2.209   7.175  1.9604 -0.5233 -1.0854
 5680TIP3   OH241234   4.705   1.467   9.187 -0.5085 -0.2606 -0.2309
 5680TIP3    H141235   4.678   1.494   9.275  1.9278 -0.1832  0.5619
 5680TIP3    H241236   4.788   1.512   9.172  0.7005 -2.6903 -1.2954
 5681TIP3   OH241237   1.280   2.407   9.568 -0.0786 -0.2323  0.4310
 5681TIP3    H141238   1.225   2.482   9.594 -1.7214 -1.7204  1.4706
 5681TIP3    H241239   1.266   2.400   9.474 -0.7446  0.1567  0.4866
 5682TIP3   OH241240   1.478   1.651   8.449  0.1555  0.0953 -0.0580
 5682TIP3    H141241   1.507   1.712   8.517 -0.2007 -0.8939  1.0164
 5682TIP3    H241242   1.481   1.702   8.368  2.7027  0.7040  0.3361
 5683TIP3   OH241243   2.710   0.782   9.605 -0.5088 -0.1245  0.1392
 5683TIP3    H141244   2.704   0.877   9.615  0.5191 -0.1781  1.7292
 5683TIP3    H241245   2.755   0.752   9.685 -0.8025 -1.9464 -0.3193
 5684TIP3   OH241246   3.334   5.506   6.727 -0.8009  0.6615 -0.0860
 5684TIP3    H141247   3.326   5.564   6.652  0.6332 -0.7100 -1.3873
 5684TIP3    H241248   3.327   5.418   6.690 -0.7881 -0.0439  1.4925
 5685TIP3   OH241249   5.353   3.377   6.860  0.0113  0.0793 -0.1187
 5685TIP3    H141250   5.303   3.344   6.935  0.0005  0.5197  0.0707
 5685TIP3    H241251   5.439   3.337   6.870  0.1315  0.4413  0.3532
 5686TIP3   OH241252   1.219   4.249   9.345 -0.3855 -0.1606  0.1479
 5686TIP3    H141253   1.141   4.193   9.346 -0.2025 -0.4096  0.7366
 5686TIP3    H241254   1.270   4.221   9.421 -0.5232  1.1379  0.7542
 5687TIP3   OH241255   4.359   3.150   7.005 -0.2892 -0.5117 -0.0350
 5687TIP3    H141256   4.384   3.239   7.027 -0.2752 -0.5829  0.2405
 5687TIP3    H241257   4.423   3.095   7.050 -0.1474 -0.6556 -0.4027
 5688TIP3   OH241258   4.229   3.768  10.578 -0.4091  0.5619  0.8812
 5688TIP3    H141259   4.321   3.752  10.556 -0.0344 -0.3609  2.9365
 5688TIP3    H241260   4.216   3.861  10.563  0.2008  0.3229 -1.6003
 5689TIP3   OH241261   0.858   5.305   9.533 -0.2254  0.0893  0.4648
 5689TIP3    H141262   0.934   5.364   9.531 -0.7013  0.6899  0.0025
 5689TIP3    H241263   0.783   5.362   9.550 -0.5168 -0.5777  1.5568
 5690TIP3   OH241264   2.507   1.617   9.128 -0.6321 -0.1939  0.1478
 5690TIP3    H141265   2.506   1.668   9.209 -0.3573  0.3843 -0.2062
 5690TIP3    H241266   2.423   1.571   9.128 -0.0285 -1.3745  1.4895
 5691TIP3   OH241267   4.644   4.903   6.874  0.0902 -0.2956 -0.4175
 5691TIP3    H141268   4.699   4.973   6.908 -1.6323  0.8403  0.2005
 5691TIP3    H241269   4.702   4.828   6.865  1.5178  0.5636  1.0909
 5692TIP3   OH241270   0.982   6.133   9.149  0.6194  0.3452  0.4616
 5692TIP3    H141271   1.020   6.173   9.070 -1.1699  1.9496  0.3218
 5692TIP3    H241272   1.027   6.176   9.221  1.3589 -0.1831  0.3252
 5693TIP3   OH241273   4.353   0.754   7.549  0.8931 -0.3426 -0.2764
 5693TIP3    H141274   4.299   0.831   7.565  0.2131 -0.9473  0.4127
 5693TIP3    H241275   4.321   0.719   7.466  0.0628 -0.8328  0.2472
 5694TIP3   OH241276   5.877   2.276   8.336 -0.8344 -0.0890  0.2404
 5694TIP3    H141277   5.801   2.236   8.294 -0.9430  1.6136 -1.3519
 5694TIP3    H241278   5.953   2.238   8.290 -0.8771  0.4139 -0.2610
 5695TIP3   OH241279   5.709   2.596   7.785  0.5818 -0.6093 -0.4985
 5695TIP3    H141280   5.635   2.656   7.781  1.5208  0.5645 -0.6616
 5695TIP3    H241281   5.764   2.620   7.711  2.4785  0.4021  1.1253
 5696TIP3   OH241282   0.900   6.537   9.148  0.0997  0.3297  0.4693
 5696TIP3    H141283   0.821   6.549   9.096  0.4404 -1.1877 -0.4690
 5696TIP3    H241284   0.967   6.588   9.102  0.2017 -0.3183 -0.1151
 5697TIP3   OH241285   4.194   5.340   6.698 -0.4708 -0.6916  0.1714
 5697TIP3    H141286   4.122   5.333   6.636 -0.5939 -0.7514  0.3205
 5697TIP3    H241287   4.189   5.429   6.731  0.5611 -0.1522 -1.0742
 5698TIP3   OH241288   6.578   6.081   8.341  0.5882  0.7016 -0.1512
 5698TIP3    H141289   6.587   6.171   8.309 -0.8212  0.8091 -0.2910
 5698TIP3    H241290   6.523   6.038   8.276  2.4063 -0.6977 -0.8503
 5699TIP3   OH241291   6.405   6.650   9.489 -0.4808 -0.0894 -0.6570
 5699TIP3    H141292   6.344   6.581   9.512  0.3151 -1.0797 -1.4022
 5699TIP3    H241293   6.454   6.667   9.569 -1.3105  0.2913 -0.2193
 5700TIP3   OH241294   6.299   2.505   6.802  0.0880 -0.4448  0.0546
 5700TIP3    H141295   6.367   2.507   6.870 -0.0578 -0.2432  0.1944
 5700TIP3    H241296   6.304   2.416   6.767  0.9822 -0.1911 -0.4988
 5701TIP3   OH241297   4.004   3.793  10.042  0.8071 -0.1555  0.4166
 5701TIP3    H141298   4.098   3.776  10.029  1.2584  1.5679  1.0864
 5701TIP3    H241299   4.001   3.883  10.072 -1.2111  0.2776 -0.9363
 5702TIP3   OH241300   3.819   2.144   9.738  0.2645  0.6400 -0.2765
 5702TIP3    H141301   3.765   2.158   9.815  0.3226  0.7713 -0.2591
 5702TIP3    H241302   3.906   2.124   9.773  0.3677  1.0239 -0.3114
 5703TIP3   OH241303   6.518   1.116   7.140  0.1375  0.2619  0.6614
 5703TIP3    H141304   6.481   1.045   7.088  1.0355 -0.8041  1.4390
 5703TIP3    H241305   6.441   1.166   7.169 -0.3704  1.7695 -2.7432
 5704TIP3   OH241306   3.133   1.774   7.583  0.6174 -0.0722  0.3325
 5704TIP3    H141307   3.124   1.678   7.586  1.1614 -0.1437 -0.1355
 5704TIP3    H241308   3.188   1.790   7.506 -1.1283  0.7323 -0.8117
 5705TIP3   OH241309   3.663   4.650   9.954  0.0091  0.5904  0.6336
 5705TIP3    H141310   3.701   4.701  10.026  0.8723  1.0838 -0.1466
 5705TIP3    H241311   3.734   4.642   9.890 -0.9654  0.8627 -0.5236
 5706TIP3   OH241312   0.663   1.745   9.273 -0.7808  0.1913  0.2187
 5706TIP3    H141313   0.733   1.689   9.306 -1.4010 -0.0770  1.1182
 5706TIP3    H241314   0.682   1.831   9.310 -1.2151 -0.0033  0.9082
 5707TIP3   OH241315   0.440   3.424   9.479  0.1043 -0.1148 -0.3039
 5707TIP3    H141316   0.345   3.431   9.489  0.3946  2.3287  1.8685
 5707TIP3    H241317   0.456   3.331   9.463 -2.6278 -0.6065 -0.6215
 5708TIP3   OH241318   2.346   2.348   8.224  0.3419  0.0178  0.4409
 5708TIP3    H141319   2.287   2.359   8.299 -0.0914  0.8823 -0.0030
 5708TIP3    H241320   2.364   2.437   8.195 -0.3545 -0.3020 -1.1238
 5709TIP3   OH241321   0.202   6.447   7.579 -0.1374 -0.0756 -0.0520
 5709TIP3    H141322   0.224   6.372   7.634  0.4395 -0.4265 -0.7490
 5709TIP3    H241323   0.107   6.456   7.588 -0.4024 -1.6487 -0.9057
 5710TIP3   OH241324   2.139   2.351   9.251  0.4674 -0.5411 -0.5074
 5710TIP3    H141325   2.132   2.445   9.237 -0.6532 -0.7957 -1.9224
 5710TIP3    H241326   2.101   2.336   9.337 -0.7862  0.1427 -0.9184
 5711TIP3   OH241327   5.677   5.815   8.709 -0.8673  0.0213 -0.3708
 5711TIP3    H141328   5.741   5.818   8.780 -0.9818 -0.0140 -0.2671
 5711TIP3    H241329   5.628   5.897   8.718 -1.5392 -0.4453  0.1961
 5712TIP3   OH241330   0.334   4.374   7.566 -0.7757  0.2996  0.3883
 5712TIP3    H141331   0.396   4.310   7.531 -1.0938  1.2690 -2.1537
 5712TIP3    H241332   0.250   4.329   7.566 -0.3478 -0.6775  2.8824
 5713TIP3   OH241333   5.278   2.910   7.665 -0.0816  0.6866  1.1871
 5713TIP3    H141334   5.349   2.957   7.621 -0.0085 -0.6353 -0.1918
 5713TIP3    H241335   5.231   2.867   7.595 -0.8847 -0.3096  2.2994
 5714TIP3   OH241336   4.951   2.286   8.126  0.2274 -0.6721 -0.3311
 5714TIP3    H141337   4.983   2.206   8.168 -0.9253 -0.1427  1.7070
 5714TIP3    H241338   4.980   2.357   8.185 -1.6929  0.0818 -0.2416
 5715TIP3   OH241339   5.502   5.987   7.465  0.0352 -0.3105 -0.5923
 5715TIP3    H141340   5.411   6.003   7.444  0.2639  1.2065 -0.5047
 5715TIP3    H241341   5.550   6.058   7.424  0.8541  0.6941  1.8868
 5716TIP3   OH241342   4.620   5.837   7.308  0.0015  0.0126 -0.0637
 5716TIP3    H141343   4.576   5.913   7.348  1.2842  1.0650 -0.5651
 5716TIP3    H241344   4.636   5.864   7.217  1.2766 -0.5062 -0.0074
 5717TIP3   OH241345   1.204   6.225   8.683  0.7650  0.3882 -0.1512
 5717TIP3    H141346   1.287   6.178   8.698  1.7327  1.5373 -1.5436
 5717TIP3    H241347   1.144   6.157   8.651  2.0013 -0.0306 -1.7386
 5718TIP3   OH241348   2.921   1.889   8.695 -0.3320 -0.0391 -0.0841
 5718TIP3    H141349   2.859   1.896   8.768  2.3631 -0.2169  2.4409
 5718TIP3    H241350   2.937   1.979   8.669 -0.4291  0.1240  0.4010
 5719TIP3   OH241351   2.280   1.920   6.930 -0.0375  0.0565 -0.2321
 5719TIP3    H141352   2.331   1.997   6.907 -1.2484  1.2885  1.0779
 5719TIP3    H241353   2.244   1.939   7.016 -0.7136 -1.8050 -0.0537
 5720TIP3   OH241354   1.834   5.111   9.145 -0.1991  0.9435 -0.4944
 5720TIP3    H141355   1.873   5.094   9.231 -0.3703  1.2024 -0.3645
 5720TIP3    H241356   1.909   5.124   9.086 -0.0177  3.9766  0.2351
 5721TIP3   OH241357   0.689   4.081   9.171 -0.8749  0.2181 -0.6059
 5721TIP3    H141358   0.611   4.025   9.169  0.7895 -2.3403  0.7301
 5721TIP3    H241359   0.732   4.060   9.254  1.2451  1.5536 -1.2744
 5722TIP3   OH241360   1.270   5.997   9.465 -0.2234  0.0163  0.0469
 5722TIP3    H141361   1.322   5.925   9.500 -0.8119 -1.4068 -1.8668
 5722TIP3    H241362   1.188   5.993   9.514  0.7985  1.3857  2.0745
 5723TIP3   OH241363   6.433   3.365   8.546 -0.2171  0.1137  0.0104
 5723TIP3    H141364   6.443   3.283   8.499  0.8574  0.1809  0.1094
 5723TIP3    H241365   6.463   3.347   8.635  0.2640  0.6588 -0.0280
 5724TIP3   OH241366   2.203   3.390   7.240 -0.2496  0.1292 -0.0626
 5724TIP3    H141367   2.229   3.458   7.302  2.4542 -1.6890  1.0148
 5724TIP3    H241368   2.227   3.425   7.154 -0.9400  1.3650  0.2314
 5725TIP3   OH241369   3.567   1.265   9.788  0.3247  0.8478 -0.0990
 5725TIP3    H141370   3.547   1.284   9.880  1.4351  1.0101  0.1218
 5725TIP3    H241371   3.645   1.317   9.769  0.9564 -0.2828 -0.7126
 5726TIP3   OH241372   6.490   3.766   8.774 -0.1878 -0.1660 -0.1017
 5726TIP3    H141373   6.484   3.727   8.687 -0.6756 -0.2653 -0.0226
 5726TIP3    H241374   6.583   3.760   8.796 -0.2590 -1.3993 -0.0477
 5727TIP3   OH241375   2.800   3.830   7.216 -0.6325 -0.2797  0.4735
 5727TIP3    H141376   2.812   3.735   7.213  0.9495 -0.0743 -1.5174
 5727TIP3    H241377   2.877   3.863   7.262  0.4863  0.2142 -1.6522
 5728TIP3   OH241378   0.775   4.645   7.245  0.3973 -0.2337 -0.2294
 5728TIP3    H141379   0.753   4.570   7.191  1.1847  0.9972 -2.3883
 5728TIP3    H241380   0.754   4.618   7.334 -0.7325 -2.4449 -1.1005
 5729TIP3   OH241381   1.800   6.513   9.138  0.2415 -0.1583  0.4680
 5729TIP3    H141382   1.884   6.527   9.179  2.1654  0.3401 -3.1877
 5729TIP3    H241383   1.770   6.601   9.113 -0.4481 -0.4794  0.1093
 5730TIP3   OH241384   3.906   5.496   7.732 -0.2835  0.3676 -0.2720
 5730TIP3    H141385   3.963   5.567   7.763  1.0032 -1.3654  1.6062
 5730TIP3    H241386   3.838   5.488   7.799 -1.4676  0.9479 -1.3714
 5731TIP3   OH241387   1.770   2.550   7.184 -0.3179  0.0224  0.3146
 5731TIP3    H141388   1.723   2.472   7.214 -1.3076  0.5055  0.0811
 5731TIP3    H241389   1.861   2.533   7.205 -0.5115 -1.2207  0.2302
 5732TIP3   OH241390   6.208   3.826   9.784 -0.5535 -0.9883  0.1351
 5732TIP3    H141391   6.291   3.786   9.758 -0.6520 -1.5164  0.6160
 5732TIP3    H241392   6.142   3.781   9.730 -0.3864  0.5192 -1.3913
 5733TIP3   OH241393   5.688   0.585   7.239  0.5042 -0.1349  0.2371
 5733TIP3    H141394   5.743   0.603   7.163  0.1133 -0.8556 -0.2291
 5733TIP3    H241395   5.723   0.641   7.308 -0.7017  2.4886 -1.1527
 5734TIP3   OH241396   2.356   0.178   9.177 -0.7385  0.3149 -1.1191
 5734TIP3    H141397   2.307   0.152   9.098 -0.2466 -0.4289 -1.1894
 5734TIP3    H241398   2.302   0.146   9.250  0.7542 -2.7695 -1.2068
 5735TIP3   OH241399   5.214   3.374   8.949 -0.9217 -0.2472 -0.0436
 5735TIP3    H141400   5.232   3.332   8.865  0.4500 -1.8527  0.9867
 5735TIP3    H241401   5.285   3.437   8.960 -0.3122 -0.9924  0.4681
 5736TIP3   OH241402   0.086   5.099   9.586 -0.0597  0.0112 -0.8659
 5736TIP3    H141403  -0.002   5.067   9.603 -0.0974 -0.0806 -1.2219
 5736TIP3    H241404   0.089   5.114   9.492 -0.2406  1.6433 -0.6462
 5737TIP3   OH241405   2.608   3.736   9.511 -0.0891  0.5658 -0.4404
 5737TIP3    H141406   2.573   3.748   9.423 -1.9420  1.3703  0.3504
 5737TIP3    H241407   2.541   3.774   9.569  0.3658 -1.2562  1.4112
 5738TIP3   OH241408   2.064   4.375   8.822  0.1205  0.3432  0.3174
 5738TIP3    H141409   2.026   4.307   8.877 -2.0156  0.8055 -0.4877
 5738TIP3    H241410   2.144   4.336   8.787 -0.3992 -1.2805  0.8653
 5739TIP3   OH241411   1.187   5.912   6.947 -0.2563 -0.3025  0.4642
 5739TIP3    H141412   1.168   5.995   6.904  0.1468  0.2171  1.2615
 5739TIP3    H241413   1.216   5.854   6.876  0.7959  0.6577  0.0722
 5740TIP3   OH241414   4.332   5.331   7.096  0.0304 -0.1020  0.5443
 5740TIP3    H141415   4.321   5.284   7.178 -0.9729 -0.1986  0.3712
 5740TIP3    H241416   4.371   5.414   7.120 -4.5052  1.9449  1.8226
 5741TIP3   OH241417   0.118   3.331  10.295 -0.3135 -0.1766  0.4738
 5741TIP3    H141418   0.064   3.252  10.285  0.2628 -0.9797  3.0487
 5741TIP3    H241419   0.066   3.401  10.255 -0.0540 -2.0199 -3.6776
 5742TIP3   OH241420   0.946   1.050   8.679 -0.2373  0.0020 -0.2489
 5742TIP3    H141421   0.925   1.127   8.625 -2.2071 -0.3386 -0.0606
 5742TIP3    H241422   1.040   1.037   8.667  0.0020  1.9540 -0.9202
 5743TIP3   OH241423   4.847   1.283  16.876 -0.1045  0.2032 -0.1094
 5743TIP3    H141424   4.816   1.307  16.789  0.3915  4.3572  0.6305
 5743TIP3    H241425   4.940   1.263  16.865  0.1056  1.3411 -0.4907
 5744TIP3   OH241426   6.443   2.701   7.177  0.1053 -0.1845  0.1942
 5744TIP3    H141427   6.434   2.783   7.128 -0.4893  0.2872  1.0655
 5744TIP3    H241428   6.466   2.636   7.111 -2.2673  0.0890 -1.0134
 5745TIP3   OH241429   2.218   3.606   7.385 -0.3297  0.0618 -0.3427
 5745TIP3    H141430   2.194   3.695   7.358 -0.3531  0.4822  0.9931
 5745TIP3    H241431   2.165   3.590   7.464  0.6976 -0.5909  0.2328
 5746TIP3   OH241432   3.125   3.624   7.662 -0.3423  0.4068  0.4828
 5746TIP3    H141433   3.064   3.690   7.697 -0.2449  1.0240 -0.4672
 5746TIP3    H241434   3.070   3.549   7.640 -0.7395  0.8883 -0.1921
 5747TIP3   OH241435   5.501   2.447   9.369  0.6400  0.5657 -0.1009
 5747TIP3    H141436   5.545   2.502   9.434  0.5378 -0.2202  0.6481
 5747TIP3    H241437   5.424   2.412   9.415  0.7651 -0.2887 -0.5326
 5748TIP3   OH241438   5.687   2.688   6.542 -0.0004 -0.2237 -0.0839
 5748TIP3    H141439   5.679   2.627   6.469 -0.2237  0.6197 -0.7802
 5748TIP3    H241440   5.596   2.705   6.569  0.1042 -0.9035  0.7060
 5749TIP3   OH241441   4.155   1.738   8.211  0.6155  0.2783  0.3449
 5749TIP3    H141442   4.178   1.646   8.195 -2.8800 -0.8462  0.8445
 5749TIP3    H241443   4.196   1.786   8.139  0.3686 -2.0675 -1.4962
 5750TIP3   OH241444   6.144   5.038   7.523  0.1956  0.3358 -0.3248
 5750TIP3    H141445   6.210   5.057   7.590  1.2899 -1.0976 -0.9487
 5750TIP3    H241446   6.177   5.080   7.444  0.8262 -1.0518 -0.8377
 5751TIP3   OH241447   1.033   4.088   8.684  0.0070  0.0590 -0.0078
 5751TIP3    H141448   0.972   4.141   8.736 -0.0556  0.0007 -0.0207
 5751TIP3    H241449   1.118   4.103   8.724  0.0498  0.4821 -0.2611
 5752TIP3   OH241450   3.244   6.179   7.523 -0.2758 -0.1452  0.0614
 5752TIP3    H141451   3.148   6.180   7.512 -0.4630 -1.5572  1.3026
 5752TIP3    H241452   3.278   6.159   7.436 -1.0473  0.9989 -0.5433
 5753TIP3   OH241453   1.957   6.118   8.432 -0.1012 -0.4921 -0.2968
 5753TIP3    H141454   1.978   6.106   8.524 -0.4739 -0.9679 -0.2699
 5753TIP3    H241455   2.039   6.102   8.386 -0.5685 -3.5517 -0.2912
 5754TIP3   OH241456   1.606   2.504   8.705 -0.0884 -0.1131  0.4328
 5754TIP3    H141457   1.593   2.512   8.799 -2.1804 -1.7584  0.3668
 5754TIP3    H241458   1.579   2.414   8.685  2.7466 -0.6647 -1.3964
 5755TIP3   OH241459   5.524   5.122   6.665 -0.0122 -0.2243  0.0354
 5755TIP3    H141460   5.608   5.109   6.621 -0.5422  2.2887 -1.9386
 5755TIP3    H241461   5.477   5.039   6.650  0.9137 -0.4900 -1.6888
 5756TIP3   OH241462   5.012   5.179   6.722 -0.0926 -0.2193 -0.9045
 5756TIP3    H141463   4.925   5.198   6.757  0.6608 -0.6429  1.3503
 5756TIP3    H241464   5.035   5.257   6.671 -1.4285  0.2397 -0.8385
 5757TIP3   OH241465   2.167   6.418   8.416 -0.2351 -0.3096 -0.4405
 5757TIP3    H141466   2.154   6.324   8.422 -0.4227 -0.4441 -2.4095
 5757TIP3    H241467   2.233   6.429   8.348 -1.0686  1.0207 -1.0838
 5758TIP3   OH241468   0.779   4.281   6.801  0.8598 -0.3714 -0.6441
 5758TIP3    H141469   0.788   4.208   6.862 -0.3171  0.6157  0.8089
 5758TIP3    H241470   0.688   4.276   6.771 -0.8287  2.9116  2.9917
 5759TIP3   OH241471   5.980   4.000   7.414 -0.7425 -0.2632  0.4445
 5759TIP3    H141472   6.014   3.965   7.496 -0.4368  0.5004  0.6482
 5759TIP3    H241473   5.982   3.926   7.353 -0.0948 -0.5939  0.8622
 5760TIP3   OH241474   6.211   6.340   9.294 -0.3568 -0.3463 -0.3662
 5760TIP3    H141475   6.140   6.305   9.239 -0.8033 -1.5503  0.9173
 5760TIP3    H241476   6.166   6.395   9.358 -0.0162 -0.2314 -0.2281
 5761TIP3   OH241477   5.365   2.451   7.959  0.0947 -0.0133 -0.5104
 5761TIP3    H141478   5.311   2.424   7.886 -1.6012  0.2014  0.6022
 5761TIP3    H241479   5.444   2.487   7.919 -1.2507  1.1437 -2.2871
 5762TIP3   OH241480   3.030   6.690   6.882 -0.2542  0.2699  0.4956
 5762TIP3    H141481   3.105   6.658   6.833  0.9267  1.6877  1.2861
 5762TIP3    H241482   2.977   6.738   6.818 -0.5909 -0.8509 -0.0921
 5763TIP3   OH241483   4.430   3.047   9.057  0.3315 -0.3335  0.1997
 5763TIP3    H141484   4.418   2.966   9.009  3.1394 -0.5867 -0.2507
 5763TIP3    H241485   4.466   3.020   9.141 -0.7403  0.3516  0.9036
 5764TIP3   OH241486   4.219   4.210   8.987 -0.0790  0.0491  0.0639
 5764TIP3    H141487   4.287   4.268   9.022  1.2210 -1.4961  0.2538
 5764TIP3    H241488   4.154   4.269   8.950  0.8060  1.6337  0.8968
 5765TIP3   OH241489   4.762   2.529   7.384 -0.1131  0.0093  0.1811
 5765TIP3    H141490   4.744   2.562   7.472  0.8799  1.3213 -0.0689
 5765TIP3    H241491   4.773   2.435   7.395 -0.3895  0.1052  1.4011
 5766TIP3   OH241492   3.108   0.286   7.385  0.5533 -0.0329  0.0943
 5766TIP3    H141493   3.139   0.339   7.311  1.4366  1.4750  1.4629
 5766TIP3    H241494   3.179   0.225   7.402  0.1705 -0.6692 -0.5458
 5767TIP3   OH241495   2.858   3.969   7.963  0.0539 -0.0863 -0.2987
 5767TIP3    H141496   2.920   4.005   8.026  1.2046 -0.1401 -1.3623
 5767TIP3    H241497   2.847   4.038   7.897  0.1005 -0.6154 -0.8739
 5768TIP3   OH241498   2.770   3.272   8.310  0.3066  0.4565 -0.3497
 5768TIP3    H141499   2.824   3.335   8.356 -0.6839  0.3906  0.9808
 5768TIP3    H241500   2.832   3.208   8.274  1.1781  1.0955 -0.0061
 5769TIP3   OH241501   1.871   2.538   7.512  0.1965  0.0061 -0.2540
 5769TIP3    H141502   1.950   2.578   7.548 -0.6579  2.1831 -0.6719
 5769TIP3    H241503   1.812   2.531   7.586 -0.4346  1.6031 -0.5708
 5770TIP3   OH241504   3.263   3.653   8.820 -0.4220 -0.5677 -0.1664
 5770TIP3    H141505   3.336   3.716   8.822 -1.0890  0.2242  0.1412
 5770TIP3    H241506   3.294   3.579   8.873 -0.5571  0.6026  1.6662
 5771TIP3   OH241507   2.196   3.798   8.534  0.3892  0.0666 -0.0238
 5771TIP3    H141508   2.197   3.731   8.466  2.3230 -0.5051  0.5134
 5771TIP3    H241509   2.245   3.871   8.496  0.5720  0.1485  0.3672
 5772TIP3   OH241510   1.692   5.264   7.558 -0.1570  0.6163 -0.3163
 5772TIP3    H141511   1.738   5.250   7.640  0.0686 -0.3727 -0.6059
 5772TIP3    H241512   1.617   5.318   7.582 -0.5521 -0.3475  0.6806
 5773TIP3   OH241513   3.472   1.785   6.620 -0.0088 -0.5974  0.0757
 5773TIP3    H141514   3.504   1.809   6.707  1.0063 -0.7475 -0.2496
 5773TIP3    H241515   3.523   1.708   6.595 -0.6954 -0.9064 -0.4222
 5774TIP3   OH241516   1.808   5.202   8.268 -0.6703  0.2270  0.4806
 5774TIP3    H141517   1.888   5.210   8.217 -0.9823  1.6270  0.1781
 5774TIP3    H241518   1.777   5.113   8.251 -0.3043  0.3747 -1.0882
 5775TIP3   OH241519   1.888   2.620   9.064 -0.5910 -0.1668 -0.0649
 5775TIP3    H141520   1.796   2.614   9.041 -0.4220 -0.9564 -0.5450
 5775TIP3    H241521   1.931   2.653   8.985 -0.1600 -1.8881 -0.5738
 5776TIP3   OH241522   0.872   0.207   6.956 -0.5634 -0.0164 -0.4306
 5776TIP3    H141523   0.935   0.162   6.899 -0.1170  1.4706 -1.1528
 5776TIP3    H241524   0.807   0.140   6.976 -0.6101 -0.6655 -2.4886
 5777TIP3   OH241525   0.855   4.377   7.681  0.7243 -0.1305  0.0626
 5777TIP3    H141526   0.777   4.332   7.716  0.0290  0.5467 -0.5821
 5777TIP3    H241527   0.820   4.446   7.626  1.7571  1.8769  1.7865
 5778TIP3   OH241528   6.554   4.825   8.077 -0.6050 -0.6807 -0.7980
 5778TIP3    H141529   6.535   4.847   8.168  0.4091 -0.3843 -0.6446
 5778TIP3    H241530   6.647   4.845   8.066  0.2790 -4.1607 -0.8304
 5779TIP3   OH241531   1.492   5.994  10.302 -0.3839 -0.3247 -0.4655
 5779TIP3    H141532   1.450   5.997  10.216 -0.3016  0.3717 -0.4844
 5779TIP3    H241533   1.502   6.086  10.327  1.4042 -0.4579 -0.6011
 5780TIP3   OH241534   4.037   6.702   8.095 -0.0125 -0.2085 -0.6813
 5780TIP3    H141535   3.956   6.652   8.095 -0.7236  0.8234  1.7488
 5780TIP3    H241536   4.028   6.763   8.021 -0.7330 -1.1467 -1.3857
 5781TIP3   OH241537   5.968   4.026  10.202 -0.4239 -0.0661 -0.1310
 5781TIP3    H141538   5.920   3.997  10.279  0.0874  1.5226  0.8371
 5781TIP3    H241539   5.943   4.118  10.191  1.4535  0.4790 -0.2833
 5782TIP3   OH241540   0.722   6.433   7.064 -0.5741  0.2250  0.1635
 5782TIP3    H141541   0.788   6.396   7.122 -1.9932 -2.7916  0.0111
 5782TIP3    H241542   0.759   6.423   6.976 -1.0239 -1.0933  0.1089
 5783TIP3   OH241543   2.495   0.826   6.869  0.1666 -0.0601  0.3657
 5783TIP3    H141544   2.508   0.742   6.825 -1.1011 -0.5228  0.8356
 5783TIP3    H241545   2.559   0.827   6.939  0.4891 -0.4341  0.0789
 5784TIP3   OH241546   2.604   0.338   8.187  0.4902 -0.1191 -0.2889
 5784TIP3    H141547   2.529   0.279   8.185 -0.1230  0.6502 -0.0781
 5784TIP3    H241548   2.600   0.385   8.104 -1.4088  2.5376  1.1721
 5785TIP3   OH241549   2.793   6.023   8.628  0.8000  0.2934 -0.0759
 5785TIP3    H141550   2.737   5.952   8.661  0.7756  0.0634 -0.6000
 5785TIP3    H241551   2.817   5.995   8.540  0.3342  1.2052 -0.5029
 5786TIP3   OH241552   2.247   2.397   8.507 -0.0677 -0.8195 -0.2736
 5786TIP3    H141553   2.279   2.486   8.490  0.3943 -1.1175 -1.0010
 5786TIP3    H241554   2.157   2.410   8.539  0.2194 -0.0615  0.2623
 5787TIP3   OH241555   2.525   3.714   7.317 -0.4026  0.7005  0.2570
 5787TIP3    H141556   2.542   3.765   7.238 -2.2252  1.4737  0.3132
 5787TIP3    H241557   2.430   3.718   7.328 -0.4912 -1.7081  0.9576
 5788TIP3   OH241558   3.534   3.976   9.349  0.0030  0.6914  0.7046
 5788TIP3    H141559   3.520   3.939   9.436 -0.1577  0.8668  0.7530
 5788TIP3    H241560   3.509   4.068   9.357  0.6659  0.8791  0.6531
 5789TIP3   OH241561   3.056   4.864   7.464  0.5222 -0.0712  0.3101
 5789TIP3    H141562   3.043   4.895   7.374  2.1835  0.5401  0.2230
 5789TIP3    H241563   3.144   4.895   7.486 -0.0229  0.1912  2.3179
 5790TIP3   OH241564   3.655   5.922   9.180  0.1827 -0.4781 -0.1847
 5790TIP3    H141565   3.667   5.929   9.086 -0.8690 -1.4767 -0.4148
 5790TIP3    H241566   3.560   5.930   9.193  0.3159 -0.3055  0.7965
 5791TIP3   OH241567   6.234   1.592   8.391  0.1582 -0.2850  0.1717
 5791TIP3    H141568   6.328   1.604   8.404  0.0037  1.3667 -0.0082
 5791TIP3    H241569   6.201   1.680   8.372 -1.2955 -0.9649 -0.6129
 5792TIP3   OH241570   4.333   4.891   8.287 -0.3812  0.4529  0.1469
 5792TIP3    H141571   4.402   4.886   8.221 -0.7950 -0.6850 -0.2286
 5792TIP3    H241572   4.258   4.845   8.247 -0.5538 -0.4842  1.4911
 5793TIP3   OH241573   6.010   1.002   9.593  0.0162 -0.1159  0.5877
 5793TIP3    H141574   6.073   1.016   9.664 -0.2601 -0.4392  0.8999
 5793TIP3    H241575   5.959   1.083   9.590  0.6390  0.2660  0.1345
 5794TIP3   OH241576   2.759   4.540   6.679 -0.4036 -0.0853 -0.1849
 5794TIP3    H141577   2.679   4.562   6.632 -0.4540  0.8000  0.2917
 5794TIP3    H241578   2.824   4.603   6.648 -0.4269  0.4886  0.8762
 5795TIP3   OH241579   1.786   1.580   8.100  0.1063  0.2799  0.0537
 5795TIP3    H141580   1.785   1.676   8.100 -2.4169  0.3381 -0.1697
 5795TIP3    H241581   1.712   1.555   8.044 -0.2147 -1.7556  1.2480
 5796TIP3   OH241582   6.498   4.505   8.173 -0.5632  0.1651 -0.1824
 5796TIP3    H141583   6.427   4.476   8.231 -2.0034  1.2158 -1.3327
 5796TIP3    H241584   6.537   4.579   8.219 -0.6750  0.0378  0.1263
 5797TIP3   OH241585   5.999   4.989   9.039 -0.1325 -0.4937  0.3173
 5797TIP3    H141586   6.074   4.958   8.990  1.2466 -0.4087  2.2431
 5797TIP3    H241587   6.024   4.979   9.131 -1.6400  1.4885  1.0294
 5798TIP3   OH241588   5.827   5.801   8.157  0.1311 -0.4231  0.9208
 5798TIP3    H141589   5.799   5.769   8.072 -0.2870  1.3767  0.3603
 5798TIP3    H241590   5.775   5.751   8.220 -0.6455 -0.6891  0.0774
 5799TIP3   OH241591   1.038   4.921   9.994  0.0736  0.1553 -0.4312
 5799TIP3    H141592   1.022   4.860  10.066 -1.1921  1.0176  0.0395
 5799TIP3    H241593   1.115   4.971  10.021 -0.9071  1.0762  0.7628
 5800TIP3   OH241594   3.001   0.490   9.000 -0.0388 -0.1922 -0.1965
 5800TIP3    H141595   3.073   0.505   8.938 -0.2589  3.8853  0.2664
 5800TIP3    H241596   2.934   0.444   8.948  1.7444 -1.5331 -1.4300
 5801TIP3   OH241597   0.534   5.672   9.000 -0.2907 -0.2774 -0.1912
 5801TIP3    H141598   0.547   5.760   8.964 -1.9302  0.0632  0.0005
 5801TIP3    H241599   0.603   5.619   8.959 -0.1928  0.7704 -1.4263
 5802TIP3   OH241600   2.758   3.810   8.634  0.1714 -0.1328 -0.9038
 5802TIP3    H141601   2.743   3.726   8.677 -1.0926  0.7500  0.4889
 5802TIP3    H241602   2.847   3.835   8.660  0.8331 -1.3085 -1.9010
 5803TIP3   OH241603   5.361   1.392   7.129 -0.3714  0.6365  0.2118
 5803TIP3    H141604   5.361   1.415   7.036 -0.0309  2.0473  0.5510
 5803TIP3    H241605   5.278   1.346   7.142 -0.8437  1.2355 -0.5979
 5804TIP3   OH241606   2.093   6.582   9.260  0.0736  0.4771  0.4053
 5804TIP3    H141607   2.171   6.561   9.208  0.3654 -1.0623  1.4003
 5804TIP3    H241608   2.098   6.676   9.274  2.8462  0.1826  2.0930
 5805TIP3   OH241609   3.317   1.352   8.271  0.3121  0.1352 -0.3187
 5805TIP3    H141610   3.364   1.332   8.352  0.1227 -0.2426 -0.2973
 5805TIP3    H241611   3.256   1.422   8.296  0.4500  0.2151 -0.2039
 5806TIP3   OH241612   0.793   6.474   6.796  0.0234  0.2881 -0.4349
 5806TIP3    H141613   0.706   6.441   6.772 -1.0500  1.7913  1.1569
 5806TIP3    H241614   0.808   6.547   6.735 -0.8566  1.4323  0.6545
 5807TIP3   OH241615   4.909   5.267   9.322  0.1039 -0.0299  0.0365
 5807TIP3    H141616   4.971   5.340   9.318 -0.6389  0.5648 -1.4964
 5807TIP3    H241617   4.838   5.299   9.379  0.0531  0.2349 -0.1718
 5808TIP3   OH241618   2.013   1.845   9.921 -0.3116  0.0563  0.2219
 5808TIP3    H141619   1.919   1.859   9.928 -0.2511  1.6790 -1.3424
 5808TIP3    H241620   2.022   1.761   9.877 -1.0112 -0.3024  0.7518
 5809TIP3   OH241621   0.432   4.669   7.888 -0.2191  0.3942  0.2533
 5809TIP3    H141622   0.388   4.597   7.934  0.7196  0.9259  2.0739
 5809TIP3    H241623   0.408   4.657   7.796 -1.9912 -0.8636  0.8205
 5810TIP3   OH241624   4.645   4.800   9.027 -0.1039  0.3005 -0.1806
 5810TIP3    H141625   4.607   4.740   9.090  0.5475 -0.5548 -0.5852
 5810TIP3    H241626   4.672   4.876   9.079  0.7358 -0.5330  0.6439
 5811TIP3   OH241627   1.124   0.040   7.494 -0.0959 -0.1024  0.0784
 5811TIP3    H141628   1.125  -0.048   7.456  0.5983 -0.8032  1.6305
 5811TIP3    H241629   1.079   0.031   7.578 -0.8942  1.2391 -0.1687
 5812TIP3   OH241630   6.133   2.471   7.051  0.6522  0.1558  0.2664
 5812TIP3    H141631   6.058   2.502   7.001  0.9726  0.6981  0.1131
 5812TIP3    H241632   6.207   2.478   6.990  0.5807 -1.9510 -0.1632
 5813TIP3   OH241633   2.738   5.564   9.201  0.2463  0.1643  0.5516
 5813TIP3    H141634   2.697   5.635   9.249  0.3146 -0.6292  1.8445
 5813TIP3    H241635   2.830   5.591   9.192  0.0688  0.6580  0.1822
 5814TIP3   OH241636   0.159   1.077   7.285 -0.4017  0.0912  0.0176
 5814TIP3    H141637   0.252   1.094   7.298 -0.3488 -0.4198  0.3318
 5814TIP3    H241638   0.153   1.043   7.196 -0.1495 -0.8293  0.3392
 5815TIP3   OH241639   0.373   3.920   8.645 -0.4549 -1.2274  0.0590
 5815TIP3    H141640   0.305   3.899   8.581 -0.5417 -1.7239  0.3083
 5815TIP3    H241641   0.361   4.013   8.663 -0.6095 -1.1481 -0.4348
 5816TIP3   OH241642   4.956   4.103   9.242 -0.3257  0.4715 -0.0483
 5816TIP3    H141643   4.946   4.008   9.228 -1.5578  0.5951 -0.1894
 5816TIP3    H241644   5.049   4.115   9.260  0.0186 -0.6549 -0.9207
 5817TIP3   OH241645   3.974   3.269  10.387  0.6043 -0.8629 -0.2392
 5817TIP3    H141646   3.892   3.224  10.407  0.0978  0.1143 -0.0436
 5817TIP3    H241647   4.007   3.226  10.308 -1.2135  0.1248 -1.5905
 5818TIP3   OH241648   3.641   0.096   7.212 -0.7906  0.0684 -0.3292
 5818TIP3    H141649   3.581   0.022   7.222 -1.5429  0.7962  0.9012
 5818TIP3    H241650   3.606   0.163   7.273 -0.3337  1.5437 -1.6254
 5819TIP3   OH241651   0.329   1.869   7.435  0.2335  0.0132  0.3786
 5819TIP3    H141652   0.261   1.885   7.501 -0.6597  1.4482 -0.8276
 5819TIP3    H241653   0.337   1.773   7.433  0.9089 -0.0693  3.1163
 5820TIP3   OH241654   2.355   4.736   8.411 -0.4293 -0.2615  0.1564
 5820TIP3    H141655   2.279   4.778   8.452 -0.3607 -1.0739  1.1332
 5820TIP3    H241656   2.334   4.735   8.317 -1.7825 -0.7795  0.4454
 5821TIP3   OH241657   4.501   0.441   9.222  0.4877  0.2162 -0.3183
 5821TIP3    H141658   4.497   0.357   9.268  0.8648  0.4356  0.1184
 5821TIP3    H241659   4.569   0.491   9.268 -1.1966  1.5829  0.7855
 5822TIP3   OH241660   0.285   5.434   7.734 -0.0020  0.2517 -0.0575
 5822TIP3    H141661   0.222   5.367   7.708 -0.1665 -0.4790  1.9899
 5822TIP3    H241662   0.289   5.427   7.830  0.7857  2.4542  0.1432
 5823TIP3   OH241663   5.397   5.849   6.660 -0.4965 -0.0127  0.0950
 5823TIP3    H141664   5.436   5.920   6.609 -1.7943 -0.6755 -1.9364
 5823TIP3    H241665   5.367   5.891   6.741  2.2743  0.9282  0.7418
 5824TIP3   OH241666   2.058   3.509   9.145 -0.3716 -0.0296  0.0610
 5824TIP3    H141667   2.119   3.583   9.150 -1.5109  0.8724  1.4125
 5824TIP3    H241668   2.050   3.492   9.051  1.2832  0.3684 -0.1929
 5825TIP3   OH241669   3.099   5.157   9.473  0.5939  0.2155  0.4074
 5825TIP3    H141670   3.178   5.198   9.508  0.7951  1.9984 -1.9048
 5825TIP3    H241671   3.052   5.228   9.429  0.9763 -1.8718 -3.8655
 5826TIP3   OH241672   4.445   2.592   6.799  0.1748  0.8121 -0.0438
 5826TIP3    H141673   4.353   2.620   6.793  0.1440  0.8009  0.3473
 5826TIP3    H241674   4.489   2.667   6.839  0.2472  0.6254  0.2233
 5827TIP3   OH241675   3.157   4.598   7.553 -0.1422 -0.1126  0.0631
 5827TIP3    H141676   3.115   4.682   7.572  0.3281  0.1600 -0.0853
 5827TIP3    H241677   3.087   4.543   7.518 -0.8939 -0.4012  1.8848
 5828TIP3   OH241678   4.181   2.757   8.171  0.6009 -0.2914 -0.1182
 5828TIP3    H141679   4.090   2.741   8.147  0.7638  0.9545 -1.7703
 5828TIP3    H241680   4.219   2.670   8.182 -0.3132 -0.8684 -1.3505
 5829TIP3   OH241681   3.354   2.673   8.377 -0.4634 -0.1525 -0.8303
 5829TIP3    H141682   3.432   2.655   8.325 -0.4759 -1.0307 -0.5739
 5829TIP3    H241683   3.281   2.656   8.318 -0.4986  2.2232 -1.5701
 5830TIP3   OH241684   0.524   2.310  10.392 -0.3063 -0.1499 -0.1938
 5830TIP3    H141685   0.487   2.256  10.322 -0.4554  1.8806 -1.7770
 5830TIP3    H241686   0.479   2.280  10.472 -0.6532 -2.0456 -1.0405
 5831TIP3   OH241687   4.746   0.749   8.839  0.0014  0.3439 -0.3145
 5831TIP3    H141688   4.788   0.834   8.855 -1.9596  1.0962  1.3661
 5831TIP3    H241689   4.707   0.725   8.924 -1.0645 -1.3433 -1.2107
 5832TIP3   OH241690   1.074   1.117   7.026 -0.0610  0.4013 -0.0627
 5832TIP3    H141691   1.149   1.112   7.086  1.0206  0.7433 -1.3269
 5832TIP3    H241692   1.005   1.066   7.068  0.0648  2.0305  2.2821
 5833TIP3   OH241693   6.282   4.540   9.396 -0.0547  0.0854  0.0031
 5833TIP3    H141694   6.205   4.489   9.421 -1.9869  2.8682  0.0996
 5833TIP3    H241695   6.263   4.629   9.425  2.7368  1.1341 -1.0089
 5834TIP3   OH241696   2.115   1.041   8.617 -0.3328 -0.2264  0.1739
 5834TIP3    H141697   2.201   1.065   8.583 -0.6916 -0.4361 -0.8976
 5834TIP3    H241698   2.131   0.964   8.671  0.3327  0.4659  1.0054
 5835TIP3   OH241699   2.419   4.724   8.094 -0.1461 -0.0320  0.3595
 5835TIP3    H141700   2.380   4.677   8.020 -2.1321  0.3185  1.1044
 5835TIP3    H241701   2.500   4.760   8.059  0.2030 -1.9176 -0.9278
 5836TIP3   OH241702   4.019   6.263   8.902 -0.1832  0.0632  0.2860
 5836TIP3    H141703   3.992   6.292   8.814 -1.6902 -0.5203  0.5219
 5836TIP3    H241704   4.112   6.286   8.907  0.0814 -0.3600 -1.6585
 5837TIP3   OH241705   1.578   0.844   6.191 -0.3045  0.1019  0.0149
 5837TIP3    H141706   1.566   0.932   6.228 -1.9863 -0.6371  1.3963
 5837TIP3    H241707   1.603   0.790   6.266 -2.9550 -1.2763  0.0189
 5838TIP3   OH241708   2.501   1.163   9.707 -0.2981 -0.2206  0.1399
 5838TIP3    H141709   2.527   1.162   9.799 -2.6454 -0.5912  0.8659
 5838TIP3    H241710   2.583   1.170   9.659  0.9589  0.5712  2.2681
 5839TIP3   OH241711   4.382   1.051   7.658  0.1370 -0.4239  0.2709
 5839TIP3    H141712   4.396   1.022   7.567  0.2209 -1.5480  0.6275
 5839TIP3    H241713   4.445   1.001   7.709  2.6254  2.7320  0.6090
 5840TIP3   OH241714   5.460   3.350   9.264 -0.3597 -0.8124 -0.0715
 5840TIP3    H141715   5.535   3.291   9.261 -0.1817 -0.5654 -2.4926
 5840TIP3    H241716   5.384   3.294   9.250 -0.4870 -0.8364  0.6675
 5841TIP3   OH241717   0.765   4.850  10.184 -0.0372  0.3897 -0.3308
 5841TIP3    H141718   0.761   4.790  10.110  0.4959  0.6891 -0.6052
 5841TIP3    H241719   0.675   4.884  10.192 -0.5856 -1.1400  0.4339
 5842TIP3   OH241720   6.232   4.857   8.880 -0.2003 -0.2625 -0.3064
 5842TIP3    H141721   6.213   4.763   8.878 -1.3970 -0.0150 -2.0227
 5842TIP3    H241722   6.190   4.892   8.802 -1.7957  2.0779  1.4698
 5843TIP3   OH241723   0.848   4.881   8.771 -0.1205  0.0436 -0.0064
 5843TIP3    H141724   0.756   4.904   8.784 -0.7828 -1.8744 -0.7856
 5843TIP3    H241725   0.854   4.857   8.678  0.4874 -2.3505  0.5591
 5844TIP3   OH241726   1.495   2.562   9.305  0.1726 -0.3016  0.3066
 5844TIP3    H141727   1.443   2.601   9.375  1.8805 -0.1689  1.5423
 5844TIP3    H241728   1.433   2.553   9.232 -1.5635 -0.1339  1.6917
 5845TIP3   OH241729   5.940   3.095   7.689 -0.1394 -1.1617 -0.2317
 5845TIP3    H141730   5.898   3.094   7.775  1.3632 -3.3937  0.5642
 5845TIP3    H241731   5.997   3.018   7.689  1.7798  0.1324 -2.3121
 5846TIP3   OH241732   1.752   0.364   9.610  0.1415 -0.2846  0.7824
 5846TIP3    H141733   1.763   0.313   9.690  1.6776  1.0132  1.4592
 5846TIP3    H241734   1.838   0.358   9.567 -0.8599 -1.5703 -1.1936
 5847TIP3   OH241735   0.725   5.061   8.419 -0.5739  0.0292  0.0588
 5847TIP3    H141736   0.643   5.067   8.467 -0.8953 -0.0228 -0.4818
 5847TIP3    H241737   0.754   4.970   8.432 -0.5255  0.0873  0.3678
 5848TIP3   OH241738   6.342   0.924   7.637  0.0860  0.0414 -0.6324
 5848TIP3    H141739   6.323   0.970   7.719  0.7632  0.7755 -0.8748
 5848TIP3    H241740   6.313   0.835   7.653 -0.3574  0.3179  0.1952
 5849TIP3   OH241741   1.234   5.655   7.907  0.2308  0.3501  0.4732
 5849TIP3    H141742   1.259   5.639   7.998  1.2246 -3.5145 -0.3273
 5849TIP3    H241743   1.141   5.636   7.903  0.5736 -1.4387  0.3698
 5850TIP3   OH241744   5.839   3.188   6.723 -0.0000 -0.1748 -0.3290
 5850TIP3    H141745   5.771   3.245   6.759 -1.7963 -2.5509  0.2460
 5850TIP3    H241746   5.917   3.244   6.718 -0.8485  1.5385  2.9647
 5851TIP3   OH241747   3.977   2.929   7.872  0.1669 -0.6094  0.4865
 5851TIP3    H141748   4.028   3.006   7.896 -0.1495 -0.2435  0.0066
 5851TIP3    H241749   3.890   2.946   7.909 -0.6800  0.5089 -1.8248
 5852TIP3   OH241750   1.732   5.964   9.181 -0.1280  0.0817  0.3477
 5852TIP3    H141751   1.701   6.005   9.100 -0.1479 -0.1818  0.2196
 5852TIP3    H241752   1.779   5.886   9.151 -0.0932  0.0110  0.5890
 5853TIP3   OH241753   4.088   4.033   9.562  0.8799 -0.2459 -0.2204
 5853TIP3    H141754   3.996   4.037   9.535  0.5870  1.5598  0.8702
 5853TIP3    H241755   4.085   4.024   9.658  1.8001  1.3798 -0.0038
 5854TIP3   OH241756   1.690   4.137   7.225 -0.2655  0.4776 -0.7463
 5854TIP3    H141757   1.729   4.050   7.214 -0.8567  0.1454 -0.2960
 5854TIP3    H241758   1.711   4.160   7.316 -1.5303  0.0684 -0.3279
 5855TIP3   OH241759   6.318   4.620   7.265 -0.1807  0.0735 -0.4677
 5855TIP3    H141760   6.236   4.627   7.216  0.9102  0.7888 -2.3248
 5855TIP3    H241761   6.349   4.531   7.247  0.1782  0.3077 -1.0393
 5856TIP3   OH241762   3.912   4.295   7.550 -0.2135  0.1244 -0.5019
 5856TIP3    H141763   3.833   4.241   7.559 -0.2586  0.4245  1.5347
 5856TIP3    H241764   3.908   4.330   7.461 -1.4915 -1.2003 -1.0105
 5857TIP3   OH241765   4.726   3.403   8.873 -0.9112 -0.4709 -0.0586
 5857TIP3    H141766   4.799   3.456   8.905 -1.5068 -0.9081  2.2649
 5857TIP3    H241767   4.656   3.466   8.857 -0.4456 -0.1876 -1.0460
 5858TIP3   OH241768   3.859   6.598   8.449 -0.2222 -0.4133  0.7758
 5858TIP3    H141769   3.926   6.663   8.427  0.1780 -1.6862 -2.1583
 5858TIP3    H241770   3.785   6.650   8.481 -0.3750  1.7121 -2.5764
 5859TIP3   OH241771   0.442   1.598   7.207 -0.1224  0.9079 -0.3868
 5859TIP3    H141772   0.477   1.611   7.295  0.5033  0.1473 -0.5081
 5859TIP3    H241773   0.469   1.509   7.184 -0.6039  0.9657 -1.1986
 5860TIP3   OH241774   6.498   6.455   8.560 -0.3970  0.5639  0.2248
 5860TIP3    H141775   6.558   6.505   8.505 -0.8222 -0.7641 -1.5411
 5860TIP3    H241776   6.556   6.396   8.610 -0.0977  0.7195  0.0648
 5861TIP3   OH241777   5.940   3.783   7.223 -0.1982  0.3441 -0.7825
 5861TIP3    H141778   5.855   3.812   7.190 -0.1105  0.2824 -1.0617
 5861TIP3    H241779   5.998   3.788   7.148  0.2172  1.0854 -0.4171
 5862TIP3   OH241780   5.130   1.216   8.669  0.2240 -0.1827  0.0992
 5862TIP3    H141781   5.082   1.234   8.751 -1.6943  0.8225 -1.1587
 5862TIP3    H241782   5.064   1.179   8.611  1.8301 -1.9800 -0.6800
 5863TIP3   OH241783   3.116   6.205   9.427 -0.6173  0.0843  0.2450
 5863TIP3    H141784   3.145   6.152   9.502 -0.9257  1.6251  1.4898
 5863TIP3    H241785   3.196   6.249   9.397 -1.1152  2.4711  2.1683
 5864TIP3   OH241786   1.145   3.952   6.747 -0.1108  0.2733  0.2804
 5864TIP3    H141787   1.065   3.930   6.698  0.3860  0.2856 -0.5507
 5864TIP3    H241788   1.216   3.930   6.687  0.5401 -0.3511  1.2595
 5865TIP3   OH241789   0.760   4.596   7.532 -0.2977 -0.4095  0.1527
 5865TIP3    H141790   0.668   4.606   7.511 -0.0059 -0.2791 -1.0968
 5865TIP3    H241791   0.790   4.684   7.553 -0.4559 -0.4594  0.6100
 5866TIP3   OH241792   0.302   3.214   7.475 -0.0838  0.5889 -0.7098
 5866TIP3    H141793   0.215   3.252   7.488  0.1245  0.8236  0.0201
 5866TIP3    H241794   0.348   3.230   7.557  1.2232  1.9359 -1.6548
 5867TIP3   OH241795   2.991   3.107   8.242 -0.1205  0.4066  0.1481
 5867TIP3    H141796   3.069   3.102   8.297 -0.4395 -0.7271  0.5383
 5867TIP3    H241797   2.997   3.030   8.185 -1.5083 -0.3785  0.9896
 5868TIP3   OH241798   6.013   3.687   9.636 -0.2557 -0.3385  0.2047
 5868TIP3    H141799   5.984   3.649   9.552  1.1438 -2.3574  0.5725
 5868TIP3    H241800   5.970   3.634   9.702  0.3695 -0.1633  0.7569
 5869TIP3   OH241801   5.728   1.908   6.756 -0.1491 -0.7532  0.0851
 5869TIP3    H141802   5.803   1.858   6.726 -1.1365 -1.7661 -0.7942
 5869TIP3    H241803   5.724   1.892   6.850 -0.1328 -1.9271 -0.1004
 5870TIP3   OH241804   1.872   1.961   6.841 -0.0618 -0.4430 -0.3169
 5870TIP3    H141805   1.919   1.969   6.758 -1.0859  0.6320 -0.8147
 5870TIP3    H241806   1.837   2.049   6.858 -2.2308 -1.2663 -0.1849
 5871TIP3   OH241807   5.324   0.308   6.688  0.2766  0.0746  0.5373
 5871TIP3    H141808   5.311   0.214   6.678 -2.1698  0.3028  0.8604
 5871TIP3    H241809   5.389   0.317   6.758 -0.0638 -1.3742  1.0692
 5872TIP3   OH241810   3.016   4.098   9.177 -0.4114  0.0826  0.4408
 5872TIP3    H141811   3.034   4.179   9.225  0.1663 -0.6980  1.5653
 5872TIP3    H241812   3.102   4.065   9.153 -0.6857  0.4187 -1.1145
 5873TIP3   OH241813   3.172   6.637   7.804 -0.3967 -0.1632  0.4547
 5873TIP3    H141814   3.223   6.662   7.727 -1.2075  1.3592  0.3746
 5873TIP3    H241815   3.227   6.662   7.878 -0.8679  1.2366  0.3672
 5874TIP3   OH241816   0.523   4.234   7.432 -0.3528 -0.2900  0.5667
 5874TIP3    H141817   0.475   4.231   7.349 -1.3651  1.0960  1.0719
 5874TIP3    H241818   0.612   4.258   7.406 -0.7750  0.6325 -0.0972
 5875TIP3   OH241819   4.925   5.983   8.747  0.2169 -0.1251 -0.4432
 5875TIP3    H141820   4.871   6.005   8.822  0.8613 -1.9084  0.6144
 5875TIP3    H241821   5.015   6.005   8.773  0.4062 -0.4285 -0.8062
 5876TIP3   OH241822   3.699   2.699   9.596 -0.1904 -0.0678  0.2876
 5876TIP3    H141823   3.628   2.671   9.539 -0.4817  0.0515  0.5898
 5876TIP3    H241824   3.754   2.755   9.541 -0.5232  0.1274  0.1546
 5877TIP3   OH241825   1.826   2.343   9.698 -0.3364  0.5009  0.0451
 5877TIP3    H141826   1.737   2.315   9.679 -0.8960 -0.1167  3.0672
 5877TIP3    H241827   1.864   2.271   9.750  1.2121  1.5991  0.5245
 5878TIP3   OH241828   2.005   5.334   9.384 -0.3064 -0.2827 -0.3106
 5878TIP3    H141829   1.944   5.320   9.457  1.1341  0.5323  1.1109
 5878TIP3    H241830   2.036   5.246   9.362 -0.7736 -0.5466  0.0470
 5879TIP3   OH241831   5.297   5.604   6.548 -0.5103 -0.0997  0.8630
 5879TIP3    H141832   5.337   5.684   6.582  2.3608 -0.4863 -1.2212
 5879TIP3    H241833   5.353   5.533   6.581 -0.9400 -0.9191 -0.1098
 5880TIP3   OH241834   3.402   6.392   7.514 -0.4420 -0.8462 -0.0399
 5880TIP3    H141835   3.339   6.344   7.567 -0.9864  0.7021  0.7875
 5880TIP3    H241836   3.348   6.437   7.449 -0.2923  0.8381  0.9429
 5881TIP3   OH241837   4.971   1.427   8.418 -0.2549 -0.0127 -0.2744
 5881TIP3    H141838   4.890   1.449   8.464 -0.4635  0.7357 -0.9753
 5881TIP3    H241839   4.978   1.332   8.425 -2.4873 -0.4221 -2.2760
 5882TIP3   OH241840   0.011   5.372   8.553  0.1502  0.1112  0.4450
 5882TIP3    H141841   0.035   5.459   8.523 -0.6022  0.1335 -0.1233
 5882TIP3    H241842  -0.021   5.384   8.642  0.5512  0.3361  0.5573
 5883TIP3   OH241843   5.354   5.080   9.693 -0.2170 -0.6641 -0.0939
 5883TIP3    H141844   5.332   5.106   9.782 -1.9299 -0.0533 -0.6594
 5883TIP3    H241845   5.276   5.101   9.642  1.4276  0.9156 -2.1203
 5884TIP3   OH241846   6.738   1.372   6.954 -0.1701  0.1278  0.6660
 5884TIP3    H141847   6.656   1.417   6.976 -1.1099 -1.4808  0.5821
 5884TIP3    H241848   6.792   1.382   7.032  0.0621  2.1863  0.3215
 5885TIP3   OH241849   0.125   2.419   8.985 -0.2226  0.1047  0.1735
 5885TIP3    H141850   0.096   2.497   9.033 -0.2296  0.0153  0.3148
 5885TIP3    H241851   0.048   2.392   8.935 -0.4156 -0.1972  0.6329
 5886TIP3   OH241852   4.595   4.741   7.346  0.1457 -0.6374  0.0556
 5886TIP3    H141853   4.684   4.718   7.320  1.6221  1.5246  2.7017
 5886TIP3    H241854   4.588   4.835   7.326 -0.0454  0.1543  3.3009
 5887TIP3   OH241855   2.509   1.682   7.093  0.0634 -0.2079 -0.1194
 5887TIP3    H141856   2.511   1.757   7.153 -0.0998  0.0428 -0.4214
 5887TIP3    H241857   2.421   1.647   7.102  0.4329 -0.9519  0.7273
 5888TIP3   OH241858   5.470   2.825   6.698 -0.2833 -0.1855 -0.4324
 5888TIP3    H141859   5.544   2.841   6.757 -0.3659 -3.1739  0.6427
 5888TIP3    H241860   5.483   2.887   6.626  2.0883  0.7988  0.7318
 5889TIP3   OH241861   5.065   3.928   8.930 -0.3920  0.2867  0.2698
 5889TIP3    H141862   5.054   3.883   8.847  1.2183  0.8686 -0.2984
 5889TIP3    H241863   5.031   4.016   8.914 -0.2855  0.3321  0.2923
 5890TIP3   OH241864   0.565   2.984   7.820  0.7162  0.2323 -0.5919
 5890TIP3    H141865   0.513   3.024   7.890  2.1544  1.1376  0.0054
 5890TIP3    H241866   0.605   2.907   7.861 -0.4469 -0.7435 -1.1837
 5891TIP3   OH241867   3.733   0.242   6.975 -0.2544  0.5532 -0.2060
 5891TIP3    H141868   3.704   0.189   7.050 -0.1130  0.9144  0.1102
 5891TIP3    H241869   3.828   0.244   6.983 -0.0878 -0.8261 -1.3743
 5892TIP3   OH241870   6.020   6.503   8.744 -0.1957 -0.1824 -0.0844
 5892TIP3    H141871   6.053   6.587   8.774 -0.8074 -0.1900  0.6069
 5892TIP3    H241872   6.060   6.439   8.803  0.3928 -0.4055 -0.7029
 5893TIP3   OH241873   2.703   0.950   9.057  0.4072 -0.0041  0.1336
 5893TIP3    H141874   2.751   0.879   9.014 -0.7147 -0.9920  0.4472
 5893TIP3    H241875   2.730   1.029   9.011  1.0696 -0.7414 -0.7725
 5894TIP3   OH241876   5.747   3.224  10.066  0.0971  0.2423 -0.1701
 5894TIP3    H141877   5.805   3.147  10.064 -2.1921 -1.6329  0.9753
 5894TIP3    H241878   5.720   3.235   9.975 -1.7800 -2.2124 -0.0072
 5895TIP3   OH241879   1.000   4.689   8.203 -0.0377 -0.8545 -0.2386
 5895TIP3    H141880   0.938   4.724   8.268 -1.0833 -0.8491 -1.2154
 5895TIP3    H241881   0.994   4.594   8.213  0.6056 -0.8350  0.3965
 5896TIP3   OH241882   0.372   3.589   6.879 -0.0978  0.5330 -0.5437
 5896TIP3    H141883   0.444   3.579   6.941  0.8627  1.7173 -1.4187
 5896TIP3    H241884   0.296   3.554   6.925  0.3618  2.2229  1.7198
 5897TIP3   OH241885   4.798   5.789   8.256  0.2221  0.3868 -0.4526
 5897TIP3    H141886   4.891   5.807   8.270  0.8109 -1.2499 -1.8037
 5897TIP3    H241887   4.791   5.773   8.162 -1.5440  0.9580 -0.4580
 5898TIP3   OH241888   3.523   3.511   8.857  0.1882  0.1826  0.0063
 5898TIP3    H141889   3.555   3.592   8.817  1.3042 -0.2071  0.0953
 5898TIP3    H241890   3.565   3.507   8.943 -0.9184  0.1762  0.5757
 5899TIP3   OH241891   6.474   1.969   7.632 -0.1700 -0.1133  0.0466
 5899TIP3    H141892   6.412   2.009   7.693 -1.1462  2.7830 -2.5850
 5899TIP3    H241893   6.418   1.924   7.568  0.8306 -3.5569  1.3861
 5900TIP3   OH241894   4.253   1.899   6.864 -0.1759 -0.0059 -0.1584
 5900TIP3    H141895   4.338   1.914   6.821 -0.1128  1.5034  0.4289
 5900TIP3    H241896   4.229   1.810   6.838  0.8472  0.0891 -1.6059
 5901TIP3   OH241897   4.002   1.542   9.371 -0.4289  0.6117  0.0171
 5901TIP3    H141898   4.024   1.588   9.291  0.7115 -1.4917 -0.9486
 5901TIP3    H241899   3.951   1.605   9.422 -0.2941  2.3427 -1.8895
 5902TIP3   OH241900   0.642   6.270   8.485 -0.4959  0.1738 -0.0048
 5902TIP3    H141901   0.726   6.266   8.529 -0.2060 -1.0984 -0.6357
 5902TIP3    H241902   0.621   6.363   8.481  1.9187  0.7436 -1.7365
 5903TIP3   OH241903   2.208   6.420   9.640 -0.2952  0.5508 -0.3804
 5903TIP3    H141904   2.296   6.388   9.660 -0.2382  0.9900  0.1146
 5903TIP3    H241905   2.149   6.358   9.682 -0.2427 -0.0920 -1.2378
 5904TIP3   OH241906   6.094   1.896   8.786 -0.3284  0.0291  0.1971
 5904TIP3    H141907   6.086   1.800   8.786 -1.4573  0.1006 -0.5185
 5904TIP3    H241908   6.067   1.922   8.698 -0.1259  1.0164  0.4161
 5905TIP3   OH241909   2.849   1.962   9.802 -0.4825  0.2299  0.3513
 5905TIP3    H141910   2.937   1.972   9.839 -1.4706  2.3654  2.3212
 5905TIP3    H241911   2.801   1.909   9.866 -0.6636 -1.0651 -0.7895
 5906TIP3   OH241912   0.906   6.666   6.976 -0.0691 -0.2137 -0.0187
 5906TIP3    H141913   0.995   6.631   6.979 -0.4506 -1.1503  1.2731
 5906TIP3    H241914   0.868   6.628   6.897  0.1441 -1.1885  0.3359
 5907TIP3   OH241915   1.232   3.902   7.199 -0.1438 -0.2669 -0.4821
 5907TIP3    H141916   1.256   3.858   7.280 -0.8547  0.4883  0.1633
 5907TIP3    H241917   1.167   3.967   7.226 -0.2699  0.1060 -1.6356
 5908TIP3   OH241918   0.337   0.849   7.114 -0.3639 -0.1556  0.4828
 5908TIP3    H141919   0.337   0.897   7.197 -0.3525 -0.4673  0.6643
 5908TIP3    H241920   0.346   0.757   7.140  0.3873 -0.1953  0.1057
 5909TIP3   OH241921   6.028   2.404   7.464 -0.4214  0.0022  0.3303
 5909TIP3    H141922   5.994   2.355   7.538  0.3813 -1.5625 -0.2951
 5909TIP3    H241923   6.042   2.339   7.396  0.1256  1.1947 -0.7505
 5910TIP3   OH241924   6.513   1.747   7.861 -0.0640  0.0894 -0.1082
 5910TIP3    H141925   6.536   1.836   7.886 -1.7859  0.4018  0.5177
 5910TIP3    H241926   6.580   1.692   7.903 -1.4676  0.7857  3.4149
 5911TIP3   OH241927   1.014   0.675   9.258 -0.0182 -0.3422  0.5760
 5911TIP3    H141928   1.038   0.603   9.317  1.6465  0.4342  0.9075
 5911TIP3    H241929   1.082   0.675   9.191 -0.7204  0.1203 -0.1529
 5912TIP3   OH241930   5.088   2.814   7.477 -0.4351 -0.2031 -0.3875
 5912TIP3    H141931   5.002   2.844   7.506 -0.2455  0.9423 -0.9429
 5912TIP3    H241932   5.074   2.724   7.450 -0.8173 -1.0181  2.2705
 5913TIP3   OH241933   4.106   4.562   9.101 -0.4417  0.5244 -0.0899
 5913TIP3    H141934   4.182   4.573   9.044  0.8261  2.2830  1.8195
 5913TIP3    H241935   4.061   4.485   9.066  2.5544 -1.0073 -0.9126
 5914TIP3   OH241936   3.442   3.825   7.136  0.4110  0.4122 -0.0899
 5914TIP3    H141937   3.473   3.853   7.050  1.1023 -1.8443 -0.6481
 5914TIP3    H241938   3.523   3.806   7.185  0.0012 -0.4226  0.2795
 5915TIP3   OH241939   2.855   5.491   8.377  0.3531 -0.0850  0.1798
 5915TIP3    H141940   2.846   5.499   8.282  0.9809 -1.9840 -0.0787
 5915TIP3    H241941   2.799   5.560   8.413 -0.8477 -0.1105 -1.5507
 5916TIP3   OH241942   5.678   2.876   9.180  0.5517  0.4741  0.0723
 5916TIP3    H141943   5.600   2.822   9.170  0.2475  0.1450  3.3269
 5916TIP3    H241944   5.732   2.855   9.103 -2.2723  0.3757 -2.0389
 5917TIP3   OH241945   3.061   3.259   7.987  0.0279 -0.3558 -0.0416
 5917TIP3    H141946   3.033   3.350   7.993 -0.9902 -0.6409 -0.2164
 5917TIP3    H241947   3.054   3.226   8.077 -2.6111 -1.0778 -0.4323
 5918TIP3   OH241948   4.833   2.899   7.154 -0.5510  0.2376 -0.2008
 5918TIP3    H141949   4.811   2.809   7.129  0.8471 -0.0878 -0.3825
 5918TIP3    H241950   4.815   2.903   7.247  1.3799 -0.9521  0.2953
 5919TIP3   OH241951   2.248   5.995   7.723 -0.3459  0.4621  0.0131
 5919TIP3    H141952   2.270   6.086   7.700  1.6767  0.0123  0.0418
 5919TIP3    H241953   2.183   6.004   7.792 -0.0801  1.8930  0.1221
 5920TIP3   OH241954   4.663   3.942   8.700  0.0334 -0.7150  0.6602
 5920TIP3    H141955   4.757   3.958   8.693 -0.0709  0.9752  2.4212
 5920TIP3    H241956   4.646   3.875   8.634  2.0681  0.5010 -1.2688
 5921TIP3   OH241957   3.426   0.580   8.564  0.7642  0.5738 -0.2877
 5921TIP3    H141958   3.432   0.669   8.598 -0.8468  0.9121 -0.7897
 5921TIP3    H241959   3.377   0.589   8.483  1.6268 -0.6428 -0.9697
 5922TIP3   OH241960   4.062   5.425   7.475  0.0412 -0.4604  0.2970
 5922TIP3    H141961   4.009   5.437   7.553 -0.5252 -0.1958 -0.1229
 5922TIP3    H241962   4.143   5.472   7.493 -0.5895  0.6762  0.2249
 5923TIP3   OH241963   2.434   5.415   8.223 -0.3391  0.0803  0.3027
 5923TIP3    H141964   2.444   5.399   8.129 -1.6674 -1.4068  0.3755
 5923TIP3    H241965   2.354   5.467   8.230  0.0949  0.7190  0.5821
 5924TIP3   OH241966   6.248   0.565   9.661 -0.1394 -0.2533  0.1654
 5924TIP3    H141967   6.301   0.497   9.705  1.5657  0.8796 -0.0297
 5924TIP3    H241968   6.199   0.606   9.732  0.9671  0.1490  0.7265
 5925TIP3   OH241969   2.608   5.753   9.400  0.2777  0.0635  0.2595
 5925TIP3    H141970   2.640   5.673   9.440 -0.9821  1.1392  3.7776
 5925TIP3    H241971   2.665   5.822   9.435 -0.2395  0.9864 -0.6361
 5926TIP3   OH241972   0.822   1.659   7.823  0.3008  0.0989  0.1517
 5926TIP3    H141973   0.881   1.705   7.763  1.2452 -1.0951  0.1366
 5926TIP3    H241974   0.837   1.701   7.908  1.9651 -0.8408  0.3675
 5927TIP3   OH241975   4.464   6.436   6.966  0.6265  0.2382  0.3851
 5927TIP3    H141976   4.427   6.519   6.935  1.6421  0.6063  0.0917
 5927TIP3    H241977   4.557   6.442   6.943  0.5891 -1.2804 -0.2791
 5928TIP3   OH241978   5.722   5.139   9.352 -0.2673 -0.2124 -1.0032
 5928TIP3    H141979   5.668   5.132   9.431 -1.4066 -0.8509 -1.8042
 5928TIP3    H241980   5.802   5.091   9.372  0.0985  0.8864  0.2715
 5929TIP3   OH241981   2.587   0.303   9.218 -0.0752  0.4494 -0.4203
 5929TIP3    H141982   2.510   0.267   9.175  0.3410  1.0774 -1.7264
 5929TIP3    H241983   2.571   0.287   9.312 -0.7471 -1.4235 -0.8101
 5930TIP3   OH241984   2.048   2.982   9.365  0.1359  0.0548 -0.3204
 5930TIP3    H141985   2.130   2.936   9.350  0.4954  0.0539  1.4331
 5930TIP3    H241986   2.065   3.072   9.337  0.6163 -0.0395 -0.3296
 5931TIP3   OH241987   4.637   6.135   7.924  0.4662  0.4531 -0.1374
 5931TIP3    H141988   4.609   6.123   8.015 -2.6634 -0.6454 -1.1180
 5931TIP3    H241989   4.597   6.217   7.897  2.2014  1.2847 -0.3007
 5932TIP3   OH241990   1.475   1.446   9.047  0.5635  0.0212  0.1545
 5932TIP3    H141991   1.557   1.447   9.096  0.8888  0.6051 -0.3876
 5932TIP3    H241992   1.441   1.535   9.057  0.4437  0.0337 -0.3632
 5933TIP3   OH241993   2.749   3.568   8.000  0.4894  0.0179 -0.2060
 5933TIP3    H141994   2.721   3.650   8.041  1.2301  0.6267 -0.8789
 5933TIP3    H241995   2.840   3.584   7.975 -0.1309 -0.0072 -2.8010
 5934TIP3   OH241996   1.550   0.242   7.069  0.3052  0.1224 -0.0132
 5934TIP3    H141997   1.468   0.210   7.031 -0.1451 -0.5225  1.4384
 5934TIP3    H241998   1.558   0.332   7.036 -2.0501  0.9299  1.3718
 5935TIP3   OH241999   0.266   2.000   6.901  0.6247 -0.4675  0.1238
 5935TIP3    H142000   0.249   1.932   6.835 -2.5021 -0.7049  1.0038
 5935TIP3    H242001   0.267   1.954   6.984 -3.3618  0.5419  0.9381
 5936TIP3   OH242002   0.545   0.992  10.217  0.5126  0.4485 -0.2025
 5936TIP3    H142003   0.491   0.921  10.251  1.5379 -0.1719  0.1536
 5936TIP3    H242004   0.623   0.948  10.183  0.3322  1.2197 -1.7129
 5937TIP3   OH242005   1.612   0.215   8.813 -0.0672  0.0459 -0.8957
 5937TIP3    H142006   1.613   0.120   8.807  1.9759 -0.0149 -0.5148
 5937TIP3    H242007   1.693   0.242   8.770 -0.2661  1.5611 -0.3724
 5938TIP3   OH242008   3.539   6.428   8.307 -0.1236  0.5180 -0.0369
 5938TIP3    H142009   3.501   6.344   8.335  0.0904  0.3516 -0.2376
 5938TIP3    H242010   3.632   6.410   8.298 -0.2983  0.2549 -1.8836
 5939TIP3   OH242011   3.631   3.405   7.441 -0.2713 -0.2432 -0.1825
 5939TIP3    H142012   3.710   3.353   7.425  1.1115  1.8531 -0.5045
 5939TIP3    H242013   3.572   3.382   7.369  0.7687 -0.4901 -0.9677
 5940TIP3   OH242014   1.050   6.240   8.370  0.4869  0.1162 -0.0215
 5940TIP3    H142015   1.068   6.165   8.427 -0.1276 -1.0898 -1.3507
 5940TIP3    H242016   0.984   6.291   8.418  0.1335 -0.7557  0.4447
 5941TIP3   OH242017   4.510   4.500   7.433 -0.1770  0.1738  0.2963
 5941TIP3    H142018   4.523   4.575   7.376 -1.0046 -0.5699 -0.9222
 5941TIP3    H242019   4.569   4.515   7.506  2.5210  0.1585 -1.7274
 5942TIP3   OH242020   5.913   2.120   9.201  0.2131  0.0796  0.2380
 5942TIP3    H142021   5.886   2.209   9.223  0.8999  0.1748  0.7343
 5942TIP3    H242022   5.865   2.099   9.121  1.2575  1.4952 -0.8096
 5943TIP3   OH242023   2.997   5.427   6.733  0.2670  0.1032  0.1670
 5943TIP3    H142024   2.942   5.348   6.734  0.1124  0.1770 -1.0589
 5943TIP3    H242025   3.079   5.398   6.692 -0.1070  0.7523 -1.1071
 5944TIP3   OH242026   5.518   5.749   8.145  0.3871 -0.5250  0.0928
 5944TIP3    H142027   5.548   5.690   8.076 -2.2921 -0.8947 -0.8818
 5944TIP3    H242028   5.433   5.714   8.171 -0.0453  1.3651  1.4466
 5945TIP3   OH242029   4.260   0.182   8.932  0.0967 -0.1000 -0.2527
 5945TIP3    H142030   4.206   0.103   8.925  1.0602 -0.7136 -1.1179
 5945TIP3    H242031   4.278   0.191   9.025  1.6874 -2.1361 -0.2941
 5946TIP3   OH242032   6.575   5.021   9.260  0.1075  0.5827  0.6707
 5946TIP3    H142033   6.479   5.023   9.255  0.1676  1.5330 -0.3803
 5946TIP3    H242034   6.601   4.955   9.196  0.1872  0.9414  0.3309
 5947TIP3   OH242035   4.780   3.308  10.512  0.0890 -0.4696 -0.5939
 5947TIP3    H142036   4.839   3.337  10.582 -0.5246 -1.0911  0.1965
 5947TIP3    H242037   4.727   3.385  10.493 -0.4510 -0.5858  0.3750
 5948TIP3   OH242038   2.319   2.511   7.895  0.0970 -0.0309  0.3472
 5948TIP3    H142039   2.378   2.542   7.964  1.9114  0.0361 -1.1458
 5948TIP3    H242040   2.346   2.559   7.817 -2.0131  0.0296 -0.4060
 5949TIP3   OH242041   0.513   2.275   8.524 -0.4679  0.0594 -0.2594
 5949TIP3    H142042   0.500   2.368   8.503 -0.6412  0.5164  1.6455
 5949TIP3    H242043   0.454   2.259   8.598  0.5335 -1.2210  0.3047
 5950TIP3   OH242044   5.020   4.360   9.585 -0.0099  0.6721  0.4235
 5950TIP3    H142045   4.965   4.434   9.611 -0.1690 -0.0442  2.3007
 5950TIP3    H242046   5.046   4.320   9.668 -0.4386 -1.7370 -0.5384
 5951TIP3   OH242047   2.918   3.761   7.785  0.3295 -0.1860  0.3361
 5951TIP3    H142048   2.835   3.739   7.743 -0.3963 -0.1944  1.7133
 5951TIP3    H242049   2.896   3.833   7.844  1.2944 -0.2271  0.7544
 5952TIP3   OH242050   2.116   6.595   9.862  0.4657  0.1590  0.5969
 5952TIP3    H142051   2.082   6.528   9.921 -0.4656 -1.0418 -1.2218
 5952TIP3    H242052   2.045   6.657   9.851  0.3707 -0.0171  0.1843
 5953TIP3   OH242053   2.238   1.550   7.114 -0.3036 -0.0311 -0.0124
 5953TIP3    H142054   2.212   1.555   7.022 -0.2582 -4.3270 -0.4479
 5953TIP3    H242055   2.155   1.546   7.162 -0.3314  2.4868  0.2597
 5954TIP3   OH242056   4.494   0.246   6.890  0.0056  0.1919  0.0678
 5954TIP3    H142057   4.399   0.238   6.898 -0.0708  0.3771 -0.6138
 5954TIP3    H242058   4.527   0.221   6.976 -0.5261 -1.8261 -0.2688
 5955TIP3   OH242059   6.724   5.446   7.539 -0.1995 -0.3260  0.5868
 5955TIP3    H142060   6.762   5.359   7.534  2.0586  0.5556  0.9844
 5955TIP3    H242061   6.777   5.499   7.479  1.1472  1.5976  3.2632
 5956TIP3   OH242062   3.346   5.747  14.874  0.4677 -0.1054 -0.0048
 5956TIP3    H142063   3.266   5.739  14.822  0.6639  0.6873 -0.4450
 5956TIP3    H242064   3.363   5.841  14.878  0.0085 -0.0697  2.2130
 5957TIP3   OH242065   2.820   3.120   7.616 -0.0384  0.0886  0.3636
 5957TIP3    H142066   2.802   3.146   7.525 -0.4302 -0.8738  0.1620
 5957TIP3    H242067   2.758   3.049   7.634 -0.2422  0.5294  1.5195
 5958TIP3   OH242068   6.257   1.655   7.446  0.0642 -0.2622 -0.1762
 5958TIP3    H142069   6.233   1.746   7.430 -1.1509 -0.2687  1.4381
 5958TIP3    H242070   6.333   1.660   7.504 -0.3874 -0.2639  0.4240
 5959TIP3   OH242071   2.450   0.811   8.991 -0.7727 -0.5056 -0.5097
 5959TIP3    H142072   2.407   0.896   8.987 -0.2556 -0.0626  1.8357
 5959TIP3    H242073   2.543   0.831   9.003 -0.9072 -1.2330  2.7930
 5960TIP3   OH242074   3.806   3.155   7.364  0.1764 -0.3053 -0.1627
 5960TIP3    H142075   3.761   3.071   7.354 -2.6791  1.0882  0.1135
 5960TIP3    H242076   3.845   3.152   7.452 -1.2283 -0.7677  0.4594
 5961TIP3   OH242077   0.642   0.560   8.581 -0.1388  0.8511 -0.2170
 5961TIP3    H142078   0.640   0.475   8.624  0.9628  0.1554 -1.4795
 5961TIP3    H242079   0.550   0.585   8.573 -0.5012 -0.4356 -0.2355
 5962TIP3   OH242080   2.606   4.873   7.639  0.3377  0.1032  0.3011
 5962TIP3    H142081   2.641   4.922   7.564 -1.4042  0.5101 -0.3052
 5962TIP3    H242082   2.613   4.781   7.613 -0.5736  0.2483 -0.5678
 5963TIP3   OH242083   4.091   4.946   6.769  0.0037 -0.5693 -0.1702
 5963TIP3    H142084   4.055   4.980   6.687 -2.8148 -1.1329  0.7327
 5963TIP3    H242085   4.148   5.016   6.801  0.4859  0.0031 -2.1367
 5964TIP3   OH242086   2.923   0.330   8.509  0.3857 -0.2199 -0.3453
 5964TIP3    H142087   2.867   0.401   8.476  0.0761 -0.4600 -0.3420
 5964TIP3    H242088   3.000   0.333   8.452 -0.1501 -0.6345 -1.1066
 5965TIP3   OH242089   0.758   3.796   6.812  0.1834  0.3418 -0.2446
 5965TIP3    H142090   0.775   3.843   6.894 -1.7581  2.3560 -0.9126
 5965TIP3    H242091   0.665   3.807   6.796  0.1500 -1.6317 -1.7917
 5966TIP3   OH242092   3.759   0.180   9.325 -0.4039 -0.1397  0.2731
 5966TIP3    H142093   3.805   0.099   9.349 -0.0659  0.2856  1.0633
 5966TIP3    H242094   3.829   0.243   9.308 -0.6853  0.2978  0.7378
 5967TIP3   OH242095   6.642   6.386   6.797 -0.3784  0.0953 -0.6651
 5967TIP3    H142096   6.670   6.295   6.810  0.8774  0.1027 -2.8124
 5967TIP3    H242097   6.700   6.437   6.854 -2.7310 -0.5051  2.5103
 5968TIP3   OH242098   3.940   5.247   7.855  0.5920 -0.0951 -0.4389
 5968TIP3    H142099   3.954   5.314   7.789 -0.9873  0.6113 -0.1044
 5968TIP3    H242100   3.925   5.167   7.805 -0.0480  0.3220 -0.9335
 5969TIP3   OH242101   5.462   3.066   6.568  0.0485 -0.3354  0.1372
 5969TIP3    H142102   5.525   3.135   6.590 -0.5525  0.6751 -1.2284
 5969TIP3    H242103   5.379   3.111   6.557 -0.4217 -1.3181 -0.4647
 5970TIP3   OH242104   1.913   5.639   7.886  0.1683 -0.3010  0.2104
 5970TIP3    H142105   1.861   5.567   7.922 -1.3241  0.8190  0.3778
 5970TIP3    H242106   1.851   5.692   7.837  1.2386  0.8741  0.0654
 5971TIP3   OH242107   4.743   5.970   9.679 -0.3162  0.4109 -0.1229
 5971TIP3    H142108   4.780   5.939   9.762  2.3642 -0.5752 -1.5520
 5971TIP3    H242109   4.663   5.920   9.668  0.6309 -1.3735  0.6909
 5972TIP3   OH242110   1.721   3.574   6.971 -0.0016  0.4592  0.4049
 5972TIP3    H142111   1.798   3.577   7.029  0.8014  0.9456 -0.6454
 5972TIP3    H242112   1.648   3.552   7.029  0.9914 -0.4281  1.3675
 5973TIP3   OH242113   5.007   6.218   7.529  0.2069 -0.2159  0.0374
 5973TIP3    H142114   4.991   6.235   7.622  2.1592  1.3107  0.1559
 5973TIP3    H242115   4.920   6.197   7.493 -0.6291 -0.5081  2.1197
 5974TIP3   OH242116   0.995   2.527   8.705 -0.0572 -0.0541  0.4737
 5974TIP3    H142117   1.089   2.511   8.693 -0.1145  0.4820 -0.8458
 5974TIP3    H242118   0.988   2.623   8.706 -0.7236 -0.0739 -0.7415
 5975TIP3   OH242119   3.750   3.648   6.899 -0.0124  0.5197 -0.1952
 5975TIP3    H142120   3.670   3.633   6.850 -1.1528  1.3649  1.3075
 5975TIP3    H242121   3.780   3.734   6.871 -0.8297  1.1357  0.7393
 5976TIP3   OH242122   5.559   3.987  10.054  0.0219 -0.1724 -0.5220
 5976TIP3    H142123   5.607   4.069  10.043 -1.6337  0.8262 -0.6386
 5976TIP3    H242124   5.596   3.949  10.134 -1.2930  2.3135  1.4373
 5977TIP3   OH242125   1.336   1.382   9.578  0.2354  0.0150  0.0737
 5977TIP3    H142126   1.277   1.309   9.596  0.8849 -0.6238 -0.3422
 5977TIP3    H242127   1.349   1.424   9.664  0.7072 -1.0134  0.5232
 5978TIP3   OH242128   5.795   2.863   9.879  0.7038  0.1359  0.1436
 5978TIP3    H142129   5.718   2.807   9.888  0.6435  0.0689 -0.7280
 5978TIP3    H242130   5.765   2.936   9.825  0.9241  0.7460  0.8259
 5979TIP3   OH242131   4.631   2.576   7.840 -0.2847  0.3896 -0.6403
 5979TIP3    H142132   4.638   2.491   7.882 -0.9849  0.6519  0.0276
 5979TIP3    H242133   4.570   2.625   7.895  2.3978  2.4033  0.7478
 5980TIP3   OH242134   5.208   0.328   8.779  0.8963 -0.4770 -0.3652
 5980TIP3    H142135   5.283   0.361   8.729 -0.4894  0.8362 -1.6560
 5980TIP3    H242136   5.226   0.356   8.869  0.3406  3.0200 -1.1993
 5981TIP3   OH242137   3.475   4.711   7.896 -0.0950  0.0015  0.1965
 5981TIP3    H142138   3.481   4.781   7.962 -0.7782  0.0959  0.1605
 5981TIP3    H242139   3.435   4.752   7.820 -2.2795 -0.8450  0.8060
 5982TIP3   OH242140   1.184   3.709   9.160 -0.4624  1.0831 -0.5349
 5982TIP3    H142141   1.250   3.690   9.094  0.2984 -0.5703  0.6123
 5982TIP3    H242142   1.221   3.780   9.212  0.4195  0.1990  0.0678
 5983TIP3   OH242143   5.258   0.313   7.014  0.0815 -0.7078  0.5168
 5983TIP3    H142144   5.228   0.306   7.104  1.3770  2.0781  1.2412
 5983TIP3    H242145   5.312   0.235   7.000 -0.3801 -1.3207  2.0084
 5984TIP3   OH242146   1.629   6.731   7.859  0.4015  0.0875 -0.4455
 5984TIP3    H142147   1.670   6.742   7.945 -0.0883 -0.3574 -0.1540
 5984TIP3    H242148   1.619   6.821   7.826 -2.9006  0.6326  1.6067
 5985TIP3   OH242149   1.808   5.737   8.537 -0.3910 -0.0354 -0.2543
 5985TIP3    H142150   1.770   5.816   8.574  1.9967  1.2095 -0.2778
 5985TIP3    H242151   1.800   5.672   8.607 -1.4562  0.4991  0.1405
 5986TIP3   OH242152   2.439   1.095   9.202  0.2684  0.0306 -0.2912
 5986TIP3    H142153   2.410   1.175   9.246  2.2784  0.4083  0.4821
 5986TIP3    H242154   2.381   1.086   9.127 -0.9501  1.3918  0.4381
 5987TIP3   OH242155   2.881   5.464   7.599  0.8609 -0.5836 -0.1812
 5987TIP3    H142156   2.929   5.437   7.677  0.0663  0.8761  0.8524
 5987TIP3    H242157   2.892   5.559   7.596 -2.2687 -0.1177  0.3616
 5988TIP3   OH242158   3.162   3.444   7.076  0.3004  0.4671  0.1155
 5988TIP3    H142159   3.106   3.376   7.037  1.1100 -0.4352  0.4743
 5988TIP3    H242160   3.110   3.479   7.148 -0.3159  0.5666 -0.3650
 5989TIP3   OH242161   5.091   4.872   9.723 -0.1917  0.3720  0.2350
 5989TIP3    H142162   5.111   4.944   9.783 -1.2709  0.1043  0.9420
 5989TIP3    H242163   5.069   4.799   9.780 -1.7815  0.2640 -0.4511
 5990TIP3   OH242164   1.451   6.307  10.341  0.0333 -0.1114 -0.1911
 5990TIP3    H142165   1.360   6.302  10.310 -0.5838  1.1053  1.2552
 5990TIP3    H242166   1.504   6.296  10.262 -1.3112 -2.3895 -0.8674
 5991TIP3   OH242167   0.453   0.820   7.813 -0.3647  0.1900 -0.2799
 5991TIP3    H142168   0.526   0.783   7.862 -0.6096  1.3260  1.0270
 5991TIP3    H242169   0.405   0.744   7.780  0.7528 -0.5838 -0.1700
 5992TIP3   OH242170   5.300   3.771   9.875 -0.1892 -0.2801  0.1933
 5992TIP3    H142171   5.235   3.809   9.934  0.4333  1.8761 -0.4061
 5992TIP3    H242172   5.251   3.706   9.824 -2.1961  1.9267 -0.9005
 5993TIP3   OH242173   5.085   1.871   9.813 -0.7903  0.4397 -0.0361
 5993TIP3    H142174   5.142   1.893   9.886 -0.5799 -2.3871  0.7471
 5993TIP3    H242175   5.011   1.931   9.822  0.8999  2.6580  0.2416
 5994TIP3   OH242176   0.005   3.226   7.561  0.0165  0.3396 -0.3362
 5994TIP3    H142177  -0.052   3.228   7.484  1.5939  2.9870 -1.5849
 5994TIP3    H242178  -0.045   3.271   7.629 -0.8276 -0.7356 -0.2262
 5995TIP3   OH242179   4.216   1.429   7.688  0.5033 -0.4543  0.3435
 5995TIP3    H142180   4.205   1.342   7.649  0.3641 -0.4367  0.3405
 5995TIP3    H242181   4.259   1.413   7.772 -1.1026 -0.7039  1.1577
 5996TIP3   OH242182   2.892   4.456   9.062 -0.1590  0.5772 -0.5300
 5996TIP3    H142183   2.819   4.509   9.096 -1.0609 -0.8297 -0.1705
 5996TIP3    H242184   2.861   4.366   9.070  1.3916 -0.0224 -0.9789
 5997TIP3   OH242185   4.410   1.774   6.632  0.6528  0.0284 -0.2725
 5997TIP3    H142186   4.326   1.820   6.626  0.4407  0.1633  2.5306
 5997TIP3    H242187   4.387   1.681   6.634  0.8337 -0.1077 -2.2929
 5998TIP3   OH242188   5.017   4.091   7.304 -0.6577  0.4090 -0.4574
 5998TIP3    H142189   5.099   4.104   7.352 -1.3904  1.4017  0.5774
 5998TIP3    H242190   5.030   4.008   7.257 -0.1129 -0.9384  1.9127
 5999TIP3   OH242191   6.757   5.462   8.035  1.2052 -0.5752  0.3710
 5999TIP3    H142192   6.753   5.399   7.962  0.0867  1.4883 -1.4873
 5999TIP3    H242193   6.673   5.508   8.030  1.4709  0.2061  2.4767
 6000TIP3   OH242194   3.083   3.658   7.337 -0.0813  0.3226 -0.9527
 6000TIP3    H142195   3.135   3.670   7.257  3.6006 -0.8162  1.0387
 6000TIP3    H242196   3.092   3.741   7.384  0.3441 -0.0151 -0.4208
 6001TIP3   OH242197   5.084   4.409   8.277 -0.7372 -0.0764  0.2531
 6001TIP3    H142198   5.133   4.395   8.357 -1.1045  0.8150  0.6500
 6001TIP3    H242199   5.050   4.322   8.254 -0.1334 -0.4455  0.7260
 6002TIP3   OH242200   5.596   0.324   7.223 -0.8519  0.3331 -0.3353
 6002TIP3    H142201   5.610   0.418   7.235 -0.0780  0.1675  0.1075
 6002TIP3    H242202   5.630   0.284   7.303 -3.2278 -0.1852  0.5155
 6003TIP3   OH242203   4.882   4.658   8.377 -0.2302 -0.1182  0.1537
 6003TIP3    H142204   4.899   4.575   8.332 -1.3373 -0.5266  0.4353
 6003TIP3    H242205   4.962   4.676   8.426 -0.4963 -1.8561  1.3374
 6004TIP3   OH242206   3.120   3.130   8.981 -0.9523  0.1949 -0.1907
 6004TIP3    H142207   3.063   3.071   9.031 -0.8810  1.6983  1.7830
 6004TIP3    H242208   3.209   3.103   9.004 -0.8451 -0.7171 -1.5400
 6005TIP3   OH242209   6.117   0.344   9.547 -0.3581  0.0418  0.0235
 6005TIP3    H142210   6.043   0.404   9.558 -0.5717 -0.1583 -0.3127
 6005TIP3    H242211   6.193   0.394   9.574 -0.2212  1.2193 -2.3344
 6006TIP3   OH242212   5.295   1.894   9.991 -0.0435 -0.4484  0.2089
 6006TIP3    H142213   5.360   1.871   9.925  0.4165 -0.8190  0.7816
 6006TIP3    H242214   5.346   1.911  10.070 -0.4260  1.6208  0.0765
 6007TIP3   OH242215   1.960   3.028   8.291  0.0354  0.2464 -0.8533
 6007TIP3    H142216   1.903   2.971   8.341  2.3086  0.3190  2.1174
 6007TIP3    H242217   2.008   2.969   8.233  0.5280 -0.5430  0.3264
 6008TIP3   OH242218   2.221   6.007   8.628  0.3967 -0.0605  0.1902
 6008TIP3    H142219   2.282   5.935   8.642 -0.2876 -0.7503 -0.2650
 6008TIP3    H242220   2.276   6.086   8.628  1.2533 -0.6434 -0.0324
 6009TIP3   OH242221   3.542   6.052   7.552 -0.4366  0.3155  0.1589
 6009TIP3    H142222   3.502   5.971   7.519 -0.5295  0.7763 -0.9001
 6009TIP3    H242223   3.533   6.046   7.647  0.4846 -1.3998  0.1834
 6010TIP3   OH242224   6.403   5.358   9.033 -0.1343  0.5079  0.3072
 6010TIP3    H142225   6.446   5.305   8.966  0.2781  0.8939  0.2577
 6010TIP3    H242226   6.473   5.415   9.066 -0.9660  2.4244 -1.0471
 6011TIP3   OH242227   2.993   2.528   6.961 -0.3085  0.3845 -0.2468
 6011TIP3    H142228   2.931   2.587   6.920 -0.8341 -1.3093 -2.0312
 6011TIP3    H242229   3.065   2.585   6.989 -0.5466  1.8153 -2.3462
 6012TIP3   OH242230   2.598   0.211   7.190 -0.1214  0.7518  0.3296
 6012TIP3    H142231   2.545   0.135   7.166  1.0347 -0.2660  0.8994
 6012TIP3    H242232   2.580   0.225   7.283  1.3213 -0.2316  0.7873
 6013TIP3   OH242233   3.680   1.123   6.867  0.6638  0.6448  0.5708
 6013TIP3    H142234   3.697   1.039   6.909 -2.3132  0.0403  0.8142
 6013TIP3    H242235   3.704   1.189   6.932  1.3325 -0.0709  1.0595
 6014TIP3   OH242236   2.930   5.760   7.075 -0.0312 -0.3453  0.2159
 6014TIP3    H142237   2.989   5.818   7.124 -2.1507  0.7064  1.6681
 6014TIP3    H242238   2.978   5.741   6.994  1.8034  1.4033  0.7993
 6015TIP3   OH242239   3.065   1.957   8.232  0.2326  0.4800 -0.1212
 6015TIP3    H142240   3.020   2.040   8.245 -0.7138 -0.1024  0.4487
 6015TIP3    H242241   3.003   1.891   8.264  1.5816 -0.3394  0.8854
 6016TIP3   OH242242   6.008   0.142   7.281  0.1853 -0.3493 -0.4304
 6016TIP3    H142243   6.016   0.173   7.191  1.4962 -2.2482 -1.0493
 6016TIP3    H242244   6.092   0.163   7.321 -1.1424  2.4819  1.1205
 6017TIP3   OH242245   0.465   2.047   8.712  0.2938  0.2513 -0.0090
 6017TIP3    H142246   0.538   2.015   8.661  1.0562  1.7724  0.0513
 6017TIP3    H242247   0.502   2.065   8.799 -0.7018 -1.1462  0.7559
 6018TIP3   OH242248   6.353   0.974   6.686  0.7978  0.3394  0.4878
 6018TIP3    H142249   6.357   0.931   6.600 -3.2011  0.9318 -0.2018
 6018TIP3    H242250   6.340   0.902   6.748 -0.3101  0.1386  0.0450
 6019TIP3   OH242251   3.233   3.131   6.958  0.5598 -0.0429 -0.1675
 6019TIP3    H142252   3.192   3.048   6.984  0.4490  0.3535  0.9556
 6019TIP3    H242253   3.164   3.178   6.910 -0.6492  0.9668  2.4015
 6020TIP3   OH242254   0.597   5.740   7.277 -0.1240 -0.3204  0.2032
 6020TIP3    H142255   0.546   5.776   7.205 -0.3447  2.8716  1.8132
 6020TIP3    H242256   0.533   5.720   7.345  0.2993 -1.1346  0.3761
 6021TIP3   OH242257   4.318   2.388   8.533  0.3361 -0.0043  0.0376
 6021TIP3    H142258   4.392   2.445   8.513  0.9649  0.2438  2.6602
 6021TIP3    H242259   4.241   2.440   8.513  0.8990  0.8764  0.1091
 6022TIP3   OH242260   3.174   1.424   9.268 -0.4368  0.1068 -0.3453
 6022TIP3    H142261   3.249   1.480   9.286 -0.7042  0.0337  1.0944
 6022TIP3    H242262   3.208   1.357   9.209  0.5756  0.2138  0.1019
 6023TIP3   OH242263   6.255   1.303   8.224  0.1239 -0.2771  0.1163
 6023TIP3    H142264   6.211   1.264   8.300 -1.5006  1.3704  0.0844
 6023TIP3    H242265   6.334   1.342   8.261  0.4480 -1.3089  0.5709
 6024TIP3   OH242266   6.101   0.381   9.218 -0.4478  0.6117  0.1315
 6024TIP3    H142267   6.072   0.297   9.181 -1.0177  1.2124 -0.8125
 6024TIP3    H242268   6.124   0.360   9.309  0.5414 -0.8006 -0.4195
 6025TIP3   OH242269   1.696   1.730   6.480 -0.1919  0.6568  0.7376
 6025TIP3    H142270   1.611   1.691   6.459 -0.6247  1.2281  1.3926
 6025TIP3    H242271   1.690   1.753   6.573  1.6750 -1.7975  1.5685
 6026TIP3   OH242272   5.409   1.338   7.730 -0.1431 -0.1880 -0.3816
 6026TIP3    H142273   5.411   1.339   7.634  0.7591 -3.7222 -0.5339
 6026TIP3    H242274   5.326   1.295   7.751  0.2921 -0.6749  0.3667
 6027TIP3   OH242275   5.623   1.315   9.072 -0.2507  0.1154 -0.2865
 6027TIP3    H142276   5.624   1.391   9.130  0.3255 -1.0153  1.2548
 6027TIP3    H242277   5.589   1.244   9.126 -1.0804 -0.6898 -1.7870
 6028TIP3   OH242278   0.513   3.869   6.705  0.2851 -0.0308  0.2141
 6028TIP3    H142279   0.483   3.788   6.663 -1.0254  0.0361  0.9752
 6028TIP3    H242280   0.535   3.927   6.632  2.8274 -1.5873 -0.3675
 6029TIP3   OH242281   5.446   1.609   8.721  0.2096  0.3686  0.5062
 6029TIP3    H142282   5.366   1.560   8.706  0.7590 -0.4697  0.2269
 6029TIP3    H242283   5.417   1.696   8.748 -0.7838  0.0515  0.4822
 6030TIP3   OH242284   5.538   6.733   8.512  0.1209 -0.1666 -0.3447
 6030TIP3    H142285   5.628   6.720   8.543  0.5019  1.0737 -0.8800
 6030TIP3    H242286   5.510   6.816   8.552 -0.5938 -0.2710 -0.6079
 6031TIP3   OH242287   3.892   1.594   7.299 -0.3037 -0.0754 -0.0883
 6031TIP3    H142288   3.898   1.531   7.227 -0.9326 -1.4916  1.0586
 6031TIP3    H242289   3.980   1.632   7.304  0.0122 -0.6484 -0.9729
 6032TIP3   OH242290   2.854   5.509   8.077  0.7281  0.4101  0.6008
 6032TIP3    H142291   2.878   5.598   8.051 -1.7685  1.1409  0.5990
 6032TIP3    H242292   2.927   5.455   8.047  2.8478  2.5382  1.5481
 6033TIP3   OH242293   6.008   0.605   8.485 -0.2818 -0.2008  0.4466
 6033TIP3    H142294   6.062   0.621   8.408  0.7371 -3.2804  0.4270
 6033TIP3    H242295   5.925   0.649   8.465  0.7869  1.1694 -1.2802
 6034TIP3   OH242296   1.709   6.261   7.844  0.8347  0.6239 -0.1797
 6034TIP3    H142297   1.706   6.296   7.933  2.1631  0.9745 -0.2418
 6034TIP3    H242298   1.678   6.334   7.790 -3.4782 -0.6879  0.1580
 6035TIP3   OH242299   4.667   4.499   7.669  0.6986  0.1721 -0.1492
 6035TIP3    H142300   4.694   4.455   7.749 -1.5346  0.1030  0.6315
 6035TIP3    H242301   4.591   4.552   7.695  0.4184  0.7795 -2.0454
 6036TIP3   OH242302   3.478   6.676   8.406 -0.2447 -0.2866  0.0298
 6036TIP3    H142303   3.444   6.671   8.495 -1.3563 -0.4725 -0.3938
 6036TIP3    H242304   3.512   6.588   8.389 -1.5196 -0.7417 -0.2889
 6037TIP3   OH242305   4.258   5.875   7.598 -0.0986 -0.5041  0.1635
 6037TIP3    H142306   4.353   5.887   7.600  0.0364 -1.5032  1.6684
 6037TIP3    H242307   4.238   5.848   7.508  0.7684  1.4778 -0.6713
 6038TIP3   OH242308   1.732   0.803   9.217 -0.0637  0.5057  0.1525
 6038TIP3    H142309   1.823   0.829   9.236  0.3227 -0.8262  0.2372
 6038TIP3    H242310   1.739   0.712   9.187 -1.4484  0.0984  0.9782
 6039TIP3   OH242311   1.718   1.349   9.154  0.1851 -0.6336  0.0546
 6039TIP3    H142312   1.795   1.406   9.154  0.9000 -1.5588 -0.8564
 6039TIP3    H242313   1.740   1.279   9.091 -0.3244 -2.3462  1.6946
 6040TIP3   OH242314   3.092   5.831   8.807 -0.0799 -0.7395  0.2685
 6040TIP3    H142315   3.059   5.788   8.728 -1.7291 -1.8804  1.4912
 6040TIP3    H242316   3.084   5.925   8.789  1.6453 -0.9128 -1.6914
 6041TIP3   OH242317   5.642   4.256   9.164 -0.2720 -0.6583 -0.3039
 6041TIP3    H142318   5.683   4.189   9.110 -0.4398 -0.3623 -0.8067
 6041TIP3    H242319   5.658   4.338   9.117  1.7252 -0.0323  1.2993
 6042TIP3   OH242320   2.267   4.988   8.185  0.2517  0.0307 -0.0984
 6042TIP3    H142321   2.303   5.009   8.099  1.6466 -0.0142  0.4522
 6042TIP3    H242322   2.172   4.991   8.173  0.3970  2.2568 -1.0986
 6043TIP3   OH242323   0.122   0.302   8.345  0.6848 -0.4170  0.1810
 6043TIP3    H142324   0.193   0.257   8.391  1.4451 -1.0343 -1.5096
 6043TIP3    H242325   0.158   0.388   8.323  0.3168 -0.1168  0.7135
 6044TIP3   OH242326   6.764   2.144   6.738 -0.0211  0.6488  0.3576
 6044TIP3    H142327   6.735   2.104   6.820 -1.5012  1.6379  0.3600
 6044TIP3    H242328   6.698   2.211   6.720  0.5270  0.7507 -1.4195
 6045TIP3   OH242329   2.321   2.927   9.626  0.6032 -0.1402 -0.1213
 6045TIP3    H142330   2.325   2.864   9.555 -0.1177  0.3213 -0.5909
 6045TIP3    H242331   2.306   3.011   9.583  1.4516  0.3423  0.4962
 6046TIP3   OH242332   6.533   0.114   7.363  0.3739  0.1678  0.3664
 6046TIP3    H142333   6.556   0.029   7.400  0.3088  0.1597  0.3884
 6046TIP3    H242334   6.572   0.114   7.275  1.0986  0.4487  0.6789
 6047TIP3   OH242335   1.314   1.058   7.141  0.0843 -0.2178 -0.4725
 6047TIP3    H142336   1.340   1.074   7.050 -2.5359 -0.8029 -1.3897
 6047TIP3    H242337   1.396   1.030   7.183  1.1987 -0.9484 -2.8816
 6048TIP3   OH242338   0.627   4.631   9.102 -0.1017 -0.0936 -0.5913
 6048TIP3    H142339   0.700   4.678   9.060 -1.1762 -0.2487 -2.7909
 6048TIP3    H242340   0.653   4.539   9.100 -0.4853 -0.1886 -1.7097
 6049TIP3   OH242341   2.657   5.647   6.635 -0.8625 -0.1234 -0.0362
 6049TIP3    H142342   2.570   5.654   6.595 -0.4723 -0.6703 -1.0111
 6049TIP3    H242343   2.688   5.560   6.609  0.5212  0.5746 -0.8139
 6050TIP3   OH242344   4.713   3.010  10.218  0.2633  0.1043 -0.0208
 6050TIP3    H142345   4.650   2.938  10.212  0.0813  0.2973 -0.4386
 6050TIP3    H242346   4.668   3.084  10.178  0.6661  0.3098 -0.0920
 6051TIP3   OH242347   1.890   2.137   9.359  0.3338  0.1732 -0.7451
 6051TIP3    H142348   1.847   2.184   9.288  0.2751 -3.0889 -3.1160
 6051TIP3    H242349   1.824   2.073   9.388  0.9975  0.2434  1.0237
 6052TIP3   OH242350   5.980   4.535   7.419 -0.5727 -0.2158  0.4370
 6052TIP3    H142351   5.885   4.537   7.413 -0.6258 -1.2146  0.7558
 6052TIP3    H242352   6.004   4.622   7.452 -1.3667  0.0551  0.3154
 6053TIP3   OH242353   0.669   2.258   8.251 -0.3588  0.1718  0.1143
 6053TIP3    H142354   0.666   2.292   8.340  0.7228  0.0747  0.2113
 6053TIP3    H242355   0.610   2.315   8.201 -0.9814  0.2167  0.8889
 6054TIP3   OH242356   5.519   6.256   8.009  0.3691 -0.3356  0.6318
 6054TIP3    H142357   5.580   6.331   8.010  1.0265 -0.8281 -0.3689
 6054TIP3    H242358   5.575   6.180   8.028  0.0192 -0.7617 -0.0259
 6055TIP3   OH242359   3.840   1.776   8.453  0.1089 -0.1303 -0.2436
 6055TIP3    H142360   3.851   1.694   8.406  1.9166 -0.7641  1.1894
 6055TIP3    H242361   3.769   1.758   8.516  0.7073 -0.7103  0.2748
 6056TIP3   OH242362   4.679   1.738   6.985  0.2476  0.1645  0.3711
 6056TIP3    H142363   4.717   1.807   6.931 -1.9083  0.4708 -0.8825
 6056TIP3    H242364   4.662   1.781   7.069 -0.6683  1.0978 -0.2535
 6057TIP3   OH242365   3.604   3.201   6.758 -0.2080  0.3665  0.4010
 6057TIP3    H142366   3.599   3.190   6.853  1.1733  1.1039  0.5913
 6057TIP3    H242367   3.549   3.277   6.739 -1.5629 -0.5796  0.4108
 6058TIP3   OH242368   1.117   3.110   6.480  0.0517 -0.5128  0.0831
 6058TIP3    H142369   1.119   3.200   6.446  0.4662  0.5471  2.6432
 6058TIP3    H242370   1.108   3.121   6.575  2.6824 -3.1193  0.7703
 6059TIP3   OH242371   3.778   5.970   7.107 -0.3773  0.0565  0.2324
 6059TIP3    H142372   3.691   6.008   7.122 -0.2465  0.2663  0.4542
 6059TIP3    H242373   3.770   5.880   7.137 -1.0320 -0.4560 -1.3735
 6060TIP3   OH242374   4.230   1.496  10.051 -0.0658  0.0715 -0.2962
 6060TIP3    H142375   4.146   1.513  10.094 -0.1121  1.5089 -0.8881
 6060TIP3    H242376   4.260   1.413  10.089 -2.7360 -1.6347 -1.6236
 6061TIP3   OH242377   2.102   3.020   9.047  0.3862  0.3998  0.3125
 6061TIP3    H142378   2.022   3.060   9.080  0.6566 -0.3571  2.0002
 6061TIP3    H242379   2.167   3.091   9.046 -0.1080  0.8618 -0.4536
 6062TIP3   OH242380   6.437   0.347   7.749  0.1007  0.2985  0.7074
 6062TIP3    H142381   6.504   0.361   7.682  0.8378  0.6693  1.5003
 6062TIP3    H242382   6.484   0.359   7.832 -0.9255  0.4392  1.2763
 6063TIP3   OH242383   1.882   0.740   8.716  0.5189 -0.7650 -0.5028
 6063TIP3    H142384   1.810   0.783   8.761  0.0955 -2.1836  0.2256
 6063TIP3    H242385   1.850   0.652   8.698  2.2961 -1.6681  0.4707
 6064TIP3   OH242386   3.682   2.485   9.131  0.4581 -0.4077 -0.4324
 6064TIP3    H142387   3.618   2.414   9.127  0.1812 -0.1905  0.1238
 6064TIP3    H242388   3.747   2.461   9.065 -0.4886 -0.3433 -1.4344
 6065TIP3   OH242389   3.820   3.897   7.689 -0.2987  0.4983  0.0876
 6065TIP3    H142390   3.784   3.844   7.759  0.7923 -0.2388  0.1243
 6065TIP3    H242391   3.914   3.879   7.692 -0.0592  1.5314 -0.6652
 6066TIP3   OH242392   2.740   0.689   8.680 -0.0103 -0.1041  0.3137
 6066TIP3    H142393   2.747   0.782   8.657  1.2397 -0.2678 -0.0822
 6066TIP3    H242394   2.708   0.647   8.601  1.6637 -0.2974 -0.3047
 6067TIP3   OH242395   0.782   2.789   9.915 -0.8266  0.1205  0.0919
 6067TIP3    H142396   0.800   2.877   9.884  1.1539 -0.1268  0.4333
 6067TIP3    H242397   0.782   2.795  10.010  0.4782 -0.4319  0.1452
 6068TIP3   OH242398   5.019   6.371   8.237  0.0712 -0.3641 -0.3765
 6068TIP3    H142399   5.006   6.450   8.186  1.6791  0.9309  1.0853
 6068TIP3    H242400   4.938   6.360   8.286 -0.2070  0.3242 -0.6719
 6069TIP3   OH242401   2.889   2.181   8.214 -0.0366 -0.3908 -0.2141
 6069TIP3    H142402   2.807   2.158   8.170 -0.3272 -0.2972  0.2732
 6069TIP3    H242403   2.863   2.238   8.286  0.4416 -0.4885  0.0409
 6070TIP3   OH242404   0.564   1.728   7.735 -0.7099  0.3013 -0.4150
 6070TIP3    H142405   0.517   1.734   7.818 -0.1922 -1.0636  0.0125
 6070TIP3    H242406   0.655   1.747   7.757 -0.5636 -0.0976 -0.6604
 6071TIP3   OH242407   4.982   4.136   8.523  0.2599  0.0712  0.3374
 6071TIP3    H142408   5.070   4.104   8.540  0.0402 -0.0898  1.2469
 6071TIP3    H242409   4.938   4.064   8.478  0.6633  0.2498 -0.3523
 6072TIP3   OH242410   1.370   1.008   6.458  0.0483 -0.1127  0.3884
 6072TIP3    H142411   1.355   0.979   6.548 -1.5678 -0.1331  0.1283
 6072TIP3    H242412   1.341   1.099   6.457  0.7773  0.1228  0.0586
 6073TIP3   OH242413   1.032   3.325   9.728  0.2570 -0.4148  0.2562
 6073TIP3    H142414   1.016   3.389   9.797  1.0931  0.3598 -0.2497
 6073TIP3    H242415   1.123   3.299   9.740  1.1344  1.3541 -1.8248
 6074TIP3   OH242416   2.928   5.297   9.003  0.3290 -0.1564  0.4208
 6074TIP3    H142417   2.844   5.263   9.033  0.1093 -1.2263 -1.2793
 6074TIP3    H242418   2.939   5.380   9.050 -0.6438 -1.0385  2.2767
 6075TIP3   OH242419   4.728   5.176   7.283  0.1440 -0.4301 -0.0291
 6075TIP3    H142420   4.806   5.227   7.301  1.1783 -2.8246  3.1692
 6075TIP3    H242421   4.756   5.085   7.292 -2.5309 -1.4726 -1.1435
 6076TIP3   OH242422   3.099   0.897   7.978 -0.3430  0.1377 -0.4591
 6076TIP3    H142423   3.014   0.942   7.983 -0.4067  0.1394 -1.3132
 6076TIP3    H242424   3.163   0.967   7.969 -0.2394  0.1399  0.2776
 6077TIP3   OH242425   0.108   1.771   7.618 -0.3869 -0.5333  0.1861
 6077TIP3    H142426   0.100   1.677   7.607 -0.1277 -0.7778  1.7917
 6077TIP3    H242427   0.033   1.808   7.571 -1.4139 -1.6552  0.9008
 6078TIP3   OH242428   2.866   0.003   8.597  0.5311 -0.4519  0.5647
 6078TIP3    H142429   2.944  -0.051   8.611 -0.2800 -1.7029  0.4145
 6078TIP3    H242430   2.857   0.009   8.502 -0.5593 -1.8696  0.5458
 6079TIP3   OH242431   6.360   0.830   8.753 -0.2822  0.7263 -0.1197
 6079TIP3    H142432   6.302   0.904   8.733 -0.6440  0.9190  1.5076
 6079TIP3    H242433   6.446   0.870   8.769 -0.5552  0.8639  1.1041
 6080TIP3   OH242434   1.510   3.875   7.167 -0.5520 -0.2620 -0.0556
 6080TIP3    H142435   1.417   3.885   7.186 -0.3084  2.9451 -0.1259
 6080TIP3    H242436   1.551   3.860   7.252 -0.8982  0.7033  0.2865
 6081TIP3   OH242437   3.658   4.788   8.966 -0.1042 -0.0604 -0.5754
 6081TIP3    H142438   3.741   4.830   8.946 -0.2346  0.2618 -0.4382
 6081TIP3    H242439   3.613   4.849   9.024 -0.8567  0.2089 -1.4231
 6082TIP3   OH242440   3.564   2.113   8.564 -0.2973 -0.2998 -0.3624
 6082TIP3    H142441   3.631   2.179   8.577  0.3571 -1.1038  0.4828
 6082TIP3    H242442   3.486   2.148   8.607 -0.2104  0.3011 -0.6836
 6083TIP3   OH242443   1.075   6.761   9.894  0.0447  0.0566  0.7136
 6083TIP3    H142444   1.136   6.803   9.954  0.7243  0.6636 -0.3682
 6083TIP3    H242445   1.026   6.834   9.855 -1.5988 -0.4379  1.7780
 6084TIP3   OH242446   2.698   1.066   7.365  0.1442  0.3413 -0.3075
 6084TIP3    H142447   2.714   1.159   7.352 -1.6129  0.5859 -1.0720
 6084TIP3    H242448   2.614   1.062   7.411  0.9074 -0.8483  1.0373
 6085TIP3   OH242449   1.584   5.310   9.041  0.2018 -0.1512 -0.1013
 6085TIP3    H142450   1.628   5.255   8.976 -0.6193 -0.2743 -0.5645
 6085TIP3    H242451   1.656   5.350   9.090  0.8422 -2.3643  0.8987
 6086TIP3   OH242452   6.680   0.470   9.698  0.3281  0.9520  0.1294
 6086TIP3    H142453   6.602   0.518   9.724 -0.1841 -0.4113  1.3153
 6086TIP3    H242454   6.751   0.512   9.746 -0.2800 -0.0961  2.0779
 6087TIP3   OH242455   6.086   4.256   7.443 -0.7695 -0.2600  0.0927
 6087TIP3    H142456   6.051   4.336   7.483  0.3451  0.6647 -0.7223
 6087TIP3    H242457   6.008   4.202   7.426 -1.3697 -0.2165  2.4322
 6088TIP3   OH242458   2.913   5.698   6.728 -0.9165 -0.6330  0.4278
 6088TIP3    H142459   2.940   5.606   6.725  0.7733 -0.2327  1.6279
 6088TIP3    H242460   2.831   5.701   6.679 -1.4165 -2.9159  1.0070
 6089TIP3   OH242461   1.393   2.932   9.723 -0.3004  0.2822 -0.1413
 6089TIP3    H142462   1.467   2.871   9.715  1.6896  2.7237 -1.8540
 6089TIP3    H242463   1.426   3.003   9.778 -1.6141  1.1168 -0.3813
 6090TIP3   OH242464   0.746   2.007   7.653 -0.2398 -0.3124  0.3492
 6090TIP3    H142465   0.709   1.946   7.589 -0.6245  1.1258 -0.8536
 6090TIP3    H242466   0.829   2.034   7.614 -0.8093  1.1223  0.0718
 6091TIP3   OH242467   4.503   6.058   8.670  0.2143  0.5312  0.2866
 6091TIP3    H142468   4.464   6.142   8.644  1.8333  0.7318 -1.7914
 6091TIP3    H242469   4.548   6.027   8.591  0.9297 -1.5724  1.4400
 6092TIP3   OH242470   2.466   5.186   9.404 -0.0798  0.0290 -0.2653
 6092TIP3    H142471   2.373   5.203   9.421 -0.4610 -1.0210 -1.1753
 6092TIP3    H242472   2.470   5.092   9.387  1.6386 -0.6437  2.9628
 6093TIP3   OH242473   0.617   2.658   7.091  0.3608  0.1418  0.1080
 6093TIP3    H142474   0.684   2.649   7.159  1.9991  0.3645 -1.3904
 6093TIP3    H242475   0.544   2.605   7.121  0.8240  0.6183  2.2574
 6094TIP3   OH242476   4.185   6.513   7.741 -0.1091 -0.3458 -0.5744
 6094TIP3    H142477   4.197   6.444   7.676  2.2503 -1.8380  1.2677
 6094TIP3    H242478   4.147   6.468   7.816 -0.5103  0.8255 -0.0592
 6095TIP3   OH242479   1.906   3.501   7.438  0.1653 -0.5938 -0.7739
 6095TIP3    H142480   1.873   3.443   7.369  0.4095  0.0147 -1.4184
 6095TIP3    H242481   1.828   3.527   7.486 -0.2349  0.2852 -1.8547
 6096TIP3   OH242482   3.810   2.831   8.500  0.1130 -0.0671 -0.3547
 6096TIP3    H142483   3.814   2.925   8.521 -1.8114  0.4962 -2.1447
 6096TIP3    H242484   3.839   2.826   8.409 -1.1312 -1.0054 -0.7151
 6097TIP3   OH242485   1.902   3.414   8.450 -0.6770 -0.2599  0.1698
 6097TIP3    H142486   1.851   3.480   8.404  0.0224 -0.0555 -0.3225
 6097TIP3    H242487   1.949   3.462   8.517 -1.0810 -0.4429  0.5949
 6098TIP3   OH242488   1.825   1.323   8.023  0.1779  0.4630  0.0615
 6098TIP3    H142489   1.813   1.413   8.053  0.2002 -0.0958  1.9354
 6098TIP3    H242490   1.913   1.300   8.051  0.2516 -0.0760 -0.5895
 6099TIP3   OH242491   1.400   2.840   8.091 -0.2052  0.0605  0.0028
 6099TIP3    H142492   1.419   2.901   8.162 -0.1147 -1.4872  1.3646
 6099TIP3    H242493   1.482   2.794   8.076 -0.3995 -0.0800 -0.6655
 6100TIP3   OH242494   4.690   0.454   7.071  0.9857 -0.3864 -0.0182
 6100TIP3    H142495   4.775   0.471   7.028  0.8826 -1.5220 -0.7015
 6100TIP3    H242496   4.625   0.473   7.003  0.6841  0.3074  0.4519
 6101TIP3   OH242497   2.439   3.497   6.836  0.3132  0.0060 -0.0560
 6101TIP3    H142498   2.432   3.460   6.749  1.5983  0.7757 -0.5077
 6101TIP3    H242499   2.505   3.444   6.880 -2.6353 -2.5506  1.6721
 6102TIP3   OH242500   1.760   4.097   7.772 -0.0809 -0.1778 -0.2254
 6102TIP3    H142501   1.693   4.112   7.839 -1.4623 -1.6653 -1.1916
 6102TIP3    H242502   1.838   4.138   7.807 -1.2891  0.9190  1.3347
 6103TIP3   OH242503   3.472   0.400   8.787 -0.1724 -0.3841  0.2551
 6103TIP3    H142504   3.469   0.486   8.829  1.1097 -0.4180  0.4526
 6103TIP3    H242505   3.417   0.345   8.842 -0.6602  0.2070  0.3712
 6104TIP3   OH242506   5.210   5.157   7.508 -0.1043  0.1975  0.0896
 6104TIP3    H142507   5.292   5.158   7.457  1.2608  2.8684  2.0624
 6104TIP3    H242508   5.182   5.066   7.507  4.9627 -1.7290  2.3721
 6105TIP3   OH242509   4.477   2.975   7.733  0.0408 -0.0189 -0.7022
 6105TIP3    H142510   4.428   2.908   7.684  0.3913  0.0075 -1.0975
 6105TIP3    H242511   4.452   2.961   7.824 -0.5362 -0.1463 -0.8743
 6106TIP3   OH242512   3.582   2.322   8.161  0.6909  0.2696 -0.4803
 6106TIP3    H142513   3.632   2.395   8.195  0.0849  0.6973 -0.4808
 6106TIP3    H242514   3.530   2.291   8.235 -0.1407  0.7844 -0.8254
 6107TIP3   OH242515   4.255   2.444   9.878 -0.2655  0.2448 -0.4826
 6107TIP3    H142516   4.218   2.420   9.963  0.7732 -1.0870 -0.3831
 6107TIP3    H242517   4.347   2.464   9.896  0.3262 -1.4109 -1.4656
 6108TIP3   OH242518   2.076   4.670   7.134  0.4059 -1.0829  0.1174
 6108TIP3    H142519   2.025   4.676   7.215  0.4904 -0.6360  0.1394
 6108TIP3    H242520   2.137   4.744   7.139 -0.6874 -0.0493 -1.1273
 6109TIP3   OH242521   1.449   1.012   9.451  0.7791 -0.0608 -0.2835
 6109TIP3    H142522   1.480   1.089   9.405 -1.4095  1.9986  1.4310
 6109TIP3    H242523   1.477   1.024   9.541 -2.5831  0.6721  0.7923
 6110TIP3   OH242524   2.502   5.721   6.996  0.1804 -0.2923  0.1949
 6110TIP3    H142525   2.459   5.677   6.923 -1.8881 -0.9880  1.7365
 6110TIP3    H242526   2.431   5.764   7.044  1.6116  1.0764  1.2034
 6111TIP3   OH242527   5.940   3.472   9.795  0.5192 -0.2669  0.8495
 6111TIP3    H142528   5.853   3.494   9.827  0.0389  1.8541 -1.5773
 6111TIP3    H242529   5.933   3.382   9.764 -1.8338  0.7612 -2.0809
 6112TIP3   OH242530   1.185   2.972   7.209 -0.0595  0.2764  0.2216
 6112TIP3    H142531   1.152   2.929   7.288  0.5876  0.1301  0.4138
 6112TIP3    H242532   1.277   2.949   7.205 -0.4257 -1.1078 -1.4914
 6113TIP3   OH242533   3.626   0.920   7.086 -0.0790  0.4137  0.6754
 6113TIP3    H142534   3.617   0.826   7.071 -0.5226  0.2451  1.9140
 6113TIP3    H242535   3.570   0.938   7.162  0.4502  1.5757  0.8136
 6114TIP3   OH242536   0.905   3.210   9.516  0.2815 -0.7110 -0.2744
 6114TIP3    H142537   0.948   3.254   9.589  0.9573  0.2070 -1.1977
 6114TIP3    H242538   0.936   3.256   9.438 -2.2930 -0.0244 -1.0132
 6115TIP3   OH242539   6.506   5.119   7.984  0.0414 -0.2348 -0.4421
 6115TIP3    H142540   6.478   5.202   7.947 -0.6537  0.3713  1.3548
 6115TIP3    H242541   6.568   5.143   8.053 -1.7620 -0.9983  1.5606
 6116TIP3   OH242542   5.211   6.069   9.072  0.8179 -0.5449  0.1885
 6116TIP3    H142543   5.196   5.974   9.076  0.7885 -0.5346  0.3016
 6116TIP3    H242544   5.199   6.090   8.979  0.0379 -0.5258  0.2894
 6117TIP3   OH242545   4.849   3.617   7.352 -0.0416  0.5316 -0.2516
 6117TIP3    H142546   4.796   3.546   7.389  2.6512  0.3723  3.9216
 6117TIP3    H242547   4.795   3.695   7.361 -0.5964 -0.0106  1.4770
 6118TIP3   OH242548   0.800   3.582   8.655  0.2516 -0.1466  0.1274
 6118TIP3    H142549   0.819   3.505   8.708  2.4724  0.7955  0.8096
 6118TIP3    H242550   0.766   3.647   8.718 -1.2686 -0.4118 -0.3825
 6119TIP3   OH242551   2.813   0.184   7.910  0.1514  0.1517  0.1875
 6119TIP3    H142552   2.858   0.105   7.882  1.4795  0.8585  0.1971
 6119TIP3    H242553   2.738   0.153   7.960  1.8596 -1.1555  2.1432
 6120TIP3   OH242554   5.472   0.872   8.050  0.1390  0.6433 -0.4007
 6120TIP3    H142555   5.501   0.781   8.044  0.0782  0.5275  0.8731
 6120TIP3    H242556   5.510   0.914   7.973 -0.4461 -0.6110 -1.4085
 6121TIP3   OH242557   3.172   2.108   7.675  0.2668  0.0106 -0.1695
 6121TIP3    H142558   3.237   2.053   7.633  0.0373 -1.2634  1.0762
 6121TIP3    H242559   3.102   2.117   7.610  1.1877  0.5097 -1.1158
 6122TIP3   OH242560   4.159   1.197  10.125  0.0944  0.1932  0.1013
 6122TIP3    H142561   4.067   1.179  10.144 -0.0031  0.9296  0.3419
 6122TIP3    H242562   4.170   1.173  10.032 -0.9388  2.3391 -0.6275
 6123TIP3   OH242563   1.054   4.078   9.474  0.6730  0.2694 -0.3346
 6123TIP3    H142564   0.977   4.022   9.469  1.8974 -1.4900 -0.1350
 6123TIP3    H242565   1.039   4.134   9.551 -1.1253  1.1362 -1.2671
 6124TIP3   OH242566   5.729   0.581   8.568 -0.3167 -0.1134 -0.3601
 6124TIP3    H142567   5.756   0.666   8.534  1.3494 -0.4139  0.1104
 6124TIP3    H242568   5.677   0.601   8.646  1.3340  0.4967  0.6444
 6125TIP3   OH242569   0.882   1.229   8.488 -0.0472  0.0862  0.2636
 6125TIP3    H142570   0.867   1.259   8.399  0.1901 -1.5446 -0.3571
 6125TIP3    H242571   0.796   1.229   8.529 -0.8821 -2.9753 -1.2439
 6126TIP3   OH242572   0.941   3.884   9.081 -0.6749 -0.2381 -0.0038
 6126TIP3    H142573   0.854   3.859   9.112 -1.1612  1.1569 -0.1680
 6126TIP3    H242574   0.998   3.811   9.107 -1.7259 -0.7731  0.8744
 6127TIP3   OH242575   3.756   2.092   7.092  0.3191 -0.4908  0.2431
 6127TIP3    H142576   3.839   2.052   7.065  0.0562 -1.9524  1.5184
 6127TIP3    H242577   3.753   2.175   7.044  1.4161 -1.4683 -1.6195
 6128TIP3   OH242578   2.979   6.630   8.172  0.6096 -0.1137  0.2381
 6128TIP3    H142579   2.999   6.622   8.079 -0.1383 -0.1250  0.0681
 6128TIP3    H242580   2.886   6.652   8.174  0.9335  1.2803  0.9402
 6129TIP3   OH242581   4.516   1.689   8.276  0.0723 -0.0622  0.5607
 6129TIP3    H142582   4.496   1.782   8.273 -0.7840 -0.2196  1.0607
 6129TIP3    H242583   4.533   1.665   8.185 -1.4477  0.2225  0.1778
 6130TIP3   OH242584   1.797   3.591   9.239 -0.6315 -0.4091  0.1276
 6130TIP3    H142585   1.882   3.573   9.200  0.5749  2.0561  1.3835
 6130TIP3    H242586   1.775   3.680   9.210 -1.9822 -0.3724  1.1239
 6131TIP3   OH242587   5.350   0.848   6.865 -0.3263  0.1018  0.2351
 6131TIP3    H142588   5.344   0.856   6.770 -1.1058 -0.0999  0.2597
 6131TIP3    H242589   5.337   0.755   6.882 -1.5590  0.3289  0.6198
 6132TIP3   OH242590   5.502   0.567   7.974 -0.0169 -0.4833  0.1352
 6132TIP3    H142591   5.437   0.509   8.015  0.3619 -1.4793 -0.6462
 6132TIP3    H242592   5.522   0.525   7.891  1.0477  0.2392  0.0171
 6133TIP3   OH242593   5.718   3.215   7.564  0.5080 -0.3424 -0.0585
 6133TIP3    H142594   5.793   3.164   7.595  0.5426 -0.2832 -0.0457
 6133TIP3    H242595   5.754   3.302   7.545  0.2549 -0.0331  0.8388
 6134TIP3   OH242596   2.360   1.365   9.581 -0.2647 -0.7857  0.3225
 6134TIP3    H142597   2.399   1.288   9.622  0.4512 -1.1351 -0.9813
 6134TIP3    H242598   2.422   1.436   9.600  0.6866 -1.1955 -1.1467
 6135TIP3   OH242599   3.576   0.196   8.404 -0.2390  0.0270  0.4130
 6135TIP3    H142600   3.484   0.220   8.390 -0.3783  0.1478  1.4368
 6135TIP3    H242601   3.573   0.105   8.433 -0.0001 -0.0825  0.1017
 6136TIP3   OH242602   1.744   4.456   7.955 -0.6198 -0.5077 -0.4183
 6136TIP3    H142603   1.691   4.377   7.965  0.0652 -1.3319 -2.8002
 6136TIP3    H242604   1.754   4.467   7.861 -0.0110  1.9952 -0.1321
 6137TIP3   OH242605   2.693   4.249   9.306 -0.3653 -0.6943  0.0829
 6137TIP3    H142606   2.727   4.209   9.386 -0.8005  1.3968  1.3919
 6137TIP3    H242607   2.732   4.337   9.305 -4.1715  1.1884  0.7055
 6138TIP3   OH242608   6.550   0.590   7.060 -0.4714  0.3751 -0.1275
 6138TIP3    H142609   6.501   0.535   7.121 -1.6078 -0.0513 -1.3856
 6138TIP3    H242610   6.552   0.540   6.978  0.4200  1.2384 -0.6621
 6139TIP3   OH242611   1.880   6.132   9.339  0.2398 -0.1201 -0.3523
 6139TIP3    H142612   1.968   6.099   9.359 -0.0164 -1.2644 -1.0213
 6139TIP3    H242613   1.831   6.055   9.311 -1.6434  0.0469  2.0598
 6140TIP3   OH242614   2.928   1.287   6.764 -0.1881 -0.1854  0.2264
 6140TIP3    H142615   2.904   1.289   6.856  0.1690 -1.3410  0.3659
 6140TIP3    H242616   2.896   1.202   6.733  0.1327 -0.0188 -0.5812
 6141TIP3   OH242617   1.631   0.985   6.984  0.9764 -0.0980 -0.0556
 6141TIP3    H142618   1.607   1.061   7.037  0.7421 -0.9294  1.0571
 6141TIP3    H242619   1.685   1.021   6.914 -1.1262  1.4655 -1.0055
 6142TIP3   OH242620   3.882   5.712   8.151  0.0277  0.1323 -0.1269
 6142TIP3    H142621   3.935   5.715   8.231  0.3755 -0.2919 -0.3363
 6142TIP3    H242622   3.894   5.623   8.118 -0.3709  0.2090 -0.4806
 6143TIP3   OH242623   3.666   5.700   7.068 -0.4383  0.2340 -0.1749
 6143TIP3    H142624   3.649   5.640   7.141 -2.3996  0.0736 -0.7106
 6143TIP3    H242625   3.640   5.652   6.990  0.3858  0.8769 -0.8666
 6144TIP3   OH242626   0.430   3.982   9.164  0.5051  0.5293 -0.0096
 6144TIP3    H142627   0.423   3.936   9.081 -0.3715 -0.1243  0.4085
 6144TIP3    H242628   0.383   4.064   9.151 -0.0221  0.2271 -0.0299
 6145TIP3   OH242629   1.348   2.498   9.088 -0.2865 -0.1562 -0.3945
 6145TIP3    H142630   1.264   2.466   9.123 -0.9241  1.7319 -0.0805
 6145TIP3    H242631   1.327   2.584   9.052  1.6943  0.7077  0.4174
 6146TIP3   OH242632   2.863   3.249   7.159 -0.3401  0.2244 -0.1680
 6146TIP3    H142633   2.787   3.196   7.136 -0.0480 -0.1870 -0.1956
 6146TIP3    H242634   2.934   3.213   7.106 -0.3075  1.1572 -0.7815
 6147TIP3   OH242635   6.182   1.079   7.842 -0.0540  0.1187  0.0155
 6147TIP3    H142636   6.099   1.122   7.861 -0.0515 -0.1573  0.6657
 6147TIP3    H242637   6.225   1.070   7.928  1.2107  1.4084 -0.4349
 6148TIP3   OH242638   2.309   4.434   8.007 -0.0923  0.1029 -0.1494
 6148TIP3    H142639   2.382   4.372   8.002 -0.4839 -0.3363 -0.4713
 6148TIP3    H242640   2.274   4.438   7.919  0.7307  1.7958 -0.4450
 6149TIP3   OH242641   4.048   6.741   8.808  0.6016  1.0248 -0.3522
 6149TIP3    H142642   3.987   6.727   8.880  1.4525  2.9874  0.8283
 6149TIP3    H242643   3.997   6.790   8.743 -0.2036 -0.8548 -1.2140
 6150TIP3   OH242644   5.764   1.995   7.932  0.1314 -0.1211  0.1302
 6150TIP3    H142645   5.789   2.060   7.998  1.7610  0.8104 -1.3160
 6150TIP3    H242646   5.668   1.999   7.930  0.0554  0.1308  2.0858
 6151TIP3   OH242647   4.772   3.441   7.743 -0.6716  0.0375  0.3746
 6151TIP3    H142648   4.840   3.374   7.734 -1.2766 -0.5072 -0.2519
 6151TIP3    H242649   4.770   3.459   7.837 -1.8074 -2.2707  0.8771
 6152TIP3   OH242650   1.059   6.587   8.046 -0.5796 -0.0995  0.1108
 6152TIP3    H142651   1.099   6.511   8.088 -1.9144  0.5992  2.9132
 6152TIP3    H242652   1.112   6.603   7.968  0.0205 -3.5590 -0.3396
 6153TIP3   OH242653   6.495   0.839   9.333  0.6687 -0.3128 -0.0378
 6153TIP3    H142654   6.540   0.923   9.327 -0.0078  0.0352 -0.3494
 6153TIP3    H242655   6.489   0.808   9.243 -0.6513  0.1584 -0.1292
 6154TIP3   OH242656   5.850   1.830   9.206 -0.1675  0.2245 -0.0540
 6154TIP3    H142657   5.915   1.896   9.231  1.7303 -1.3212 -0.6329
 6154TIP3    H242658   5.856   1.827   9.111 -2.0877  0.9500 -0.2417
 6155TIP3   OH242659   6.161   0.703   8.897  0.0960  0.1075 -0.1487
 6155TIP3    H142660   6.182   0.694   8.990  0.5361  0.4408 -0.2108
 6155TIP3    H242661   6.237   0.748   8.860 -0.6266  1.1554 -0.4244
 6156TIP3   OH242662   2.560   2.190   7.168 -0.1279  0.5312  0.2330
 6156TIP3    H142663   2.555   2.131   7.092 -2.4074  0.2301  0.5405
 6156TIP3    H242664   2.654   2.199   7.185  0.3579 -2.0550 -0.5668
 6157TIP3   OH242665   0.280   0.677   9.312 -0.1857 -0.0619 -0.3350
 6157TIP3    H142666   0.195   0.638   9.289  0.6250 -1.1547 -1.5615
 6157TIP3    H242667   0.345   0.612   9.285  1.1973  1.8545 -1.8894
 6158TIP3   OH242668   1.247   3.181   8.659 -0.3261 -0.2340 -0.0898
 6158TIP3    H142669   1.218   3.271   8.673 -1.3316 -0.9076  2.8546
 6158TIP3    H242670   1.336   3.190   8.624 -0.0790  1.9427  0.9316
 6159TIP3   OH242671   2.605   0.972   7.125  0.0837 -0.2115 -0.2340
 6159TIP3    H142672   2.622   1.054   7.078 -0.2455  0.2086  0.3649
 6159TIP3    H242673   2.623   0.993   7.217  1.7060 -1.2929 -0.2575
 6160TIP3   OH242674   6.249   4.715   8.011  0.1727 -0.0792 -0.2385
 6160TIP3    H142675   6.300   4.638   8.034  0.8294  0.4855  0.2668
 6160TIP3    H242676   6.159   4.684   8.003  0.3954 -0.8471  0.1982
 6161TIP3   OH242677   4.206   0.557   7.654 -0.4177 -0.0554  0.0486
 6161TIP3    H142678   4.184   0.592   7.741  0.9269  0.2638  0.2829
 6161TIP3    H242679   4.259   0.625   7.613  0.8386 -1.1031 -0.1427
 6162TIP3   OH242680   2.738   4.812   9.044  0.1885  0.0120 -0.4281
 6162TIP3    H142681   2.716   4.857   9.125 -1.5108  0.2290 -0.9646
 6162TIP3    H242682   2.824   4.775   9.060 -0.3767 -0.5230  1.7187
 6163TIP3   OH242683   5.227   3.195   7.454  0.1377  0.4632 -0.3681
 6163TIP3    H142684   5.188   3.172   7.369  0.0363  0.0094 -0.2029
 6163TIP3    H242685   5.299   3.132   7.464 -0.2950  0.0515  0.2036
 6164TIP3   OH242686   3.983   0.498   9.480  0.0907  0.0561  0.0988
 6164TIP3    H142687   3.967   0.444   9.558 -0.8790 -1.4850 -1.1083
 6164TIP3    H242688   4.075   0.522   9.487 -0.1000  0.4423  1.9935
 6165TIP3   OH242689   2.106   4.223   8.407  0.2255  0.3751  0.0342
 6165TIP3    H142690   2.128   4.300   8.355  0.1167  0.6048  0.3249
 6165TIP3    H242691   2.054   4.257   8.480  2.1733  0.3576  1.4963
 6166TIP3   OH242692   2.291   0.275   8.401 -0.0488  0.2490 -0.2927
 6166TIP3    H142693   2.338   0.276   8.484 -0.5805  0.8729  0.0086
 6166TIP3    H242694   2.225   0.207   8.411 -0.0570  0.2662 -0.2270
 6167TIP3   OH242695   5.730   1.001   6.983 -0.0900  0.1471  0.1944
 6167TIP3    H142696   5.814   1.048   6.983 -0.0848  0.1484 -0.1947
 6167TIP3    H242697   5.664   1.069   6.998 -0.1770  0.4928 -1.4821
 6168TIP3   OH242698   4.789   3.501   8.512  0.2887  0.6171 -0.0315
 6168TIP3    H142699   4.747   3.417   8.490  1.5675  0.4800 -2.2548
 6168TIP3    H242700   4.865   3.477   8.565 -1.1182  0.7031  2.1592
 6169TIP3   OH242701   5.081   5.933  14.678  0.0929 -0.1427  0.4979
 6169TIP3    H142702   5.036   6.015  14.655  0.3519  0.7434  2.8941
 6169TIP3    H242703   5.031   5.898  14.751  1.0490 -1.1846  0.6745
 6170TIP3   OH242704   5.511   3.081   9.230  0.1120 -0.0676 -0.5796
 6170TIP3    H142705   5.447   3.062   9.161 -2.2388 -1.2980  1.7562
 6170TIP3    H242706   5.579   3.014   9.220 -0.3733 -0.4421 -1.4577
 6171TIP3   OH242707   6.334   3.039   6.713 -0.1289 -0.2561 -1.0125
 6171TIP3    H142708   6.424   3.034   6.746  0.5232  1.2077 -2.4438
 6171TIP3    H242709   6.309   2.948   6.697 -0.1728 -0.9881  2.5227
 6172TIP3   OH242710   3.318   2.872   8.053 -0.0785  0.5912 -0.2486
 6172TIP3    H142711   3.234   2.894   8.092  0.1464  0.8070  0.1155
 6172TIP3    H242712   3.308   2.893   7.960  0.0825  2.0971  0.0534
 6173TIP3   OH242713   3.332   1.773   8.454 -0.8031  0.0249  0.0899
 6173TIP3    H142714   3.320   1.713   8.380  2.5188 -0.8797  0.1430
 6173TIP3    H242715   3.288   1.853   8.427 -2.5994 -1.3472 -1.3594
 6174TIP3   OH242716   5.536   1.080   7.402 -0.2221  0.5122 -0.2558
 6174TIP3    H142717   5.534   1.048   7.492  1.3028  0.8655 -0.0690
 6174TIP3    H242718   5.564   1.004   7.350  0.6962  0.7780 -0.1716
 6175TIP3   OH242719   2.054   4.664   8.750 -0.0448  0.0951  0.0500
 6175TIP3    H142720   2.031   4.572   8.745 -2.3172  0.6301 -0.7620
 6175TIP3    H242721   2.149   4.665   8.760  0.2569 -2.3020 -1.6442
 6176TIP3   OH242722   5.127   0.081   6.448  0.4428  0.2453 -0.0796
 6176TIP3    H142723   5.069   0.130   6.389 -0.2383  1.3601  1.4477
 6176TIP3    H242724   5.215   0.098   6.415  0.1903  2.1387  0.1112
 6177TIP3   OH242725   0.298   5.144   8.886 -0.2493 -0.0193  0.1018
 6177TIP3    H142726   0.327   5.118   8.798 -0.0309  1.2375 -0.2124
 6177TIP3    H242727   0.347   5.086   8.945 -0.1561 -0.6584 -0.5851
 6178TIP3   OH242728   1.630   1.727   7.162  0.4245 -0.0287 -0.3191
 6178TIP3    H142729   1.564   1.699   7.099 -0.2810 -0.4622  0.5952
 6178TIP3    H242730   1.670   1.645   7.192 -0.9902 -0.0530  1.6556
 6179TIP3   OH242731   3.018   4.209   9.541 -0.2220 -0.0234 -0.0842
 6179TIP3    H142732   2.984   4.266   9.609 -0.6437 -0.0699 -0.2569
 6179TIP3    H242733   3.106   4.244   9.523  0.8722 -1.4193  2.1355
 6180TIP3   OH242734   5.443   5.628   8.526 -0.0568  0.1265  0.0049
 6180TIP3    H142735   5.508   5.584   8.471  0.3222 -0.3054  0.7879
 6180TIP3    H242736   5.364   5.633   8.471  0.6679  0.7884 -1.0052
 6181TIP3   OH242737   5.097   0.390   6.563  0.1647  0.2159  0.3111
 6181TIP3    H142738   5.172   0.338   6.594 -0.5023 -1.9313 -1.3625
 6181TIP3    H242739   5.038   0.325   6.524 -0.5428  2.2772 -2.3437
 6182TIP3   OH242740   2.848   5.220   7.417  0.1041  0.2955  0.3941
 6182TIP3    H142741   2.925   5.215   7.360 -1.7379  1.7540 -2.3891
 6182TIP3    H242742   2.863   5.299   7.470  0.6622  0.3712  0.1367
 6183TIP3   OH242743   5.650   3.682   8.821 -0.5504 -0.0070 -0.1971
 6183TIP3    H142744   5.583   3.618   8.845  0.6124 -1.1950 -0.0038
 6183TIP3    H242745   5.601   3.753   8.780 -1.9975 -0.5128  0.5764
 6184TIP3   OH242746   2.499   2.172   9.927 -0.0986  0.0593  1.2243
 6184TIP3    H142747   2.550   2.219   9.993  0.9714  0.7329 -0.0119
 6184TIP3    H242748   2.533   2.083   9.929  2.6894  0.8921 -0.8751
 6185TIP3   OH242749   1.088   5.756   9.566  0.3350  0.5857  0.3676
 6185TIP3    H142750   1.073   5.850   9.564  0.6867  0.6395  0.1557
 6185TIP3    H242751   1.104   5.736   9.659  1.4965  0.9372  0.2573
 6186TIP3   OH242752   2.669   1.454   6.954  0.0325 -0.0134 -0.5464
 6186TIP3    H142753   2.612   1.527   6.980 -0.1447  0.0240 -1.0300
 6186TIP3    H242754   2.663   1.452   6.858  0.2768 -0.4706 -0.5539
 6187TIP3   OH242755   5.664   4.083   9.387  0.1641 -0.3437 -0.0936
 6187TIP3    H142756   5.758   4.103   9.380 -0.3039  1.7537 -1.4877
 6187TIP3    H242757   5.623   4.142   9.324 -2.1875 -0.7271  0.9901
 6188TIP3   OH242758   0.370   1.434   9.220  0.1064  0.0415 -0.4237
 6188TIP3    H142759   0.367   1.515   9.271  0.0705  0.0611 -0.4566
 6188TIP3    H242760   0.348   1.461   9.131 -0.3850 -0.0756 -0.3441
 6189TIP3   OH242761   0.174   5.644  10.049 -0.3494 -0.4117  0.1913
 6189TIP3    H142762   0.196   5.726  10.004 -1.1976 -0.3033 -0.0495
 6189TIP3    H242763   0.079   5.641  10.046 -0.2947 -2.0371 -0.9573
 6190TIP3   OH242764   1.749   0.536   7.960  0.0676 -0.5660 -0.6087
 6190TIP3    H142765   1.678   0.489   8.005  1.6566 -2.1784  0.3181
 6190TIP3    H242766   1.713   0.556   7.874 -1.4623 -1.4769 -0.2171
 6191TIP3   OH242767   4.066   4.459   7.978 -0.0053  0.6372 -0.2070
 6191TIP3    H142768   4.152   4.418   7.984  0.0039  0.7681  0.6810
 6191TIP3    H242769   4.016   4.401   7.921  0.5600  0.3765 -0.4511
 6192TIP3   OH242770   3.312   4.243   7.237  0.6961 -0.1170 -0.1962
 6192TIP3    H142771   3.361   4.216   7.159  1.6116 -1.0114  0.6572
 6192TIP3    H242772   3.300   4.163   7.286 -0.2162  0.3805  0.4044
 6193TIP3   OH242773   3.497   5.192   7.928 -0.2749  0.0399  0.4397
 6193TIP3    H142774   3.438   5.146   7.987 -0.8485 -0.2717 -0.3490
 6193TIP3    H242775   3.439   5.240   7.869  0.2195 -0.7758 -0.7546
 6194TIP3   OH242776   0.770   1.576   7.232 -0.0874  0.2900 -0.3719
 6194TIP3    H142777   0.737   1.515   7.298 -2.5697  1.7577 -0.1514
 6194TIP3    H242778   0.757   1.531   7.149 -1.0019  0.1225 -0.1473
 6195TIP3   OH242779   2.394   4.202   9.925 -0.1644 -0.0294 -0.1679
 6195TIP3    H142780   2.384   4.117   9.968  1.0621 -1.2320 -2.0749
 6195TIP3    H242781   2.306   4.240   9.926 -0.8245 -1.4939  0.4277
 6196TIP3   OH242782   5.881   2.833   8.927  0.2652  0.2127 -0.2077
 6196TIP3    H142783   5.916   2.910   8.882  0.2144  0.4226  0.1130
 6196TIP3    H242784   5.957   2.792   8.967 -0.0354  1.6119  1.9481
 6197TIP3   OH242785   2.399   3.683   7.993 -0.5859 -0.0906  0.0553
 6197TIP3    H142786   2.363   3.641   7.915 -1.1559  0.3910  0.0514
 6197TIP3    H242787   2.444   3.761   7.960  0.6573 -0.7752  0.0396
 6198TIP3   OH242788   4.776   1.658   7.449  0.1809  0.0669 -0.2529
 6198TIP3    H142789   4.865   1.669   7.481 -0.1610  4.0287 -0.1198
 6198TIP3    H242790   4.737   1.593   7.508  2.6069 -0.8576  0.4301
 6199TIP3   OH242791   0.272   3.256   7.986 -0.1460  0.2669 -0.4660
 6199TIP3    H142792   0.263   3.173   7.939 -0.0840  0.2474 -0.4437
 6199TIP3    H242793   0.183   3.277   8.015 -0.1436  0.1510 -0.3750
 6200TIP3   OH242794   4.822   0.313   7.417 -0.0007 -0.1300 -1.1682
 6200TIP3    H142795   4.738   0.342   7.381 -0.4116  2.3835  1.4014
 6200TIP3    H242796   4.798   0.259   7.492  0.6877 -0.0486 -0.8844
 6201TIP3   OH242797   4.400   0.831   8.985 -0.5504  0.3232 -0.2180
 6201TIP3    H142798   4.362   0.825   9.072 -0.0234 -1.2006 -0.0587
 6201TIP3    H242799   4.378   0.919   8.955 -1.3877  0.6068  1.1411
 6202TIP3   OH242800   5.830   6.184   7.096 -0.2116 -0.1645 -0.3053
 6202TIP3    H142801   5.906   6.138   7.131  1.2263  1.9926 -0.4049
 6202TIP3    H242802   5.824   6.155   7.005  0.2336 -0.6483 -0.1872
 6203TIP3   OH242803   0.877   0.103   6.519 -0.4113  0.1029 -0.1905
 6203TIP3    H142804   0.867   0.185   6.471  1.4454  0.3450 -0.2206
 6203TIP3    H242805   0.856   0.035   6.454  1.1631  0.4629 -1.1239
 6204TIP3   OH242806   1.481   3.230   8.020  0.2232  0.2163  0.8751
 6204TIP3    H142807   1.493   3.136   8.034  0.1479  0.1939  0.7874
 6204TIP3    H242808   1.570   3.265   8.015  0.2631 -0.0378 -0.3696
 6205TIP3   OH242809   2.835   5.202   6.708  0.5848  0.2639 -0.2400
 6205TIP3    H142810   2.761   5.164   6.756  0.1707  1.7530  0.3677
 6205TIP3    H242811   2.895   5.129   6.695  0.3974 -0.3534  1.9350
 6206TIP3   OH242812   5.516   3.444  10.005  0.1142 -0.1048 -0.1814
 6206TIP3    H142813   5.505   3.349   9.996 -1.6147  0.0503  0.0480
 6206TIP3    H242814   5.438   3.473  10.052  1.1812  1.2881  0.8271
 6207TIP3   OH242815   3.554   0.144   7.734  0.3836  0.3936  0.5225
 6207TIP3    H142816   3.550   0.066   7.789 -2.2382 -1.7129 -2.2460
 6207TIP3    H242817   3.647   0.157   7.718  0.9934 -1.2476  2.2836
 6208TIP3   OH242818   5.214   4.555   6.975  0.7074  0.4169 -0.8710
 6208TIP3    H142819   5.146   4.522   7.034  0.4990 -0.2763 -1.4903
 6208TIP3    H242820   5.179   4.636   6.940  0.0666 -0.0871 -1.4123
 6209TIP3   OH242821   4.548   1.265   7.717 -0.3820 -0.2278 -0.6228
 6209TIP3    H142822   4.567   1.305   7.633 -0.8984 -1.7149 -1.4928
 6209TIP3    H242823   4.509   1.180   7.695 -1.2749 -0.3143  1.1084
 6210TIP3   OH242824   6.297   2.412   8.090 -0.1646  0.1931 -0.2736
 6210TIP3    H142825   6.221   2.451   8.046 -0.3945 -0.6424 -0.6400
 6210TIP3    H242826   6.327   2.480   8.150 -1.0761  0.6180 -0.2751
 6211TIP3   OH242827   3.862   4.240   9.102 -0.2197 -0.4171  0.0678
 6211TIP3    H142828   3.791   4.301   9.121 -0.2339 -0.5494  0.4391
 6211TIP3    H242829   3.912   4.283   9.033 -0.8406 -0.4654 -0.4243
 6212TIP3   OH242830   4.022   3.981   8.547 -0.2747  0.6507 -0.3864
 6212TIP3    H142831   4.041   3.927   8.624  0.9846  1.2357 -0.2503
 6212TIP3    H242832   4.051   4.068   8.572 -0.0031  0.8820 -1.4583
 6213TIP3   OH242833   4.909   0.573   6.942  0.1291  0.3265  0.1390
 6213TIP3    H142834   4.872   0.638   6.882 -0.5301 -0.6479 -0.5607
 6213TIP3    H242835   4.980   0.619   6.987 -0.4023  1.5569 -0.2269
 6214TIP3   OH242836   6.405   5.985   8.119 -0.0654 -0.3599  0.0411
 6214TIP3    H142837   6.313   5.960   8.126  0.0282 -0.6396  0.3255
 6214TIP3    H242838   6.442   5.921   8.057  0.2246 -1.0883  0.9408
 6215TIP3   OH242839   4.774   5.559  10.495 -0.3886  0.2049  0.0385
 6215TIP3    H142840   4.847   5.500  10.475  0.1224 -0.0320  2.3477
 6215TIP3    H242841   4.706   5.534  10.432 -0.3745 -3.2102  1.1606
 6216TIP3   OH242842   0.964   2.512   9.042  0.1902 -0.1703  0.5028
 6216TIP3    H142843   0.893   2.570   9.070  0.1134  0.1164 -0.2523
 6216TIP3    H242844   0.921   2.443   8.992  0.4190 -0.0799  0.1720
 6217TIP3   OH242845   5.688   1.373   7.778 -0.1872 -0.2473 -0.6288
 6217TIP3    H142846   5.596   1.348   7.786 -0.9796  2.3917 -0.5413
 6217TIP3    H242847   5.696   1.410   7.690  0.7133 -0.2018 -0.5399
 6218TIP3   OH242848   2.197   0.676   6.508 -0.1913  0.0121 -0.4957
 6218TIP3    H142849   2.260   0.670   6.436 -0.3641 -0.8217 -0.5904
 6218TIP3    H242850   2.222   0.605   6.568  0.9756  1.7100  1.1210
 6219TIP3   OH242851   2.725   6.308   7.725  0.1269 -0.3617  0.1093
 6219TIP3    H142852   2.678   6.225   7.717 -1.7710  0.8171 -2.2158
 6219TIP3    H242853   2.659   6.369   7.757  0.1478  1.1945 -2.5667
 6220TIP3   OH242854   1.142   2.498   7.860 -0.4162  0.5082  0.4941
 6220TIP3    H142855   1.066   2.533   7.906 -1.1026  0.1555 -0.3660
 6220TIP3    H242856   1.209   2.489   7.929 -1.1090  0.8979  1.2345
 6221TIP3   OH242857   0.788   2.093   6.368 -0.2748 -0.4117  0.0827
 6221TIP3    H142858   0.866   2.075   6.420 -0.4645  0.4253  0.6746
 6221TIP3    H242859   0.743   2.163   6.415  0.2113  1.3095 -1.8848
 6222TIP3   OH242860   6.547   3.267   7.363 -0.3781  0.4174 -0.0734
 6222TIP3    H142861   6.549   3.328   7.288 -2.1069 -0.4392 -0.8799
 6222TIP3    H242862   6.476   3.206   7.342 -0.9533  0.1630  2.2911
 6223TIP3   OH242863   3.687   4.960   7.073 -0.5623 -0.2152  0.1242
 6223TIP3    H142864   3.706   5.037   7.126 -1.6124  0.8913 -1.0233
 6223TIP3    H242865   3.771   4.935   7.036 -0.1425  0.1359  0.8156
 6224TIP3   OH242866   0.943   3.541   6.563  0.2055  0.6430  0.4871
 6224TIP3    H142867   0.925   3.490   6.484  1.9421  2.1203 -0.9510
 6224TIP3    H242868   0.931   3.479   6.635 -0.4468 -1.0255 -0.9852
 6225TIP3   OH242869   0.227   3.981   7.851 -0.2920  0.3324 -0.0408
 6225TIP3    H142870   0.252   4.073   7.848  1.0581 -0.0156  0.1704
 6225TIP3    H242871   0.307   3.934   7.875 -1.3090 -0.7502  1.4543
 6226TIP3   OH242872   5.710   4.759   9.503  0.2193 -0.6709 -0.0392
 6226TIP3    H142873   5.648   4.741   9.432  0.3314  0.7845 -0.5410
 6226TIP3    H242874   5.781   4.809   9.461  1.0970 -1.2026  0.7810
 6227TIP3   OH242875   5.006   3.452   6.817 -0.1604  0.0854 -0.0341
 6227TIP3    H142876   5.093   3.477   6.848  0.1529 -0.8837 -0.1123
 6227TIP3    H242877   4.954   3.532   6.826  1.2171  1.2769 -1.7944
 6228TIP3   OH242878   0.012   0.993   7.073  0.3573  0.4715 -0.2285
 6228TIP3    H142879  -0.080   1.011   7.051  0.4575 -1.1195 -2.2239
 6228TIP3    H242880   0.016   0.898   7.081  1.3801  0.6594  2.2696
 6229TIP3   OH242881   0.466   4.495   8.298  0.1371  0.7655  0.1968
 6229TIP3    H142882   0.538   4.523   8.241  0.9336  0.5701  1.0734
 6229TIP3    H242883   0.506   4.430   8.356 -0.5578  1.2100  1.2006
 6230TIP3   OH242884   0.859   6.605   8.726 -0.2300  0.2341 -0.2848
 6230TIP3    H142885   0.953   6.591   8.735 -0.4673 -1.0718  0.6012
 6230TIP3    H242886   0.838   6.670   8.793  0.0609  0.6664 -0.6078
 6231TIP3   OH242887   6.059   0.389   6.524 -0.2224 -0.6244  0.1709
 6231TIP3    H142888   5.995   0.459   6.530  1.3081  0.8475  0.1305
 6231TIP3    H242889   6.033   0.339   6.446  0.1329  1.5073 -1.3967
 6232TIP3   OH242890   1.352   5.215   7.419  0.0965 -0.0669  0.7797
 6232TIP3    H142891   1.344   5.128   7.378 -1.5758  0.5278 -0.2419
 6232TIP3    H242892   1.421   5.259   7.369 -0.9914  0.1668 -0.5631
 6233TIP3   OH242893   5.913   1.220   7.452 -0.4429 -0.4551  0.3097
 6233TIP3    H142894   5.991   1.250   7.497 -2.5090  0.4428  3.5885
 6233TIP3    H242895   5.876   1.298   7.412  0.1104 -0.8390 -1.0341
 6234TIP3   OH242896   6.356   0.297   6.645 -0.2740  0.4072  0.3264
 6234TIP3    H142897   6.287   0.348   6.603  0.2991 -1.1213 -2.8307
 6234TIP3    H242898   6.427   0.296   6.580  0.1717 -3.2756  0.6612
 6235TIP3   OH242899   3.392   6.269   8.668 -0.1588 -0.1527 -0.0709
 6235TIP3    H142900   3.340   6.339   8.629  0.0750 -1.2763 -2.5843
 6235TIP3    H242901   3.480   6.280   8.632  0.1542 -1.0758  0.3631
 6236TIP3   OH242902   4.997   0.296   6.880  0.2663  0.1350 -0.1725
 6236TIP3    H142903   4.966   0.386   6.876  0.8801  0.3035 -1.1773
 6236TIP3    H242904   5.087   0.302   6.910  0.3900 -0.1297 -0.4849
 6237TIP3   OH242905   2.183   1.966   7.407 -0.1232 -0.5378 -0.2590
 6237TIP3    H142906   2.277   1.978   7.421 -0.1289 -1.3330  0.5205
 6237TIP3    H242907   2.165   1.878   7.439 -1.1095 -0.4506 -0.5553
 6238TIP3   OH242908   3.913   3.724   6.607 -0.0621 -0.4435 -0.2109
 6238TIP3    H142909   3.885   3.796   6.551  0.0577 -0.7953 -0.7322
 6238TIP3    H242910   3.841   3.661   6.603 -0.3167 -0.2124  0.5134
 6239TIP3   OH242911   1.061   5.576   7.613 -0.2367 -0.5536 -0.4773
 6239TIP3    H142912   1.000   5.569   7.540 -1.8136 -2.2779  0.8944
 6239TIP3    H242913   1.112   5.495   7.609  0.0330 -0.4147  0.0266
 6240TIP3   OH242914   1.518   1.244   6.415  0.0965 -0.2666  0.1190
 6240TIP3    H142915   1.492   1.162   6.456 -2.8039  0.3333 -0.2564
 6240TIP3    H242916   1.530   1.223   6.322  1.3157 -0.5904  0.3304
 6241TIP3   OH242917   2.854   1.403   6.508 -0.1860  0.0279  0.4406
 6241TIP3    H142918   2.896   1.357   6.581 -1.0823 -0.4088  0.6843
 6241TIP3    H242919   2.908   1.381   6.432  0.2004 -0.2871  0.8023
 6242TIP3   OH242920   6.130   5.424   9.023  0.6992 -0.3755 -0.0028
 6242TIP3    H142921   6.221   5.404   9.044  0.3559 -0.4460  1.5853
 6242TIP3    H242922   6.079   5.359   9.072 -0.2611  1.3098  1.3501
 6243TIP3   OH242923   6.124   4.843   8.584 -0.3172 -0.2031 -0.2192
 6243TIP3    H142924   6.046   4.801   8.546 -0.8068 -0.7278  1.2956
 6243TIP3    H242925   6.190   4.774   8.586 -0.1625 -0.0658 -0.4564
 6244TIP3   OH242926   4.216   4.662   9.381 -0.2297  0.0397 -0.0043
 6244TIP3    H142927   4.197   4.600   9.310  1.6251 -0.5076 -0.0682
 6244TIP3    H242928   4.136   4.662   9.433 -1.7884  0.7042 -2.2185
 6245TIP3   OH242929   1.355   6.376   8.494  0.3874 -0.3632 -0.0445
 6245TIP3    H142930   1.377   6.324   8.417  0.6274 -2.2348  1.2194
 6245TIP3    H242931   1.284   6.327   8.535 -1.3048  1.7987 -0.2381
 6246TIP3   OH242932   4.365   3.060   8.043  0.0893 -0.6546 -0.0203
 6246TIP3    H142933   4.429   3.128   8.022 -0.4644 -0.3961 -0.9067
 6246TIP3    H242934   4.416   2.994   8.091  0.5724  0.5029  1.1259
 6247TIP3   OH242935   3.048   0.246   8.773 -0.2089  0.1070  0.4420
 6247TIP3    H142936   3.117   0.283   8.718  0.1416 -1.3848 -0.1594
 6247TIP3    H242937   2.969   0.253   8.720  0.2667 -2.0607 -0.6538
 6248TIP3   OH242938   1.329   5.411   9.497 -0.2098  0.3520 -0.2894
 6248TIP3    H142939   1.416   5.379   9.518 -0.0366  0.7209 -0.4299
 6248TIP3    H242940   1.325   5.409   9.401  0.1806  1.7061 -0.3489
 6249TIP3   OH242941   2.495   3.357   9.786 -0.5442  0.8216  0.1720
 6249TIP3    H142942   2.573   3.367   9.841 -0.1212 -0.8024 -0.0768
 6249TIP3    H242943   2.470   3.446   9.763  0.7213  1.4125  0.9851
 6250TIP3   OH242944   0.272   2.418   6.443  0.5012  0.7238 -0.1510
 6250TIP3    H142945   0.346   2.388   6.390 -0.1148 -0.3911 -0.4122
 6250TIP3    H242946   0.234   2.337   6.479  0.2285  1.3682  1.0882
 6251TIP3   OH242947   1.521   3.063   8.576 -0.1303 -0.3843  0.2978
 6251TIP3    H142948   1.552   2.973   8.589 -1.6591 -0.9517  0.2560
 6251TIP3    H242949   1.592   3.106   8.529  0.7527 -1.4852  0.5678
 6252TIP3   OH242950   4.983   2.033   8.659 -0.2017  0.3358 -0.6175
 6252TIP3    H142951   4.992   2.015   8.752 -1.0643  1.1699 -0.3570
 6252TIP3    H242952   5.030   1.961   8.616 -0.5111 -0.5223  0.4332
 6253TIP3   OH242953   0.882   6.712   6.315 -0.1069 -0.0698 -0.1281
 6253TIP3    H142954   0.914   6.627   6.343 -0.5219 -0.2862 -0.3029
 6253TIP3    H242955   0.960   6.758   6.283  0.3373  0.1087  1.1565
 6254TIP3   OH242956   6.344   1.226   9.520  0.0756  0.0213 -0.5998
 6254TIP3    H142957   6.419   1.186   9.476  1.4503  2.1580 -0.3188
 6254TIP3    H242958   6.368   1.318   9.531 -3.2769  1.2214 -2.0004
 6255TIP3   OH242959   1.088   0.335   7.546 -0.1911  0.4274 -0.5746
 6255TIP3    H142960   1.168   0.344   7.493 -0.2529  1.3092 -0.5238
 6255TIP3    H242961   1.069   0.241   7.542  1.0798  0.1261 -0.2423
 6256TIP3   OH242962   4.339   5.140   9.129  0.2677 -0.0372  0.6181
 6256TIP3    H142963   4.423   5.134   9.084  0.6663 -0.8604  1.4436
 6256TIP3    H242964   4.331   5.057   9.176 -1.3827 -0.3038 -0.0921
 6257TIP3   OH242965   4.500   3.318   9.024 -0.2005  0.4583  0.0771
 6257TIP3    H142966   4.487   3.224   9.030 -0.1720  0.3839 -0.9108
 6257TIP3    H242967   4.574   3.329   8.964 -0.8461  1.1247 -0.6338
 6258TIP3   OH242968   5.711   5.187   7.889 -0.0714 -0.0855 -0.1902
 6258TIP3    H142969   5.723   5.157   7.799  2.2354  0.8006 -0.2506
 6258TIP3    H242970   5.797   5.218   7.916 -0.7924  0.0687  2.2040
 6259TIP3   OH242971   2.447   0.952   8.695 -0.3886 -0.3181 -0.1583
 6259TIP3    H142972   2.385   0.879   8.695 -0.7282 -0.0307 -0.4198
 6259TIP3    H242973   2.528   0.915   8.662 -0.3808 -0.7266  0.3030
 6260TIP3   OH242974   2.525   4.830   8.891  0.3534 -0.0171  0.0900
 6260TIP3    H142975   2.612   4.828   8.931  0.4055  1.0835  0.0684
 6260TIP3    H242976   2.538   4.868   8.804 -0.1475  0.2060  0.1038
 6261TIP3   OH242977   5.945   2.687   8.037  0.0907 -0.1918 -0.8271
 6261TIP3    H142978   5.866   2.633   8.044 -0.9543  1.3195 -0.1291
 6261TIP3    H242979   5.967   2.686   7.944 -1.4815  0.2669 -1.2413
 6262TIP3   OH242980   5.139   1.811   8.795 -0.4110 -0.2959 -0.7084
 6262TIP3    H142981   5.222   1.837   8.836 -0.3581 -1.7493  0.1750
 6262TIP3    H242982   5.162   1.790   8.705  0.5724 -2.3678 -0.0374
 6263TIP3   OH242983   6.086   2.931   8.397 -0.3201  0.0274  0.3356
 6263TIP3    H142984   6.112   3.018   8.367  0.5682 -0.4073 -0.2011
 6263TIP3    H242985   6.164   2.896   8.440  0.4520 -1.7029 -2.2089
 6264TIP3   OH242986   2.406   6.196   7.296  0.8402  0.1060  0.1852
 6264TIP3    H142987   2.436   6.108   7.319  0.0508 -0.3911 -0.6297
 6264TIP3    H242988   2.473   6.228   7.235  0.8306 -0.1591  0.0308
 6265TIP3   OH242989   0.025   4.327   9.101 -0.1650 -0.1282 -0.2809
 6265TIP3    H142990  -0.013   4.324   9.188  1.0472  0.0762  0.2754
 6265TIP3    H242991  -0.050   4.319   9.042 -1.0154 -0.1298  0.7659
 6266TIP3   OH242992   1.397   5.969   9.119  0.1180  0.2943  0.0639
 6266TIP3    H142993   1.301   5.977   9.116  0.0347 -0.5309  0.3129
 6266TIP3    H242994   1.419   5.981   9.211  0.3872  1.6998 -0.1550
 6267TIP3   OH242995   4.562   6.503   7.436 -0.1712  0.6914  0.0239
 6267TIP3    H142996   4.615   6.582   7.425 -0.1456  1.0187  2.0766
 6267TIP3    H242997   4.480   6.522   7.389  0.7361  0.9285 -1.5533
 6268TIP3   OH242998   4.920   4.132   7.596 -0.0804 -0.0925 -0.6022
 6268TIP3    H142999   4.927   4.038   7.615  1.7027  0.1436  0.0833
 6268TIP3    H243000   4.907   4.136   7.501  1.0096 -1.0154 -0.8158
 6269TIP3   OH243001   1.991   3.400   6.795  0.5006 -0.1500  0.0190
 6269TIP3    H143002   1.986   3.305   6.782  0.9342 -0.1201 -0.3923
 6269TIP3    H243003   1.930   3.437   6.731  0.6213 -0.1334 -0.0869
 6270TIP3   OH243004   1.125   2.728   7.680  0.7828 -0.4204 -0.1276
 6270TIP3    H143005   1.150   2.656   7.738 -0.9438 -0.6420  0.3930
 6270TIP3    H243006   1.034   2.709   7.656  0.5049  1.2519 -0.5004
 6271TIP3   OH243007   5.930   4.219   8.718  0.1155 -0.4821  0.7424
 6271TIP3    H143008   5.912   4.148   8.656 -0.9756  0.8119 -0.4798
 6271TIP3    H243009   6.011   4.258   8.686  0.1073 -0.4647  0.7427
 6272TIP3   OH243010   1.466   3.053   7.177 -0.0718 -0.4903  0.0114
 6272TIP3    H143011   1.517   3.010   7.108 -1.7537 -0.1025 -1.5419
 6272TIP3    H243012   1.522   3.048   7.254  1.3519 -2.0938 -1.0473
 6273TIP3   OH243013   0.996   3.235   7.899  0.0995  0.5511 -0.0596
 6273TIP3    H143014   1.051   3.296   7.949  0.1837  0.8165 -0.4690
 6273TIP3    H243015   1.047   3.155   7.893 -0.3379  0.1545  1.1716
 6274TIP3   OH243016   6.029   1.514   7.444  0.3726  0.3392 -0.1076
 6274TIP3    H143017   6.049   1.493   7.353  0.3510 -0.8091  0.1322
 6274TIP3    H243018   6.104   1.565   7.474  1.0765 -0.5241 -0.3519
 6275TIP3   OH243019   1.235   0.686   8.138 -0.1271  0.5307  0.0112
 6275TIP3    H143020   1.208   0.596   8.118  0.5238  0.1440  0.8406
 6275TIP3    H243021   1.171   0.740   8.091 -0.2350 -0.3456 -0.9085
 6276TIP3   OH243022   1.714   4.792   8.585 -0.0896  0.4309 -0.3843
 6276TIP3    H143023   1.722   4.887   8.578  2.7556  0.3145  0.2183
 6276TIP3    H243024   1.697   4.763   8.495 -0.9566  1.4749 -0.5734
 6277TIP3   OH243025   0.896   5.253   7.516 -0.1259 -0.3937 -0.9045
 6277TIP3    H143026   0.860   5.200   7.587  0.0550 -0.7125 -1.0514
 6277TIP3    H243027   0.976   5.291   7.553  0.6683 -1.5865 -1.3439
 6278TIP3   OH243028   5.083   4.921   8.800  0.0098  0.3721 -0.2256
 6278TIP3    H143029   5.089   4.919   8.705  1.3306 -1.8800 -0.1690
 6278TIP3    H243030   5.144   4.990   8.826  0.2338  0.4644 -0.9802
 6279TIP3   OH243031   5.477   6.381   8.480 -0.4801 -0.2757 -0.1042
 6279TIP3    H143032   5.521   6.359   8.398 -0.9444  0.7309 -0.6299
 6279TIP3    H243033   5.391   6.414   8.454 -0.8194 -0.4047  0.8111
 6280TIP3   OH243034   6.753   0.672   9.339 -0.1588  0.3526 -0.5709
 6280TIP3    H143035   6.753   0.755   9.387  5.0236  2.0834 -2.8401
 6280TIP3    H243036   6.714   0.693   9.254 -0.9335 -0.2037 -0.3611
 6281TIP3   OH243037   3.420   3.360   7.275  0.5385  0.0397  0.0110
 6281TIP3    H143038   3.482   3.327   7.210  0.7810  0.3508  0.0845
 6281TIP3    H243039   3.334   3.348   7.234  0.8066  3.3321 -1.8301
 6282TIP3   OH243040   3.502   3.078   6.990  0.2568 -0.0528 -0.3150
 6282TIP3    H143041   3.407   3.085   6.980  0.0727  0.4709  1.3987
 6282TIP3    H243042   3.519   2.984   6.995 -0.6640 -0.1771  2.6698
 6283TIP3   OH243043   0.041   6.066   8.716 -0.6844 -0.6069 -0.1705
 6283TIP3    H143044   0.064   6.159   8.716  1.5419 -1.1015 -0.3278
 6283TIP3    H243045   0.109   6.025   8.768  0.3348 -2.5484 -2.7952
 6284TIP3   OH243046   2.614   5.104   6.858 -0.2292  0.1337  0.7623
 6284TIP3    H143047   2.544   5.164   6.833 -0.4001  0.2686  1.5508
 6284TIP3    H243048   2.575   5.017   6.847  0.6806  0.0156 -2.4551
 6285TIP3   OH243049   6.742   6.331   9.190 -0.9420 -0.3823  0.0433
 6285TIP3    H143050   6.663   6.372   9.154 -0.0243  0.5575 -1.0106
 6285TIP3    H243051   6.798   6.317   9.114  0.1520 -0.4606  0.8365
 6286TIP3   OH243052   4.184   5.287   8.151 -0.2674 -0.1203 -0.1613
 6286TIP3    H143053   4.207   5.379   8.145 -0.1678 -0.1680 -0.5303
 6286TIP3    H243054   4.243   5.243   8.089  0.7993 -0.6357  1.1664
 6287TIP3   OH243055   5.520   3.124   8.943 -0.2130 -0.0804  0.4169
 6287TIP3    H143056   5.431   3.103   8.915 -0.1291 -1.6807  1.2553
 6287TIP3    H243057   5.574   3.054   8.905  0.3313 -0.4955  1.9005
 6288TIP3   OH243058   5.052   2.466   8.295  0.2121 -0.4040 -0.2648
 6288TIP3    H143059   5.090   2.405   8.359  0.4469  0.4938  0.4824
 6288TIP3    H243060   5.128   2.499   8.246  0.2761  0.4143  0.3580
 6289TIP3   OH243061   3.574   2.377   6.932  0.3042  0.2576  0.0345
 6289TIP3    H143062   3.668   2.364   6.947  0.3312  0.7020  0.2490
 6289TIP3    H243063   3.558   2.339   6.846  0.2567 -1.8874  0.9233
 6290TIP3   OH243064   3.470   2.556   7.109  0.0460  0.7101 -0.6714
 6290TIP3    H143065   3.503   2.490   7.048  1.0188  2.0882 -1.7111
 6290TIP3    H243066   3.429   2.506   7.179  0.4244 -0.9733 -1.5947
 6291TIP3   OH243067   5.888   1.745   7.995 -0.4058  0.4357  0.2505
 6291TIP3    H143068   5.898   1.708   7.907  1.7559  1.0881  0.1828
 6291TIP3    H243069   5.814   1.806   7.987 -2.6528 -2.1258 -0.1578
 6292TIP3   OH243070   5.453   1.576   8.003 -0.1727  0.2580  0.5962
 6292TIP3    H143071   5.422   1.500   7.953  2.2684  0.1772 -0.9794
 6292TIP3    H243072   5.458   1.647   7.939 -0.1029  1.1009  1.5069
 6293TIP3   OH243073   3.466   0.106   8.685  0.6738  0.0931 -0.3119
 6293TIP3    H143074   3.466   0.189   8.732  1.4631  0.3022 -0.6623
 6293TIP3    H243075   3.379   0.070   8.700  1.3162 -0.5017  2.4536
 6294TIP3   OH243076   3.057   3.942   8.282  0.2413  0.2939 -0.5080
 6294TIP3    H143077   3.099   3.977   8.203 -1.1712  2.5423 -0.3570
 6294TIP3    H243078   3.107   3.978   8.354  0.9231 -0.9499 -0.3380
 6295TIP3   OH243079   0.581   0.285   6.768 -0.2723  0.1059  0.1965
 6295TIP3    H143080   0.581   0.328   6.853  0.2319  0.6051 -0.0499
 6295TIP3    H243081   0.501   0.231   6.768 -1.1003  1.3001  0.3727
 6296TIP3   OH243082   0.236   2.745   8.818 -0.6121  0.2937 -0.1882
 6296TIP3    H143083   0.309   2.706   8.771 -1.1628 -0.2544 -0.6186
 6296TIP3    H243084   0.276   2.797   8.887  0.1536 -1.6158  0.8784
 6297TIP3   OH243085   0.757   5.834   7.696 -0.1904 -0.1584 -0.1304
 6297TIP3    H143086   0.704   5.781   7.756 -1.1235  0.0506 -0.7571
 6297TIP3    H243087   0.816   5.883   7.754  0.7069 -1.8661  0.4610
 6298TIP3   OH243088   4.010   0.838   9.230 -0.1440  0.1121  0.0587
 6298TIP3    H143089   4.036   0.925   9.261  0.0803 -0.0604  0.3713
 6298TIP3    H243090   4.089   0.785   9.239 -0.1315  0.0098 -0.6500
 6299TIP3   OH243091   0.164   3.360   9.501  0.0898  0.0393  0.4401
 6299TIP3    H143092   0.203   3.273   9.492 -2.0725 -1.0061  0.5473
 6299TIP3    H243093   0.083   3.356   9.452 -1.1173  1.2895  2.1878
 6300TIP3   OH243094   4.248   5.166   6.879 -0.0715 -0.0635 -0.3990
 6300TIP3    H143095   4.288   5.229   6.938 -0.8288 -0.2056  0.2819
 6300TIP3    H243096   4.219   5.218   6.804 -0.9476  0.4565  0.2832
 6301TIP3   OH243097   1.876   2.334   9.169 -0.2894  0.0497  0.1222
 6301TIP3    H143098   1.964   2.304   9.192 -0.9644 -1.4825  0.8900
 6301TIP3    H243099   1.880   2.429   9.177  0.6349 -0.1186  2.7568
 6302TIP3   OH243100   2.689   4.097   6.970  0.1261  0.3631  0.5511
 6302TIP3    H143101   2.761   4.139   7.016  0.7002 -0.0309  0.0233
 6302TIP3    H243102   2.653   4.165   6.913  0.5016  0.3783  0.3315
 6303TIP3   OH243103   1.642   6.060   7.485 -0.0551 -0.4969 -0.2158
 6303TIP3    H143104   1.608   6.103   7.407 -0.2443  1.6155  0.9548
 6303TIP3    H243105   1.721   6.108   7.507 -0.8929  0.0923  1.8041
 6304TIP3   OH243106   1.587   3.928   8.349 -0.3779  0.5577 -0.1559
 6304TIP3    H143107   1.667   3.919   8.298  0.5564  0.2614  1.3229
 6304TIP3    H243108   1.607   3.996   8.414 -0.3096 -1.4343  2.0448
 6305TIP3   OH243109   3.990   1.056   7.445 -0.7651 -0.3420 -0.2994
 6305TIP3    H143110   3.995   1.122   7.376  0.5713 -0.2778 -0.1687
 6305TIP3    H243111   4.033   1.097   7.520 -0.6048 -1.0838  0.0211
 6306TIP3   OH243112   6.059   2.727   7.759 -0.4551  0.0989 -0.1001
 6306TIP3    H143113   6.095   2.745   7.673 -0.9221 -0.4444 -0.4194
 6306TIP3    H243114   5.993   2.659   7.744 -0.0589 -0.5044  0.7831
 6307TIP3   OH243115   0.047   2.736   8.570 -0.1488  0.4458  0.7745
 6307TIP3    H143116   0.103   2.733   8.648 -0.3942 -0.4564  0.9247
 6307TIP3    H243117   0.032   2.644   8.548 -1.0975  0.6850  0.3926
 6308TIP3   OH243118   0.777   6.494   9.655  0.2047  0.2476  0.2776
 6308TIP3    H143119   0.812   6.452   9.577 -0.2783 -1.0750  0.7544
 6308TIP3    H243120   0.742   6.423   9.708  0.0661  1.1667  1.4810
 6309TIP3   OH243121   4.760   1.827   8.524  0.5930  0.2760  0.8992
 6309TIP3    H143122   4.747   1.903   8.467  0.1281 -1.0228 -0.8211
 6309TIP3    H243123   4.823   1.856   8.590  1.0830  1.8846 -0.2328
 6310TIP3   OH243124   0.851   4.898   9.795  0.0718 -0.3343 -0.6941
 6310TIP3    H143125   0.899   4.898   9.878  0.3460 -0.5622 -0.8532
 6310TIP3    H243126   0.793   4.822   9.800  0.8480 -0.9732 -1.1471
 6311TIP3   OH243127   3.227   6.499   6.782  0.1568 -0.0456  0.0710
 6311TIP3    H143128   3.199   6.433   6.719 -0.5989  1.7965 -1.6314
 6311TIP3    H243129   3.322   6.488   6.788  0.2696 -0.1431 -1.5666
 6312TIP3   OH243130   0.339   4.421   8.575 -0.4774 -0.1525 -0.2302
 6312TIP3    H143131   0.413   4.460   8.620 -1.7878  1.1385  0.9026
 6312TIP3    H243132   0.273   4.491   8.571 -2.3623 -1.7896  0.5344
 6313TIP3   OH243133   3.603   1.782   8.556 -0.2395 -0.1335 -0.4923
 6313TIP3    H143134   3.553   1.802   8.478 -1.2459  0.3484  0.2573
 6313TIP3    H243135   3.548   1.810   8.629  0.1885 -1.5741  0.4445
 6314TIP3   OH243136   1.966   1.704   9.448  0.6946  0.0574  0.1587
 6314TIP3    H143137   2.001   1.689   9.535 -1.6275 -3.0957  0.7200
 6314TIP3    H243138   1.887   1.756   9.462  0.8282  0.3529 -0.1733
 6315TIP3   OH243139   2.522   4.221   7.379 -0.3920  0.5557 -0.4049
 6315TIP3    H143140   2.465   4.185   7.312 -2.1372  1.6758  0.4194
 6315TIP3    H243141   2.501   4.171   7.458 -0.8149  1.4811  0.0862
 6316TIP3   OH243142   4.103   3.992   9.820  0.3823  0.4395  0.4249
 6316TIP3    H143143   4.156   3.913   9.829 -0.8760 -0.4040  0.6006
 6316TIP3    H243144   4.088   4.022   9.909 -0.1958  0.1539  0.4274
 6317TIP3   OH243145   3.686   1.620   7.477 -0.2212  0.1651  0.1560
 6317TIP3    H143146   3.759   1.625   7.415 -0.5500  0.7058 -0.1871
 6317TIP3    H243147   3.724   1.577   7.554  0.0943 -0.8765 -0.5524
 6318TIP3   OH243148   2.055   0.523  10.189  0.0580 -0.1508  0.0723
 6318TIP3    H143149   1.976   0.577  10.196 -0.0373 -0.4678  1.8380
 6318TIP3    H243150   2.045   0.476  10.107 -1.1368  0.5126 -0.1786
 6319TIP3   OH243151   5.159   5.782   9.007  0.5518 -0.0121  0.3496
 6319TIP3    H143152   5.173   5.769   9.101  2.2894  0.2019  0.1452
 6319TIP3    H243153   5.105   5.708   8.980  1.0654 -0.7523  1.2928
 6320TIP3   OH243154   4.550   6.393   7.960  0.5425  0.8217  0.3712
 6320TIP3    H143155   4.481   6.396   8.026 -0.9639 -3.5333 -0.6869
 6320TIP3    H243156   4.529   6.466   7.901 -2.6068  0.3093  0.6758
 6321TIP3   OH243157   6.397   2.959   7.679 -0.2674  0.3858 -0.0670
 6321TIP3    H143158   6.457   2.962   7.604  0.5068 -1.2693  0.4513
 6321TIP3    H243159   6.314   2.927   7.642  0.3736 -1.3243 -0.0887
 6322TIP3   OH243160   0.323   5.589   7.265 -0.1768 -0.7910  0.0979
 6322TIP3    H143161   0.353   5.671   7.225 -1.0570  0.1932  1.3413
 6322TIP3    H243162   0.376   5.581   7.344 -0.0254 -1.4893 -0.0696
 6323TIP3   OH243163   6.606   6.675   8.219 -0.0282  0.9014 -0.2744
 6323TIP3    H143164   6.627   6.700   8.129 -0.7695  0.0817 -0.7032
 6323TIP3    H243165   6.581   6.582   8.212 -0.0242  0.8102  0.7871
 6324TIP3   OH243166   4.655   3.710   7.693  0.6174  0.5004  0.1297
 6324TIP3    H143167   4.643   3.615   7.685 -1.0554  0.8024 -1.9552
 6324TIP3    H243168   4.672   3.739   7.603  0.3682  2.2548  0.6276
 6325TIP3   OH243169   1.426   6.196   9.609 -0.1627  0.1888 -0.8349
 6325TIP3    H143170   1.367   6.156   9.545 -0.3381  0.3956 -0.8016
 6325TIP3    H243171   1.406   6.289   9.607 -0.2839  0.1758 -0.3620
 6326TIP3   OH243172   0.887   0.929   7.088  0.6671 -0.5032  0.2232
 6326TIP3    H143173   0.831   0.898   7.017 -0.3556  1.6767  0.0044
 6326TIP3    H243174   0.919   0.849   7.130 -0.2148 -1.8256 -1.4989
 6327TIP3   OH243175   4.215   0.161   6.934  0.3799  0.0082  0.1829
 6327TIP3    H143176   4.261   0.077   6.930  0.8067  0.2709 -0.6739
 6327TIP3    H243177   4.226   0.189   7.025 -0.6915 -1.3604  0.7717
 6328TIP3   OH243178   4.321   0.130   9.211 -0.4597 -0.0216  0.0657
 6328TIP3    H143179   4.261   0.174   9.271 -0.6170 -0.0279 -0.0862
 6328TIP3    H243180   4.396   0.105   9.266  0.4633  2.0265 -0.1817
 6329TIP3   OH243181   6.142   4.384   8.638  0.3135 -0.1830 -0.6375
 6329TIP3    H143182   6.166   4.459   8.583  0.0391 -0.8383 -1.6728
 6329TIP3    H243183   6.197   4.313   8.607 -0.2912 -0.7237 -0.4835
 6330TIP3   OH243184   0.219   5.769   7.524  0.2928 -0.2233  0.8478
 6330TIP3    H143185   0.211   5.855   7.567  0.2760  0.0102  0.3913
 6330TIP3    H243186   0.164   5.777   7.446  0.4751 -0.5717  0.6831
 6331TIP3   OH243187   5.640   0.128   6.597  0.4983  0.1119 -0.2810
 6331TIP3    H143188   5.550   0.096   6.590  0.2396  0.7653 -0.0955
 6331TIP3    H243189   5.649   0.191   6.525  1.4499 -1.3608 -1.5079
 6332TIP3   OH243190   2.153   1.078   7.170 -0.0187 -0.0942 -0.2758
 6332TIP3    H143191   2.218   1.139   7.134  0.1004  0.1562  0.3501
 6332TIP3    H243192   2.080   1.134   7.197 -1.5413 -0.5454 -3.0568
 6333TIP3   OH243193   5.454   5.129   7.368  0.3198 -0.3631 -0.2623
 6333TIP3    H143194   5.442   5.153   7.276  0.4508  0.0672 -0.1701
 6333TIP3    H243195   5.545   5.155   7.388 -0.0594  0.5897  0.2967
 6334TIP3   OH243196   1.796   3.156   7.839  0.1089  0.6610  1.0550
 6334TIP3    H143197   1.788   3.136   7.932  1.0060  2.3803  1.5501
 6334TIP3    H243198   1.880   3.118   7.813  0.3103  1.0092  1.1931
 6335TIP3   OH243199   2.939   3.308  10.045 -0.4167 -0.0335  0.0350
 6335TIP3    H143200   3.019   3.358  10.028 -0.4597  0.0763  0.1618
 6335TIP3    H243201   2.967   3.217  10.041 -0.0128  0.0106  1.4059
 6336TIP3   OH243202   2.787   5.742   7.938  0.4273 -0.1301 -0.2460
 6336TIP3    H143203   2.880   5.747   7.917  0.7450  1.3047  1.3177
 6336TIP3    H243204   2.744   5.730   7.853  1.9212  0.7715 -1.1794
 6337TIP3   OH243205   4.849   4.569   6.855  0.0526 -0.2158 -0.7799
 6337TIP3    H143206   4.793   4.567   6.932 -0.0848  0.1981 -0.8671
 6337TIP3    H243207   4.795   4.533   6.784  0.2191 -0.7085 -0.6626
 6338TIP3   OH243208   0.025   1.228   9.054 -0.0318  0.1405  0.1977
 6338TIP3    H143209  -0.067   1.210   9.035 -0.0879  0.6069  0.0157
 6338TIP3    H243210   0.064   1.243   8.968 -0.0428  1.1213  0.3442
 6339TIP3   OH243211   4.226   4.874   7.884 -0.3241  0.2033 -0.1433
 6339TIP3    H143212   4.229   4.861   7.789 -0.4905  0.4863 -0.1886
 6339TIP3    H243213   4.167   4.805   7.915 -0.3421  0.1674 -0.2560
 6340TIP3   OH243214   2.648   6.118   6.841 -0.1108 -0.1473  0.2369
 6340TIP3    H143215   2.615   6.056   6.776  0.3018 -0.7196  0.5653
 6340TIP3    H243216   2.702   6.065   6.900  0.4636  0.5719  0.3741
 6341TIP3   OH243217   4.721   4.014   7.216  0.1369 -0.0893 -0.0009
 6341TIP3    H143218   4.627   4.012   7.235 -0.3041 -1.3162 -1.9351
 6341TIP3    H243219   4.752   4.098   7.250 -1.5888  0.2037  0.9373
 6342TIP3   OH243220   3.435   2.868   6.472  0.3770  0.4016  0.4736
 6342TIP3    H143221   3.443   2.959   6.442 -0.1874  0.0207 -0.9087
 6342TIP3    H243222   3.523   2.832   6.463  0.5933  0.7805  0.9816
 6343TIP3   OH243223   2.239   4.363   7.433 -0.0397  0.3627  0.0259
 6343TIP3    H143224   2.246   4.444   7.483  1.2987  1.6538 -2.1102
 6343TIP3    H243225   2.313   4.366   7.372  0.1385 -2.5491 -0.0518
 6344TIP3   OH243226   2.438   1.245   7.349  0.4778  0.1546  0.7174
 6344TIP3    H143227   2.405   1.288   7.270 -0.6831 -1.8678  0.0396
 6344TIP3    H243228   2.372   1.266   7.416  1.0127  1.1360  0.9642
 6345TIP3   OH243229   6.123   3.272   7.578 -0.0480  0.3467 -0.0687
 6345TIP3    H143230   6.087   3.240   7.661  0.2514  0.1705 -0.0040
 6345TIP3    H243231   6.200   3.324   7.604 -0.4079  0.9506 -0.1845
 6346TIP3   OH243232   0.512   0.201   7.520  0.1192 -0.3976  0.2455
 6346TIP3    H143233   0.586   0.180   7.464  0.0769  0.0819  0.0102
 6346TIP3    H243234   0.517   0.296   7.533 -1.0583 -0.1883 -0.6544
 6347TIP3   OH243235   4.774   5.629   9.573 -0.0148 -0.2964  0.4178
 6347TIP3    H143236   4.851   5.672   9.537  0.9017 -0.8961  1.6134
 6347TIP3    H243237   4.700   5.677   9.535  0.9163  0.0782 -1.0111
 6348TIP3   OH243238   1.571   0.541   7.101  0.1796 -0.2671  0.4035
 6348TIP3    H143239   1.480   0.559   7.076  0.7551  0.3480 -1.3513
 6348TIP3    H243240   1.615   0.625   7.095  0.6708 -0.3221  2.3791
 6349TIP3   OH243241   5.988   4.511   8.261 -0.6206  0.1634  0.5557
 6349TIP3    H143242   6.004   4.600   8.293 -0.1242 -0.2675  1.5494
 6349TIP3    H243243   5.974   4.522   8.167 -0.0038  1.2260  0.5690
 6350TIP3   OH243244   3.418   3.294   9.250  0.3604 -0.1642  0.0096
 6350TIP3    H143245   3.377   3.330   9.329  0.7257 -0.8725  0.5396
 6350TIP3    H243246   3.347   3.288   9.187 -0.3095 -1.0951  0.8154
 6351TIP3   OH243247   2.641   4.848   8.006 -0.6160  0.1439  0.1958
 6351TIP3    H143248   2.713   4.806   7.957 -0.1126  0.6770  0.4717
 6351TIP3    H243249   2.682   4.920   8.052 -1.5190  1.1181 -0.4732
 6352TIP3   OH243250   4.575   6.475   8.488  0.1050  0.3001 -0.7721
 6352TIP3    H143251   4.551   6.562   8.519 -1.2339  0.1631 -1.3972
 6352TIP3    H243252   4.542   6.415   8.555 -0.9383  0.1417 -1.4102
 6353TIP3   OH243253   0.576   3.245   7.151 -0.2034  0.2586 -0.0951
 6353TIP3    H143254   0.482   3.241   7.136 -0.1261 -0.6172 -0.4397
 6353TIP3    H243255   0.614   3.190   7.082  0.4855 -0.2184  0.6317
 6354TIP3   OH243256   4.667   0.450   9.472 -0.1689  0.2707 -0.0551
 6354TIP3    H143257   4.675   0.366   9.427  1.7484  0.7272 -0.6424
 6354TIP3    H243258   4.581   0.446   9.513  0.1877 -2.3210  0.6408
 6355TIP3   OH243259   3.932   6.560   7.404 -0.5942 -0.0373 -0.4536
 6355TIP3    H143260   3.929   6.470   7.373 -1.4545 -0.1352 -0.1099
 6355TIP3    H243261   3.848   6.573   7.449  0.1581  0.4523  0.8615
 6356TIP3   OH243262   1.231   2.248   9.774  0.5191  0.5700  0.0914
 6356TIP3    H143263   1.289   2.174   9.759 -0.6343 -0.0780 -1.4526
 6356TIP3    H243264   1.262   2.315   9.713  0.5783  0.7834  0.3522
 6357TIP3   OH243265   3.654   1.972   8.328 -0.5541  0.2905  0.0729
 6357TIP3    H143266   3.606   2.026   8.391  0.0522 -0.2727  1.0400
 6357TIP3    H243267   3.710   1.916   8.382 -0.1811 -0.3633 -0.9619
 6358TIP3   OH243268   2.814   2.623  10.423  0.0466  0.4828 -0.1976
 6358TIP3    H143269   2.861   2.705  10.435 -0.9121  0.8708  1.3249
 6358TIP3    H243270   2.723   2.650  10.406  0.0308 -0.2503 -1.3370
 6359TIP3   OH243271   3.038   1.175   8.164 -0.1647 -0.5062 -0.4180
 6359TIP3    H143272   3.034   1.121   8.244 -1.9968  0.7846  0.4208
 6359TIP3    H243273   3.113   1.232   8.178 -1.0678  0.4159  0.9062
 6360TIP3   OH243274   5.444   4.899   9.215  0.4136  0.0817  0.3182
 6360TIP3    H143275   5.516   4.838   9.230 -0.4831 -2.1683 -3.2646
 6360TIP3    H243276   5.385   4.885   9.289  0.9320 -2.3772  0.3297
 6361TIP3   OH243277   0.818   5.646   8.316 -0.1623 -0.3736  0.8420
 6361TIP3    H143278   0.756   5.575   8.303 -2.0209  1.4050 -0.6603
 6361TIP3    H243279   0.785   5.693   8.392 -1.3065  1.1269 -0.5173
 6362TIP3   OH243280   3.488   2.980   7.465 -0.0806 -0.4395  0.1717
 6362TIP3    H143281   3.421   2.919   7.432 -1.0787  0.6788  0.0668
 6362TIP3    H243282   3.559   2.975   7.401 -1.0969  0.1255 -1.0429
 6363TIP3   OH243283   6.641   2.069   8.992 -0.1974 -0.4131 -0.5621
 6363TIP3    H143284   6.589   2.076   9.072 -0.9902 -1.3668 -0.9687
 6363TIP3    H243285   6.585   2.103   8.923  0.6420  0.8056 -0.6774
 6364TIP3   OH243286   4.471   6.133   7.654 -0.2261 -0.0787  0.0438
 6364TIP3    H143287   4.495   6.131   7.747 -0.3604  1.2032  0.1145
 6364TIP3    H243288   4.554   6.140   7.608 -0.2686  2.0022  0.1979
 6365TIP3   OH243289   6.187   1.152   9.740 -0.0923 -0.0432  1.2447
 6365TIP3    H143290   6.219   1.222   9.797 -1.7990  0.8395  1.1862
 6365TIP3    H243291   6.220   1.175   9.653  0.3506  0.0285  1.4285
 6366TIP3   OH243292   1.133   5.918   9.145  0.3685  0.0102  0.3322
 6366TIP3    H143293   1.069   5.988   9.138  0.3901  0.0772  0.8072
 6366TIP3    H243294   1.101   5.850   9.086  0.6377  0.6384 -0.5646
 6367TIP3   OH243295   1.579   1.571   9.629 -0.1965 -0.0290 -0.3792
 6367TIP3    H143296   1.604   1.547   9.718 -0.6451  1.3238  0.1371
 6367TIP3    H243297   1.575   1.666   9.630  0.1581  0.0313 -1.9635
 6368TIP3   OH243298   2.306   6.738   6.980  0.1251  0.2372  1.0131
 6368TIP3    H143299   2.323   6.644   6.973 -0.4258 -0.0002  2.3924
 6368TIP3    H243300   2.360   6.765   7.055  0.3416  1.0377  0.5708
 6369TIP3   OH243301   4.579   2.995   8.222  0.2100 -0.2473 -0.4010
 6369TIP3    H143302   4.614   2.920   8.174  2.0164  0.0996  0.3016
 6369TIP3    H243303   4.656   3.041   8.253 -0.8970  1.1181  0.4074
 6370TIP3   OH243304   5.020   4.973  10.018 -0.8675 -0.2419 -0.3177
 6370TIP3    H143305   4.990   5.045   9.963  1.3949  1.2705  0.3057
 6370TIP3    H243306   4.959   4.901   9.999 -0.6245  0.3854 -4.2533
 6371TIP3   OH243307   0.470   5.090   8.608  0.0952 -0.0043 -0.0284
 6371TIP3    H143308   0.392   5.034   8.607 -0.1570  0.2080  2.2767
 6371TIP3    H243309   0.529   5.048   8.670  1.4540  0.3581 -1.0354
 6372TIP3   OH243310   2.196   1.912   8.978 -0.1028 -0.1819 -0.2600
 6372TIP3    H143311   2.135   1.979   8.947  1.0601  0.7857 -0.5739
 6372TIP3    H243312   2.187   1.913   9.073 -1.5168 -0.9991 -0.3732
 6373TIP3   OH243313   2.001   5.616   9.897  0.1122 -0.0767 -0.2264
 6373TIP3    H143314   1.962   5.567   9.825  1.4337  0.7885 -1.5698
 6373TIP3    H243315   1.956   5.701   9.896 -1.6827 -0.9118  1.6615
 6374TIP3   OH243316   6.537   4.012   9.562 -0.0173 -1.2505  1.3180
 6374TIP3    H143317   6.460   4.031   9.617  0.7621  1.1357  1.7118
 6374TIP3    H243318   6.609   4.056   9.607  0.6253  1.0890 -1.6890
 6375TIP3   OH243319   1.185   2.680   8.932 -0.8649  0.4558 -0.3106
 6375TIP3    H143320   1.129   2.630   8.991  0.8323  1.3482  2.1853
 6375TIP3    H243321   1.123   2.729   8.878 -2.5047 -0.2656  0.8164
 6376TIP3   OH243322   3.234   1.512   9.588 -0.3238  0.6480  0.3455
 6376TIP3    H143323   3.253   1.540   9.677  0.2985  1.7639 -0.1124
 6376TIP3    H243324   3.164   1.570   9.558 -1.5322 -0.6397  0.5532
 6377TIP3   OH243325   0.800   3.459   7.848  0.2345  0.1663 -0.2629
 6377TIP3    H143326   0.790   3.474   7.754 -0.8614 -0.2604 -0.2308
 6377TIP3    H243327   0.872   3.396   7.855 -0.2805 -0.5020 -0.8756
 6378TIP3   OH243328   6.678   0.278   6.849 -0.2886  0.0069  0.6172
 6378TIP3    H143329   6.665   0.241   6.937 -1.1878  0.8417  0.8469
 6378TIP3    H243330   6.752   0.338   6.859  0.5422 -0.9692  0.4647
 6379TIP3   OH243331   2.921   4.502   8.405  0.3821 -0.5087 -0.2594
 6379TIP3    H143332   2.910   4.408   8.391  0.7124 -0.4881 -0.6824
 6379TIP3    H243333   2.913   4.540   8.317  1.6260 -0.2824 -0.2931
 6380TIP3   OH243334   4.198   3.685   9.614  0.4354 -0.2486 -0.4679
 6380TIP3    H143335   4.145   3.708   9.538  1.5716 -0.9687 -1.5197
 6380TIP3    H243336   4.287   3.677   9.579  0.8934 -1.1159  0.8321
 6381TIP3   OH243337   1.237   0.582   9.989  0.1962  0.5364 -0.1905
 6381TIP3    H143338   1.154   0.588  10.036 -0.2392 -1.4514 -0.5867
 6381TIP3    H243339   1.285   0.513  10.036  1.0456  0.6832 -0.8188
 6382TIP3   OH243340   4.752   2.977   7.768 -0.2250 -0.3112  0.4913
 6382TIP3    H143341   4.780   2.886   7.770 -0.1926 -0.2940  0.8629
 6382TIP3    H243342   4.660   2.973   7.741 -0.1551 -0.4355  0.2678
 6383TIP3   OH243343   4.844   1.042   7.872 -0.1631  0.4666  0.3391
 6383TIP3    H143344   4.890   1.028   7.789  1.5796  2.1239  0.9509
 6383TIP3    H243345   4.889   0.983   7.934 -1.8081 -1.1677  0.0538
 6384TIP3   OH243346   5.954   2.751   9.577 -0.1522  0.3895 -0.2400
 6384TIP3    H143347   5.902   2.673   9.558  0.3469 -0.5077  1.7638
 6384TIP3    H243348   5.890   2.817   9.605 -0.3423 -0.3684  1.1919
 6385TIP3   OH243349   3.182   5.116   9.962 -0.0816 -0.0806  0.5302
 6385TIP3    H143350   3.181   5.196   9.909 -0.5049  0.4632  1.3465
 6385TIP3    H243351   3.241   5.135  10.034 -1.0826 -0.0862  1.3628
 6386TIP3   OH243352   6.686   2.697  10.250  0.2643 -0.0641  0.1588
 6386TIP3    H143353   6.718   2.720  10.163  2.0909 -0.6961  0.6209
 6386TIP3    H243354   6.764   2.669  10.298 -0.5897  0.7568  2.1728
 6387TIP3   OH243355   6.200   5.905   7.517  0.0444 -0.0399  0.4393
 6387TIP3    H143356   6.269   5.860   7.564  0.6224  1.9186  1.5433
 6387TIP3    H243357   6.216   5.998   7.532 -0.8800  0.6139 -2.0482
 6388TIP3   OH243358   6.708   4.998   7.645  0.4953  0.1452 -0.1411
 6388TIP3    H143359   6.644   5.028   7.580  0.0065  0.7116  0.5984
 6388TIP3    H243360   6.678   4.912   7.671  0.7111 -0.0983 -0.6850
 6389TIP3   OH243361   6.457   5.530   7.496  0.3914 -0.1855 -0.0308
 6389TIP3    H143362   6.540   5.498   7.531  0.4113  0.1871  0.2714
 6389TIP3    H243363   6.463   5.625   7.502 -0.4922 -0.1736  1.0218
 6390TIP3   OH243364   3.738   1.994   8.776  0.1415 -0.2435  0.0727
 6390TIP3    H143365   3.680   1.995   8.700 -0.4728  0.7674  0.5325
 6390TIP3    H243366   3.822   1.963   8.742 -0.3985 -0.7720 -0.8019
 6391TIP3   OH243367   5.454   5.428   7.872  0.4671 -0.1935  0.0796
 6391TIP3    H143368   5.537   5.437   7.826  1.9497 -2.0410  2.2012
 6391TIP3    H243369   5.426   5.519   7.888  3.2433  0.5552  1.2619
 6392TIP3   OH243370   2.438   0.010   7.638 -0.4918  0.3479 -0.1714
 6392TIP3    H143371   2.375  -0.007   7.568 -1.2308  2.1483 -0.0093
 6392TIP3    H243372   2.514  -0.043   7.616 -1.8427 -1.4473 -0.6875
 6393TIP3   OH243373   6.240   1.010   7.108 -0.1860  0.2555 -0.1986
 6393TIP3    H143374   6.242   1.088   7.163  0.7640 -0.6583  1.1410
 6393TIP3    H243375   6.167   0.959   7.143 -1.0693  0.7015 -1.3397
 6394TIP3   OH243376   5.164   3.599   9.679 -0.5255 -0.3265  0.4475
 6394TIP3    H143377   5.119   3.523   9.642  0.2900 -1.0895  0.9726
 6394TIP3    H243378   5.162   3.665   9.610 -0.4164 -1.1588 -0.3668
 6395TIP3   OH243379   6.737   5.278   7.853  0.9051  0.1012 -0.5187
 6395TIP3    H143380   6.683   5.303   7.777  1.2405 -2.3747 -1.6982
 6395TIP3    H243381   6.711   5.188   7.871  1.1439  0.5022  2.1111
 6396TIP3   OH243382   4.270   4.756  16.594  0.3572  0.4132  0.4720
 6396TIP3    H143383   4.309   4.676  16.559 -2.2376 -0.5641 -0.4211
 6396TIP3    H243384   4.196   4.775  16.536 -0.3968  2.2607  1.9091
 6397TIP3   OH243385   2.959   1.023   7.227 -0.3938  0.2511 -0.1037
 6397TIP3    H143386   2.923   1.050   7.142  0.4047 -0.6993 -0.7773
 6397TIP3    H243387   2.883   0.995   7.278 -0.8826  0.8114 -0.5130
 6398TIP3   OH243388   3.480   6.410   6.814  0.0855  0.3330  0.1901
 6398TIP3    H143389   3.480   6.381   6.722 -0.2806  1.8661 -0.3287
 6398TIP3    H243390   3.548   6.357   6.856  0.1087 -0.5538 -0.9026
 6399TIP3   OH243391   1.321   4.579   6.697 -0.0707 -0.1268  0.5558
 6399TIP3    H143392   1.413   4.601   6.712  0.3139 -1.6069  0.4924
 6399TIP3    H243393   1.273   4.653   6.734  1.1570  1.5029 -0.9076
 6400TIP3   OH243394   4.418   6.014   6.969 -0.4463  0.2574 -0.7373
 6400TIP3    H143395   4.384   6.013   6.880 -0.9872 -0.0792 -0.5340
 6400TIP3    H243396   4.378   6.092   7.009 -1.2906 -0.3331 -0.3912
 6401TIP3   OH243397   3.170   0.829   7.272  0.4779  0.5316 -0.1371
 6401TIP3    H143398   3.098   0.892   7.273 -1.8979 -2.0175 -0.3375
 6401TIP3    H243399   3.179   0.801   7.363 -0.2181 -0.6793 -0.4354
 6402TIP3   OH243400   5.704   0.296   6.816  0.0360 -0.6920  0.5269
 6402TIP3    H143401   5.678   0.225   6.757  0.2224 -0.4311  0.1245
 6402TIP3    H243402   5.794   0.315   6.793 -0.1774  0.0329  0.2621
 6403TIP3   OH243403   0.314   1.487   8.025 -0.3050  0.1374  0.5459
 6403TIP3    H143404   0.293   1.530   8.107 -1.4528 -1.1098  0.9388
 6403TIP3    H243405   0.405   1.458   8.036  0.0481  1.2665  0.7634
 6404TIP3   OH243406   6.077   2.103   8.225 -0.0639 -0.8276  0.1643
 6404TIP3    H143407   6.171   2.090   8.241 -0.1751 -1.3337  0.4502
 6404TIP3    H243408   6.062   2.064   8.139 -0.3025 -2.2423  0.8098
 6405TIP3   OH243409   4.342   1.838   8.607 -0.7299  0.1479  0.1422
 6405TIP3    H143410   4.255   1.854   8.572  0.3847  2.1604 -1.9724
 6405TIP3    H243411   4.378   1.925   8.624  1.2325 -0.5724 -0.0299
 6406TIP3   OH243412   2.081   0.894   6.693  0.1795 -0.1655  0.0073
 6406TIP3    H143413   2.101   0.976   6.647  0.3140 -0.2903 -0.1566
 6406TIP3    H243414   2.113   0.825   6.635  0.1700 -0.3313  0.1979
 6407TIP3   OH243415   5.832   2.660   7.543 -0.1710  0.0290  0.3512
 6407TIP3    H143416   5.874   2.688   7.462  1.4863  0.8789  1.4368
 6407TIP3    H243417   5.778   2.585   7.518  2.3025 -1.3767 -1.1316
 6408TIP3   OH243418   4.855   5.174   8.941  0.9640 -0.0782  0.2038
 6408TIP3    H143419   4.941   5.177   8.982  1.3236 -2.1764 -0.2971
 6408TIP3    H243420   4.864   5.109   8.871 -0.6794  0.6076 -0.6843
 6409TIP3   OH243421   1.873   5.073   6.682  0.4248  0.2097  0.0768
 6409TIP3    H143422   1.879   5.104   6.592 -1.6422  0.8056  0.0967
 6409TIP3    H243423   1.795   5.018   6.684  0.6327 -0.0841  1.4335
 6410TIP3   OH243424   5.521   3.644   6.988  0.7358  0.3462 -0.3542
 6410TIP3    H143425   5.530   3.706   6.916 -0.7939  0.1780 -0.7094
 6410TIP3    H243426   5.540   3.559   6.949  0.0201  0.2687 -0.5458
 6411TIP3   OH243427   2.487   3.330   8.466 -0.9891  0.0057  0.6603
 6411TIP3    H143428   2.452   3.409   8.424 -0.9491 -0.1420  0.3462
 6411TIP3    H243429   2.563   3.306   8.414 -2.5523 -1.7959 -0.9313
 6412TIP3   OH243430   4.464   5.324   7.684  0.3266 -0.6747 -0.1902
 6412TIP3    H143431   4.560   5.329   7.687  0.2746  0.1208  0.9696
 6412TIP3    H243432   4.440   5.289   7.770 -0.5386  1.9356  0.7220
 6413TIP3   OH243433   4.892   0.569   6.515  0.4290 -0.4557 -0.0731
 6413TIP3    H143434   4.930   0.495   6.562  1.1927 -1.7222 -2.5184
 6413TIP3    H243435   4.822   0.531   6.462  0.2453  0.7295 -0.7203
 6414TIP3   OH243436   5.401   4.244   6.757 -0.0855 -0.4095 -0.4288
 6414TIP3    H143437   5.312   4.221   6.730 -0.5910  0.9573 -0.0054
 6414TIP3    H243438   5.440   4.286   6.681 -0.7397  1.3886  0.1701
 6415TIP3   OH243439   3.726   2.142   9.993 -0.3725 -0.0073  0.5630
 6415TIP3    H143440   3.765   2.055  10.001  1.8111  0.3511 -3.4520
 6415TIP3    H243441   3.777   2.197  10.052  2.2822 -0.4680 -1.1364
 6416TIP3   OH243442   0.274   4.361   6.799 -0.1660  0.0886  0.2997
 6416TIP3    H143443   0.324   4.280   6.788 -2.2550 -1.4897  1.6886
 6416TIP3    H243444   0.313   4.402   6.876 -0.2182 -0.5049  0.6497
 6417TIP3   OH243445   0.079   5.883   9.566  0.2642  0.2066 -0.0548
 6417TIP3    H143446   0.161   5.837   9.550 -0.6305 -1.2106 -0.8034
 6417TIP3    H243447   0.068   5.940   9.490  0.3520  0.0629 -0.1768
 6418TIP3   OH243448   0.276   2.726   8.394  0.4506 -0.0606  0.1452
 6418TIP3    H143449   0.336   2.797   8.370 -0.2049 -0.2519 -2.3479
 6418TIP3    H243450   0.201   2.771   8.433  0.8016  0.4512  0.2431
 6419TIP3   OH243451   4.721   2.237   7.687  0.8991 -0.0907 -0.3084
 6419TIP3    H143452   4.808   2.239   7.727  0.6613 -1.0236  0.2781
 6419TIP3    H243453   4.738   2.233   7.593  1.5080 -0.8666 -0.1757
 6420TIP3   OH243454   4.774   5.278   6.796 -0.4623 -0.3498  0.5735
 6420TIP3    H143455   4.688   5.265   6.756  0.5211 -1.6251 -1.2679
 6420TIP3    H243456   4.764   5.356   6.851 -3.0762 -1.1562  1.3642
 6421TIP3   OH243457   2.818   2.145   7.768  0.0554  0.0851  0.3158
 6421TIP3    H143458   2.879   2.210   7.804  1.0944  0.3738 -1.8052
 6421TIP3    H243459   2.738   2.194   7.753  1.0282  1.1226 -1.8635
 6422TIP3   OH243460   0.590   2.534  10.250 -0.0858  0.0549 -0.0012
 6422TIP3    H143461   0.682   2.551  10.271 -0.2585  1.2167 -0.1206
 6422TIP3    H243462   0.567   2.458  10.304  0.4546  0.8320  1.3755
 6423TIP3   OH243463   2.522   2.584   9.729  0.5404  0.4370 -0.1833
 6423TIP3    H143464   2.589   2.526   9.765  0.3413  0.8222  0.8297
 6423TIP3    H243465   2.535   2.579   9.634  1.0593 -0.6160 -0.0764
 6424TIP3   OH243466   3.774   4.651   8.698 -0.6075 -0.4750 -0.0138
 6424TIP3    H143467   3.754   4.741   8.673 -1.1331 -0.6821 -0.3659
 6424TIP3    H243468   3.727   4.598   8.634  0.3146 -1.0006 -0.2836
 6425TIP3   OH243469   2.111   2.600   9.523  0.5175 -0.4592  0.3095
 6425TIP3    H143470   2.103   2.622   9.431  0.6375 -3.1812 -0.4280
 6425TIP3    H243471   2.024   2.616   9.559  0.2541 -0.1366 -0.4494
 6426TIP3   OH243472   2.786   3.606  10.141 -0.3049  0.3932 -0.5763
 6426TIP3    H143473   2.806   3.551  10.217  0.5251  1.4263 -0.0200
 6426TIP3    H243474   2.703   3.572  10.108  0.1893 -1.1932 -0.2635
 6427TIP3   OH243475   0.634   0.840   7.365  0.3710  0.0717 -0.1529
 6427TIP3    H143476   0.664   0.782   7.294  0.5444  0.5872 -0.5097
 6427TIP3    H243477   0.705   0.903   7.375  0.1433  0.2732  0.1737
 6428TIP3   OH243478   0.626   1.840   8.581 -0.2851 -0.6494 -0.1285
 6428TIP3    H143479   0.588   1.762   8.621 -0.1971 -1.0517 -0.8311
 6428TIP3    H243480   0.639   1.817   8.489  1.7668 -0.5563  0.1081
 6429TIP3   OH243481   3.494   1.147   8.121  0.1470 -0.0886 -0.1491
 6429TIP3    H143482   3.571   1.158   8.177 -0.5092 -0.5606  0.8785
 6429TIP3    H243483   3.420   1.169   8.178 -0.5279 -0.4788 -0.8629
 6430TIP3   OH243484   6.156   4.498   9.705 -0.6664  0.5904 -0.3626
 6430TIP3    H143485   6.101   4.555   9.759 -0.7269  1.2246 -1.0798
 6430TIP3    H243486   6.102   4.475   9.630 -0.4283  0.0884 -0.3817
 6431TIP3   OH243487   4.744   5.712   7.977 -0.3533 -0.0831  0.2671
 6431TIP3    H143488   4.745   5.629   7.929  1.2988 -0.3930  0.7667
 6431TIP3    H243489   4.767   5.778   7.910  0.3099 -0.3000  0.2730
 6432TIP3   OH243490   2.319   3.927   7.838 -0.4622 -0.1453  0.2360
 6432TIP3    H143491   2.315   3.849   7.782 -1.3799 -0.4147  0.6641
 6432TIP3    H243492   2.286   3.997   7.782  1.2685  0.1507 -0.4710
 6433TIP3   OH243493   4.388   6.237   7.098  0.0234  0.2749  0.7035
 6433TIP3    H143494   4.471   6.232   7.147  1.2522  1.2039 -1.1550
 6433TIP3    H243495   4.401   6.311   7.038 -1.0357 -1.3181 -1.6103
 6434TIP3   OH243496   2.316   0.353   7.894 -0.2272 -0.3826 -0.5095
 6434TIP3    H143497   2.344   0.341   7.984 -0.4345  1.6901 -0.1294
 6434TIP3    H243498   2.272   0.270   7.872  1.2670 -1.5616  0.6861
 6435TIP3   OH243499   1.097   1.728   6.528  0.7524 -0.2102 -0.4167
 6435TIP3    H143500   1.078   1.786   6.455 -0.4676 -1.9932 -1.5931
 6435TIP3    H243501   1.069   1.776   6.605  2.8390  2.0622 -0.9633
 6436TIP3   OH243502   2.678   4.373   9.651  0.1203  0.3584  0.7720
 6436TIP3    H143503   2.766   4.383   9.685  0.0921  0.4002  0.8325
 6436TIP3    H243504   2.621   4.406   9.721 -0.0461 -1.4408  1.5432
 6437TIP3   OH243505   0.912   5.040   9.505  0.3028  0.0641  0.3735
 6437TIP3    H143506   0.965   5.028   9.584 -0.3559  1.8397  1.1484
 6437TIP3    H243507   0.879   5.130   9.512 -0.6603 -0.1056 -1.3961
 6438TIP3   OH243508   1.921   1.223   7.383  0.1324  0.5282  0.6314
 6438TIP3    H143509   1.940   1.273   7.304  2.5559 -1.4872 -0.1840
 6438TIP3    H243510   1.866   1.150   7.353  2.0622 -0.9388  0.4571
 6439TIP3   OH243511   1.144   3.042   9.426  0.3237 -0.3829  0.0274
 6439TIP3    H143512   1.093   3.014   9.502  1.0835 -1.8026  0.0548
 6439TIP3    H243513   1.092   3.014   9.351  0.1421 -0.0567  0.0289
 6440TIP3   OH243514   4.859   3.678   8.912  0.1002 -0.3277  0.1082
 6440TIP3    H143515   4.856   3.758   8.964  1.3218 -1.4150  1.9842
 6440TIP3    H243516   4.953   3.661   8.899 -0.1541 -0.9113 -1.1772
 6441TIP3   OH243517   1.184   4.926   9.017 -0.4903 -0.4363 -0.0761
 6441TIP3    H143518   1.199   4.886   8.931 -2.6278  0.6680 -1.0393
 6441TIP3    H243519   1.232   5.009   9.013  0.1105 -0.7730  0.1255
 6442TIP3   OH243520   1.960   6.052   8.694 -0.1284  0.0322  0.3851
 6442TIP3    H143521   1.967   6.077   8.786  0.7080 -0.2731  0.4145
 6442TIP3    H243522   2.049   6.028   8.669 -0.0451  1.5115 -0.9075
 6443TIP3   OH243523   5.275   2.985   8.924 -0.1149  0.2345  0.0213
 6443TIP3    H143524   5.186   2.953   8.911  0.1184  0.2534 -1.9399
 6443TIP3    H243525   5.325   2.907   8.950 -0.4792  0.0112  0.0520
 6444TIP3   OH243526   1.753   4.147   7.498  0.1557 -0.7041  0.0109
 6444TIP3    H143527   1.752   4.123   7.591  2.3771  1.0715  0.5783
 6444TIP3    H243528   1.823   4.093   7.460  0.1338 -0.4975 -0.3293
 6445TIP3   OH243529   4.247   5.831   7.104 -0.7106 -0.0782  0.1355
 6445TIP3    H143530   4.298   5.751   7.116 -1.5207 -0.7272 -0.5690
 6445TIP3    H243531   4.305   5.891   7.058  0.1656  0.0278  1.3411
 6446TIP3   OH243532   5.731   3.570   9.916 -0.2210  0.5368  0.5329
 6446TIP3    H143533   5.651   3.520   9.930 -0.6694  1.0736 -0.0268
 6446TIP3    H243534   5.701   3.650   9.873  0.9576 -0.7710 -3.0918
 6447TIP3   OH243535   3.980   0.229   7.506 -0.4965  0.1590  0.4669
 6447TIP3    H143536   3.892   0.261   7.523 -0.2264  1.3154 -0.2261
 6447TIP3    H243537   3.983   0.143   7.549 -2.1166 -0.1219  0.0852
 6448TIP3   OH243538   3.532   5.050   9.105 -0.7110 -0.1294  0.0549
 6448TIP3    H143539   3.513   5.009   9.190 -1.6136  0.9875  0.4208
 6448TIP3    H243540   3.449   5.049   9.059 -0.1026 -1.2274 -1.0738
 6449TIP3   OH243541   0.170   1.605   8.689  0.3446  0.6044  0.9935
 6449TIP3    H143542   0.231   1.678   8.675 -0.3536  0.9273 -0.6172
 6449TIP3    H243543   0.092   1.630   8.640 -0.1172 -0.9693  0.8726
 6450TIP3   OH243544   1.277   5.031   7.638  0.0682  0.0124  0.0491
 6450TIP3    H143545   1.277   5.086   7.716  0.6247 -0.2611  0.2478
 6450TIP3    H243546   1.282   5.093   7.565 -0.7193  0.2822  0.2106
 6451TIP3   OH243547   3.450   2.069   9.952 -0.7630 -0.0909  0.3125
 6451TIP3    H143548   3.536   2.068   9.994 -0.6460  0.2856  0.0773
 6451TIP3    H243549   3.435   2.160   9.928 -0.8277 -0.2962 -0.4668
 6452TIP3   OH243550   6.428   2.857   9.106  0.4839  0.1989 -0.4839
 6452TIP3    H143551   6.415   2.874   9.200 -2.8337 -0.7635 -0.6350
 6452TIP3    H243552   6.463   2.768   9.103 -1.2484 -0.5399 -0.1256
 6453TIP3   OH243553   5.287   3.987   9.575  0.8413  0.6026 -0.8007
 6453TIP3    H143554   5.341   4.038   9.636  0.9567 -0.2687 -0.1512
 6453TIP3    H243555   5.336   3.906   9.561 -0.9781 -0.9892  1.1472
 6454TIP3   OH243556   2.624   2.287  10.443  0.3368  0.5686  0.5361
 6454TIP3    H143557   2.565   2.302  10.369  1.5944  1.4464 -0.3242
 6454TIP3    H243558   2.585   2.338  10.515 -1.9856 -1.8442  1.1598
 6455TIP3   OH243559   0.001   4.504   8.155 -0.1887 -0.0180 -0.0800
 6455TIP3    H143560  -0.060   4.432   8.138 -0.3026  0.3088 -1.1458
 6455TIP3    H243561   0.000   4.514   8.250 -0.2812 -1.3230  0.0768
 6456TIP3   OH243562   0.550   6.049   8.623  0.1715  0.6433  0.3245
 6456TIP3    H143563   0.556   5.962   8.581 -1.6011  0.7246 -0.1868
 6456TIP3    H243564   0.544   6.110   8.550 -0.1292  1.0538  0.6880
 6457TIP3   OH243565   2.126   1.842   8.650  0.5552 -0.0985  0.2976
 6457TIP3    H143566   2.063   1.770   8.645  1.9901 -1.5315  1.4142
 6457TIP3    H243567   2.080   1.911   8.698  0.0028 -1.3631  1.6901
 6458TIP3   OH243568   0.724   6.217   8.983 -0.3019  0.0206  0.3652
 6458TIP3    H143569   0.817   6.207   9.005 -0.3111 -0.4507  0.2099
 6458TIP3    H243570   0.704   6.141   8.928 -0.6088  0.4804 -0.1777
 6459TIP3   OH243571   1.672   2.626   6.592 -0.6235  0.1030 -0.8033
 6459TIP3    H143572   1.696   2.558   6.529 -1.4519  1.0188 -2.1602
 6459TIP3    H243573   1.756   2.662   6.622 -0.0586 -2.7840  1.4944
 6460TIP3   OH243574   4.408   5.557   8.456  0.2604 -0.0432  0.7077
 6460TIP3    H143575   4.394   5.647   8.483  0.7259  0.3316 -0.2464
 6460TIP3    H243576   4.477   5.562   8.389 -0.8493 -0.9145 -0.5492
 6461TIP3   OH243577   6.767   5.201   9.313 -0.4892  0.4063 -0.1954
 6461TIP3    H143578   6.837   5.152   9.269 -1.0105 -0.4370 -0.1027
 6461TIP3    H243579   6.687   5.156   9.287 -0.7689 -0.5618  2.1815
 6462TIP3   OH243580   6.367   0.445   7.197 -0.8328  0.3978 -0.5752
 6462TIP3    H143581   6.337   0.384   7.266  0.4774  2.6217  2.1672
 6462TIP3    H243582   6.311   0.521   7.206 -0.6484  0.7362 -2.0582
 6463TIP3   OH243583   5.708   6.448   8.910  0.6040 -0.2878 -0.1829
 6463TIP3    H143584   5.642   6.423   8.844  0.5082 -0.0849 -0.1646
 6463TIP3    H243585   5.784   6.473   8.858  1.1001 -1.6920 -0.1849
 6464TIP3   OH243586   0.406   3.880   8.307 -0.0087 -0.1879 -0.2256
 6464TIP3    H143587   0.379   3.909   8.220 -0.5915  1.8332  0.5583
 6464TIP3    H243588   0.375   3.949   8.366  0.5957 -1.3643  1.5621
 6465TIP3   OH243589   2.908   5.046   7.624  0.4402  0.0978  0.6222
 6465TIP3    H143590   2.952   4.961   7.616 -1.5542 -1.0485  1.1119
 6465TIP3    H243591   2.876   5.064   7.535 -0.4175 -0.4426  0.8024
 6466TIP3   OH243592   1.110   5.334   9.065  0.6496 -0.1163 -0.2961
 6466TIP3    H143593   1.041   5.401   9.063 -0.0435 -0.8304 -0.7867
 6466TIP3    H243594   1.110   5.301   9.154 -0.2974 -0.7637 -0.5218
 6467TIP3   OH243595   2.122   1.066   7.896  0.2030  0.7444  0.3399
 6467TIP3    H143596   2.145   0.986   7.849  0.9920  1.4034 -0.4465
 6467TIP3    H243597   2.195   1.125   7.878  0.1653  1.2688  1.8197
 6468TIP3   OH243598   2.290   2.077   9.466 -0.4718 -0.7637  0.4312
 6468TIP3    H143599   2.240   2.141   9.518 -0.1016  1.2103 -1.4918
 6468TIP3    H243600   2.349   2.036   9.529 -1.0716  0.4334  1.8390
 6469TIP3   OH243601   1.987   3.635   9.453  0.2800  0.5042 -0.1362
 6469TIP3    H143602   1.924   3.640   9.381  0.0348 -0.7257 -0.0249
 6469TIP3    H243603   1.940   3.672   9.528 -0.7977 -1.5261  0.2438
 6470TIP3   OH243604   0.836   5.812   7.409 -0.1843  0.4527  0.0227
 6470TIP3    H143605   0.754   5.804   7.360 -1.1961  3.5801  0.9775
 6470TIP3    H243606   0.816   5.873   7.480  2.4682 -0.2766  1.5440
 6471TIP3   OH243607   2.292   6.178   6.877 -0.0514 -0.1243 -0.3980
 6471TIP3    H143608   2.353   6.214   6.813 -0.9946 -0.3490 -1.4579
 6471TIP3    H243609   2.283   6.248   6.943  0.7195  0.2218 -0.6523
 6472TIP3   OH243610   1.483   5.415   6.812  0.7614 -0.2103 -0.6041
 6472TIP3    H143611   1.391   5.396   6.797  0.3144  0.9277  0.5845
 6472TIP3    H243612   1.510   5.355   6.881  0.8052 -0.2639 -0.6673
 6473TIP3   OH243613   4.951   2.748   7.866 -0.2005  0.5526 -0.2842
 6473TIP3    H143614   4.998   2.680   7.819 -1.2170  0.6273 -1.4722
 6473TIP3    H243615   5.014   2.819   7.877  0.8013 -0.4636  0.7679
 6474TIP3   OH243616   4.807   2.216   6.821 -0.4555  0.4575 -0.4637
 6474TIP3    H143617   4.868   2.289   6.811 -0.7818  1.1367  1.9852
 6474TIP3    H243618   4.725   2.256   6.850 -0.8581 -0.7888  0.2091
 6475TIP3   OH243619   5.950   6.160   8.015 -0.3267  0.1394  0.2950
 6475TIP3    H143620   5.978   6.125   8.099 -0.0732 -1.5224 -0.4482
 6475TIP3    H243621   6.005   6.237   8.001  1.0487 -0.7505  0.7181
 6476TIP3   OH243622   1.462   4.806   7.636 -0.1760 -0.4521  0.1878
 6476TIP3    H143623   1.405   4.763   7.699 -0.4940 -0.4695 -0.1042
 6476TIP3    H243624   1.409   4.878   7.601  0.1910 -0.1042  0.3412
 6477TIP3   OH243625   3.107   5.949   8.059  0.5614  0.1425 -0.4184
 6477TIP3    H143626   3.064   6.035   8.058 -0.1312 -0.2043 -1.5431
 6477TIP3    H243627   3.199   5.969   8.076  0.1926  0.9948  0.7377
 6478TIP3   OH243628   3.958   5.077   7.210  0.7100 -0.3282  0.2961
 6478TIP3    H143629   3.963   5.041   7.298  0.3837 -0.0628  0.4260
 6478TIP3    H243630   4.044   5.061   7.172  1.1645  0.4062  0.9910
 6479TIP3   OH243631   2.173   3.140   6.893  0.1110 -0.2465  0.0552
 6479TIP3    H143632   2.112   3.088   6.840  0.1362  0.2720 -0.4874
 6479TIP3    H243633   2.118   3.177   6.962 -0.5111  1.4261 -1.2839
 6480TIP3   OH243634   4.051   5.404   8.427 -1.0518  0.1894  0.0000
 6480TIP3    H143635   3.992   5.414   8.501 -0.7226 -3.2124  0.8850
 6480TIP3    H243636   4.130   5.365   8.465  1.1244  2.8703 -1.4426
 6481TIP3   OH243637   4.411   0.604   8.501 -0.1093 -1.0298 -0.0454
 6481TIP3    H143638   4.497   0.632   8.532 -0.2420 -1.7640  1.0379
 6481TIP3    H243639   4.354   0.609   8.578 -0.7554 -1.6906 -0.4641
 6482TIP3   OH243640   5.942   4.618   7.752  0.1507  0.2496 -0.0133
 6482TIP3    H143641   5.976   4.658   7.672  1.4223 -0.4955  0.1263
 6482TIP3    H243642   5.853   4.591   7.730  0.4309  0.1950 -1.1253
 6483TIP3   OH243643   0.045   3.036   8.400 -0.1800 -0.2406 -0.2198
 6483TIP3    H143644  -0.008   3.018   8.478 -0.5036 -0.0287 -0.3871
 6483TIP3    H243645   0.026   2.965   8.340  1.3004 -1.2960  0.4990
 6484TIP3   OH243646   4.534   5.208   9.649  0.7531 -0.0727 -0.2699
 6484TIP3    H143647   4.477   5.262   9.704 -0.2898 -1.6130  0.2432
 6484TIP3    H243648   4.492   5.121   9.649  2.1438 -0.7905 -1.3679
 6485TIP3   OH243649   4.723   5.428   8.964  0.0540  0.1484  0.2620
 6485TIP3    H143650   4.766   5.356   8.918  0.4131  0.3383  0.2992
 6485TIP3    H243651   4.644   5.445   8.913  0.8585  0.9137 -0.7704
 6486TIP3   OH243652   1.484   3.445   9.466 -0.5002 -0.6064  0.4848
 6486TIP3    H143653   1.536   3.428   9.388  0.3684  0.7588  0.7471
 6486TIP3    H243654   1.410   3.385   9.458  0.6251 -1.9527 -0.3411
 6487TIP3   OH243655   3.412   4.644   7.455 -0.0786 -0.1048 -0.1124
 6487TIP3    H143656   3.426   4.724   7.403 -0.5636  0.0802  0.0423
 6487TIP3    H243657   3.355   4.672   7.527  1.1855 -0.1796  0.9624
 6488TIP3   OH243658   2.586   2.588  10.048  0.3336  0.1477  0.2889
 6488TIP3    H143659   2.492   2.571  10.051  0.0369  1.5795 -0.0330
 6488TIP3    H243660   2.627   2.501  10.052 -0.8692 -0.3967  3.7343
 6489TIP3   OH243661   4.139   4.226   8.620 -0.4064  0.4324  0.3590
 6489TIP3    H143662   4.114   4.299   8.678 -1.2895  0.4281 -0.0006
 6489TIP3    H243663   4.134   4.263   8.532  0.4779  0.3086  0.2509
 6490TIP3   OH243664   3.006   5.753   8.218  0.1446 -0.1597  0.4696
 6490TIP3    H143665   3.024   5.820   8.151 -1.9971 -1.2070 -1.2757
 6490TIP3    H243666   3.061   5.679   8.193  0.1426 -0.1665  0.4870
 6491TIP3   OH243667   1.200   2.327   8.476 -0.9542 -0.8111 -0.1432
 6491TIP3    H143668   1.230   2.398   8.532 -3.6156  1.6632 -1.6259
 6491TIP3    H243669   1.137   2.279   8.530 -0.1849 -1.2298  0.4025
 6492TIP3   OH243670   3.423   5.037   8.735 -0.6882 -0.5185  0.2992
 6492TIP3    H143671   3.388   5.005   8.819 -1.4725  0.1193  0.2274
 6492TIP3    H243672   3.387   5.125   8.727 -1.1716 -0.8241 -1.0280
 6493TIP3   OH243673   1.178   1.237   7.572 -0.1257 -0.2580 -0.3206
 6493TIP3    H143674   1.266   1.254   7.537 -0.0247  0.3433  0.2079
 6493TIP3    H243675   1.184   1.150   7.611  0.1268 -0.3856 -0.6427
 6494TIP3   OH243676   1.453   2.231   7.502  0.2529 -0.6188 -0.1944
 6494TIP3    H143677   1.505   2.191   7.433  0.2014 -0.0778 -0.5537
 6494TIP3    H243678   1.469   2.325   7.493 -0.4372 -0.4765 -0.0306
 6495TIP3   OH243679   6.308   1.946   7.397  0.2403 -0.0840 -0.4695
 6495TIP3    H143680   6.255   2.014   7.440  0.3930 -0.0784 -0.2901
 6495TIP3    H243681   6.338   1.988   7.317 -0.0270 -0.0865 -0.5727
 6496TIP3   OH243682   0.063   1.811   8.502 -0.4320 -0.3928 -0.3997
 6496TIP3    H143683   0.137   1.871   8.494 -0.6713 -0.2852 -2.3866
 6496TIP3    H243684   0.001   1.856   8.559  0.0435  0.5779 -0.6305
 6497TIP3   OH243685   1.327   0.352   9.436  0.0835  0.5256 -0.0917
 6497TIP3    H143686   1.310   0.335   9.529 -0.1044  1.7886  0.1234
 6497TIP3    H243687   1.405   0.408   9.435 -0.7510  1.7452 -0.5764
 6498TIP3   OH243688   2.320   5.139   8.828 -0.2570 -0.3790  0.1615
 6498TIP3    H143689   2.409   5.119   8.796 -0.1231  1.5099 -0.8086
 6498TIP3    H243690   2.325   5.231   8.855 -1.4762 -0.7789  1.8336
 6499TIP3   OH243691   2.914   2.634   9.058  0.1247 -0.0539  0.3789
 6499TIP3    H143692   2.844   2.685   9.098 -0.3617  0.8750 -1.5244
 6499TIP3    H243693   2.912   2.550   9.104  0.1801  1.1766  2.8208
 6500TIP3   OH243694   6.134   3.915   6.780  0.1583  0.3116  0.2265
 6500TIP3    H143695   6.217   3.916   6.829  0.4454 -2.2234 -0.0510
 6500TIP3    H243696   6.141   3.988   6.719  2.3052  0.0355  0.0577
 6501TIP3   OH243697   2.378   1.476   6.842 -0.5113 -0.0962 -0.5306
 6501TIP3    H143698   2.441   1.428   6.789 -0.8144 -0.3249 -0.6854
 6501TIP3    H243699   2.404   1.568   6.833  0.6107 -0.2888  0.4731
 6502TIP3   OH243700   2.969   2.262   6.832 -0.0642  0.0578 -0.3925
 6502TIP3    H143701   3.003   2.335   6.884 -0.5924  1.0217 -1.3602
 6502TIP3    H243702   3.042   2.237   6.775  0.5589 -1.0873  0.8519
 6503TIP3   OH243703   5.029   5.807   7.744 -0.1288  0.3525  0.2356
 6503TIP3    H143704   4.948   5.855   7.726 -1.0099 -0.8020  1.0519
 6503TIP3    H243705   5.056   5.773   7.659 -0.4272  0.8532 -0.0640
 6504TIP3   OH243706   4.604   3.716   8.478 -0.2156 -0.4172  0.5572
 6504TIP3    H143707   4.542   3.653   8.442 -0.3971 -1.2765  2.2687
 6504TIP3    H243708   4.683   3.665   8.494 -0.2672 -0.1490  1.6988
 6505TIP3   OH243709   2.967   6.098   7.420 -0.2930  0.3072  0.3975
 6505TIP3    H143710   2.961   6.193   7.424  0.3769  0.3048  3.0599
 6505TIP3    H243711   2.897   6.066   7.476 -1.1614 -0.8717 -1.2501
 6506TIP3   OH243712   1.109   6.561   7.439 -0.7561  0.2582  0.4675
 6506TIP3    H143713   1.060   6.491   7.482 -1.3010 -0.0999 -0.6849
 6506TIP3    H243714   1.175   6.515   7.387 -2.1970  0.4514 -1.6463
 6507TIP3   OH243715   4.441   2.516   7.666 -0.8481  0.2761  0.6756
 6507TIP3    H143716   4.426   2.427   7.698 -0.4175 -0.2400 -0.5119
 6507TIP3    H243717   4.517   2.547   7.715  0.2248 -0.7532 -0.2648
 6508TIP3   OH243718   6.740   5.236   6.848 -0.8789  0.8345  0.0786
 6508TIP3    H143719   6.727   5.248   6.754 -3.0494 -0.3583  0.1674
 6508TIP3    H243720   6.780   5.318   6.877 -0.0475  1.1798 -1.8652
 6509TIP3   OH243721   0.113   0.551   9.821 -0.2280 -0.0754 -0.5600
 6509TIP3    H143722   0.147   0.589   9.740  0.4806 -1.3601 -0.8925
 6509TIP3    H243723   0.189   0.539   9.877 -0.3346 -1.3873 -0.6414
 6510TIP3   OH243724   3.878   1.922   6.443 -0.3307  0.0633 -0.0691
 6510TIP3    H143725   3.837   1.926   6.529 -0.5841 -1.7057 -0.0738
 6510TIP3    H243726   3.807   1.939   6.381 -0.3894  0.1836  0.0319
 6511TIP3   OH243727   6.229   4.816   6.569  0.3238 -0.2005  0.4241
 6511TIP3    H143728   6.152   4.803   6.513  0.6865 -2.3798  0.3527
 6511TIP3    H243729   6.196   4.802   6.658  0.2243  1.0109  0.5978
 6512TIP3   OH243730   1.812   0.110   9.279  0.2275 -0.2670  0.0984
 6512TIP3    H143731   1.830   0.204   9.284 -0.0119 -0.2785  1.9421
 6512TIP3    H243732   1.797   0.093   9.186  0.2757  1.5160 -0.2651
 6513TIP3   OH243733   4.042   5.642   8.755 -0.6263 -0.2319 -0.0833
 6513TIP3    H143734   4.016   5.665   8.666 -1.8058 -1.2026 -0.0219
 6513TIP3    H243735   4.080   5.554   8.747  0.7647  0.3317  0.1465
 6514TIP3   OH243736   1.098   0.621   6.897  0.3430  0.6804 -0.0874
 6514TIP3    H143737   1.025   0.588   6.844  0.3988  1.5979 -0.7509
 6514TIP3    H243738   1.100   0.715   6.879  0.9597  0.8560  0.8294
 6515TIP3   OH243739   0.541   5.668   7.817  0.0401  0.6519  0.1838
 6515TIP3    H143740   0.590   5.589   7.795  0.8634  1.1499  0.2017
 6515TIP3    H243741   0.518   5.657   7.909  0.9947  0.8694  0.4547
 6516TIP3   OH243742   3.019   6.227   8.027  0.5137  0.5737 -0.1428
 6516TIP3    H143743   2.931   6.265   8.024 -0.1787 -0.9781 -0.5987
 6516TIP3    H243744   3.077   6.302   8.040 -1.0910  1.3927  3.9325
 6517TIP3   OH243745   0.874   0.904   9.308 -0.2568 -0.5407 -0.1344
 6517TIP3    H143746   0.935   0.833   9.288 -0.5561 -1.0573  0.7214
 6517TIP3    H243747   0.862   0.949   9.225  2.3269  0.4153 -0.0959
 6518TIP3   OH243748   1.847   2.878   8.903 -0.5181  0.5245 -0.8304
 6518TIP3    H143749   1.754   2.890   8.922  0.1666  1.9751  2.0436
 6518TIP3    H243750   1.877   2.965   8.875  0.6998  1.1316  2.0790
 6519TIP3   OH243751   4.073   5.535   9.518  0.0111  0.1905  0.1262
 6519TIP3    H143752   4.155   5.517   9.563 -0.3668  0.1068  0.7923
 6519TIP3    H243753   4.099   5.555   9.428  0.6717 -1.1455 -0.0177
 6520TIP3   OH243754   1.506   2.253   8.652 -0.0042  0.2796  0.0667
 6520TIP3    H143755   1.472   2.185   8.710  1.4486 -0.1501  0.4562
 6520TIP3    H243756   1.464   2.236   8.567 -0.7574 -0.1951  0.5202
 6521TIP3   OH243757   0.616   4.885   6.806 -0.0385  0.7507  0.7830
 6521TIP3    H143758   0.633   4.806   6.755  0.0159  0.9033  0.5615
 6521TIP3    H243759   0.702   4.924   6.820 -0.1672  1.3679 -0.0859
 6522TIP3   OH243760   3.305   4.981   8.983  0.4128 -0.1296  1.0262
 6522TIP3    H143761   3.305   4.896   9.026  0.2138 -0.9534 -0.5357
 6522TIP3    H243762   3.226   4.980   8.928  1.7905 -0.0508 -1.0659
 6523TIP3   OH243763   2.794   3.228   9.628  0.0095  0.4087 -0.5857
 6523TIP3    H143764   2.752   3.309   9.598  1.3678  0.6820 -1.8519
 6523TIP3    H243765   2.866   3.258   9.684  0.2387  0.0565 -0.6921
 6524TIP3   OH243766   4.670   3.271   8.454 -0.1123  0.8034 -0.2397
 6524TIP3    H143767   4.610   3.336   8.416 -0.6777  1.0497  1.0471
 6524TIP3    H243768   4.614   3.208   8.497  0.4703 -0.2560 -0.9804
 6525TIP3   OH243769   0.140   6.362   7.269  0.0818  0.0419  0.0183
 6525TIP3    H143770   0.109   6.377   7.358 -0.9593  0.5237 -0.4026
 6525TIP3    H243771   0.181   6.445   7.244  1.2917 -0.4255  0.3910
 6526TIP3   OH243772   3.304   5.258   9.628 -0.5893  0.4523 -0.0263
 6526TIP3    H143773   3.238   5.282   9.692 -0.3675 -0.3595  0.5240
 6526TIP3    H243774   3.372   5.325   9.636 -0.6524  0.4592  0.4462
 6527TIP3   OH243775   0.267   2.670   7.552 -0.5708 -0.5902  0.3915
 6527TIP3    H143776   0.307   2.589   7.519  1.1281  0.2036  0.4055
 6527TIP3    H243777   0.333   2.737   7.537 -1.5366  0.6190  1.3468
 6528TIP3   OH243778   0.354   3.599   7.586 -0.2220  0.3566 -0.3901
 6528TIP3    H143779   0.417   3.640   7.646  1.1946 -1.5222 -0.5137
 6528TIP3    H243780   0.316   3.527   7.637 -0.0241 -0.3977 -1.2807
 6529TIP3   OH243781   1.313   6.632   8.288 -0.6912  0.5605  0.4337
 6529TIP3    H143782   1.264   6.557   8.253 -0.6417  0.8602 -0.2895
 6529TIP3    H243783   1.396   6.594   8.317 -0.3350  0.4553 -0.6826
 6530TIP3   OH243784   3.781   5.857   9.650  0.3510  0.0468  0.2273
 6530TIP3    H143785   3.691   5.858   9.685 -0.3551  0.8752 -1.4745
 6530TIP3    H243786   3.771   5.826   9.560  1.9023 -0.5712  0.2436
 6531TIP3   OH243787   3.370   0.221   8.983 -0.5063  0.0193 -0.6845
 6531TIP3    H143788   3.400   0.130   8.982 -0.3027  0.0793 -1.5384
 6531TIP3    H243789   3.305   0.225   9.052  1.9655  0.0535  1.8108
 6532TIP3   OH243790   3.933   6.299   7.329  0.3685  0.0587  0.3120
 6532TIP3    H143791   3.903   6.241   7.399 -0.4895 -0.8745 -0.7872
 6532TIP3    H243792   4.021   6.268   7.309 -0.0858 -0.9021 -0.2703
 6533TIP3   OH243793   0.616   4.280   8.826  0.4031  1.1478 -0.1376
 6533TIP3    H143794   0.681   4.284   8.756 -0.0483  1.0789 -0.5670
 6533TIP3    H243795   0.538   4.243   8.785  0.0613  1.3067  0.3502
 6534TIP3   OH243796   6.159   1.241   8.471  0.6392  0.1959 -0.0113
 6534TIP3    H143797   6.073   1.276   8.494  0.2552 -1.0382  0.5080
 6534TIP3    H243798   6.221   1.295   8.520  0.0187 -0.3004  1.3676
 6535TIP3   OH243799   3.869   3.438   7.671 -0.0153  0.0198 -0.2010
 6535TIP3    H143800   3.869   3.486   7.588  0.5656  1.3395  0.5252
 6535TIP3    H243801   3.782   3.452   7.708 -0.5011 -1.1219 -0.8708
 6536TIP3   OH243802   3.026   2.336   7.148 -0.2948 -0.1492 -0.2696
 6536TIP3    H143803   2.989   2.415   7.110 -0.9494 -0.2634  0.1180
 6536TIP3    H243804   3.108   2.322   7.100 -0.0345  0.9126 -0.1621
 6537TIP3   OH243805   1.260   2.535   8.685  0.3452 -0.1026  0.1489
 6537TIP3    H143806   1.305   2.587   8.619 -0.5091 -0.1486 -0.4878
 6537TIP3    H243807   1.258   2.591   8.763  0.3456  0.4119 -0.2208
 6538TIP3   OH243808   1.153   3.574   7.751 -0.1042 -0.0187  0.2031
 6538TIP3    H143809   1.191   3.552   7.667 -1.6884 -1.0648 -0.2820
 6538TIP3    H243810   1.176   3.501   7.809  1.3089  0.8776  0.8257
 6539TIP3   OH243811   5.748   2.503   8.997  0.2411 -0.1297 -0.2708
 6539TIP3    H143812   5.792   2.526   8.915 -0.1191 -1.3150 -0.8320
 6539TIP3    H243813   5.666   2.462   8.969 -0.0474 -0.2385  0.6954
 6540TIP3   OH243814   6.167   1.367   6.622 -0.1281 -0.3052  0.1772
 6540TIP3    H143815   6.245   1.420   6.603 -0.0541 -0.8161 -1.0287
 6540TIP3    H243816   6.191   1.279   6.594 -1.2846 -0.3761 -0.6401
 6541TIP3   OH243817   2.437   6.760   7.231 -0.3951 -0.7903 -0.7370
 6541TIP3    H143818   2.477   6.692   7.286  0.0317  0.1331  0.1149
 6541TIP3    H243819   2.357   6.784   7.278 -0.0564 -0.0352 -0.5325
 6542TIP3   OH243820   3.166   1.978   8.816  0.1080 -0.0993  0.5816
 6542TIP3    H143821   3.133   1.928   8.891 -1.8163  1.0827  0.6079
 6542TIP3    H243822   3.115   1.946   8.742 -0.6907  1.3038  0.4855
 6543TIP3   OH243823   1.595   0.115   9.464 -0.4658  0.9728  0.4171
 6543TIP3    H143824   1.622   0.190   9.518 -0.1402  2.0747 -1.1954
 6543TIP3    H243825   1.662   0.110   9.396 -2.3003  1.3856 -1.4838
 6544TIP3   OH243826   1.630   5.934   8.203  0.0997 -0.5828 -0.1390
 6544TIP3    H143827   1.629   5.854   8.255 -0.9475 -0.2144  0.4301
 6544TIP3    H243828   1.558   5.987   8.238  1.5223  1.1488  0.3512
 6545TIP3   OH243829   0.566   2.619   9.798 -0.4330  0.3117  0.1411
 6545TIP3    H143830   0.619   2.681   9.847  1.7879 -2.3367  1.3308
 6545TIP3    H243831   0.485   2.610   9.849 -0.9977  2.4340 -0.2888
 6546TIP3   OH243832   1.378   1.845   6.360 -0.2035  0.0189 -0.1853
 6546TIP3    H143833   1.298   1.849   6.309 -0.0458 -2.3835 -0.7302
 6546TIP3    H243834   1.387   1.933   6.397 -2.0165  0.9076 -1.6792
 6547TIP3   OH243835   3.980   0.946   7.923 -0.2204 -0.0589  0.1403
 6547TIP3    H143836   4.019   1.031   7.942 -0.9176  0.4792 -0.7169
 6547TIP3    H243837   3.926   0.926   7.999 -0.3858  0.4647  0.1597
 6548TIP3   OH243838   1.156   2.247   7.721 -0.3557 -0.3772  0.3609
 6548TIP3    H143839   1.250   2.246   7.702 -0.6685 -2.2133 -1.5419
 6548TIP3    H243840   1.143   2.322   7.779  2.3045 -0.2217  0.8637
 6549TIP3   OH243841   6.332   0.136   9.110 -0.0568  0.0050  0.4957
 6549TIP3    H143842   6.353   0.099   9.024 -1.2788  0.0421  0.1588
 6549TIP3    H243843   6.241   0.164   9.102 -0.1950 -0.0132  1.8176
 6550TIP3   OH243844   1.974   5.129   7.296  0.5119  0.1281 -0.2801
 6550TIP3    H143845   2.062   5.161   7.279  0.8274 -1.5363 -2.1732
 6550TIP3    H243846   1.944   5.095   7.212 -0.7824 -2.0123  0.9387
 6551TIP3   OH243847   1.768   2.604   9.418 -0.0611 -0.1169  0.4631
 6551TIP3    H143848   1.680   2.577   9.394  0.6918 -0.4659 -2.2491
 6551TIP3    H243849   1.789   2.674   9.356  2.2379 -1.3641 -0.2923
 6552TIP3   OH243850   2.828   3.574   6.728 -0.2913  0.5891  0.1437
 6552TIP3    H143851   2.791   3.491   6.697 -0.7695  1.2456 -1.1246
 6552TIP3    H243852   2.790   3.640   6.670  0.8760  1.5803  0.4671
 6553TIP3   OH243853   1.701   3.045   6.720  0.3142  0.0129  0.3991
 6553TIP3    H143854   1.645   2.968   6.721  0.9152 -0.4388  1.7877
 6553TIP3    H243855   1.659   3.106   6.780 -0.1455  0.7908 -0.6716
 6554TIP3   OH243856   6.624   4.532   7.550  0.0727 -0.2589 -0.3043
 6554TIP3    H143857   6.543   4.532   7.601  0.1620  0.0330 -0.1640
 6554TIP3    H243858   6.612   4.462   7.486 -0.8632  0.6671 -1.1803
 6555TIP3   OH243859   5.325   3.721   7.412 -0.6938 -0.6270  0.1805
 6555TIP3    H143860   5.231   3.742   7.411 -0.2285  1.6655 -0.8511
 6555TIP3    H243861   5.337   3.664   7.336 -1.6616 -3.3368  1.9204
 6556TIP3   OH243862   1.292   0.105   6.731  0.5961  0.7674  0.3503
 6556TIP3    H143863   1.376   0.079   6.770  2.3116  0.3474 -3.1854
 6556TIP3    H243864   1.284   0.198   6.752  1.4189  0.5761  1.6290
 6557TIP3   OH243865   0.017   2.432   7.323 -0.1998  0.7397 -0.4476
 6557TIP3    H143866  -0.011   2.510   7.275  0.5837  0.6040 -1.1521
 6557TIP3    H243867  -0.032   2.435   7.405 -2.3140  0.4814 -1.6253
 6558TIP3   OH243868   3.133   4.432   7.150 -0.2780 -0.3749  0.1926
 6558TIP3    H143869   3.190   4.360   7.175  0.9702  1.3246  2.7333
 6558TIP3    H243870   3.185   4.511   7.166 -2.9426  1.2364  1.7174
 6559TIP3   OH243871   6.176   1.002   7.413  0.2677 -0.3077  0.3377
 6559TIP3    H143872   6.170   1.087   7.457  2.2077 -0.1509  0.3832
 6559TIP3    H243873   6.248   0.958   7.457 -0.5439 -1.9050  0.1437
 6560TIP3   OH243874   2.638   5.110   6.473 -0.3024 -0.5135  0.0612
 6560TIP3    H143875   2.675   5.046   6.535  1.9010 -0.9214 -1.5344
 6560TIP3    H243876   2.616   5.057   6.396 -0.0833  0.3990 -0.6360
 6561TIP3   OH243877   4.644   5.415   8.434  0.1943 -0.6252  0.0202
 6561TIP3    H143878   4.569   5.406   8.493  1.4090  0.0868  1.7581
 6561TIP3    H243879   4.688   5.330   8.437 -0.5338 -1.0725 -1.0700
 6562TIP3   OH243880   2.225   0.058   7.795 -0.2053 -1.0103 -0.2077
 6562TIP3    H143881   2.198  -0.024   7.835  0.1215 -0.6861  0.7020
 6562TIP3    H243882   2.318   0.046   7.774 -0.2201 -0.9651 -0.3004
 6563TIP3   OH243883   6.103   4.374   7.749 -0.3736 -0.3277 -0.3867
 6563TIP3    H143884   6.034   4.439   7.734  0.3302  0.5277 -0.0112
 6563TIP3    H243885   6.138   4.397   7.835  1.4166  0.2261 -1.2168
 6564TIP3   OH243886   6.450   2.165   8.814  0.3221 -0.0142  0.1192
 6564TIP3    H143887   6.482   2.151   8.725 -0.1402  1.5544 -0.3321
 6564TIP3    H243888   6.357   2.140   8.811  0.0342  1.0412 -0.1383
 6565TIP3   OH243889   2.692   2.480   7.018  0.1766 -0.6886  0.5227
 6565TIP3    H143890   2.761   2.439   6.966  0.6697  0.6549  0.0629
 6565TIP3    H243891   2.724   2.477   7.108 -0.2642 -2.1937  0.6616
 6566TIP3   OH243892   4.597   2.354   7.175  0.1421 -0.1612  0.1276
 6566TIP3    H143893   4.646   2.285   7.221 -0.6617 -1.1292 -0.4395
 6566TIP3    H243894   4.514   2.360   7.222 -0.6458 -1.0874 -1.0884
 6567TIP3   OH243895   0.906   5.340   7.913 -0.0719  0.2349 -0.2383
 6567TIP3    H143896   0.837   5.299   7.966  0.1336  2.2536  1.7074
 6567TIP3    H243897   0.985   5.291   7.935  0.6610  2.8743  3.9267
 6568TIP3   OH243898   4.238   3.281   8.818  0.0998  0.4677 -0.8913
 6568TIP3    H143899   4.146   3.253   8.813  0.5144 -0.9742 -0.8928
 6568TIP3    H243900   4.288   3.200   8.816  1.4845  1.2726 -2.8069
 6569TIP3   OH243901   2.067   5.568   7.448 -0.0939  0.2934  0.1750
 6569TIP3    H143902   2.094   5.489   7.496  0.2456 -0.5188 -1.2884
 6569TIP3    H243903   1.972   5.572   7.458 -0.2556 -0.9541 -0.6407
 6570TIP3   OH243904   4.981   6.640   6.536  0.2150  0.3911 -0.0019
 6570TIP3    H143905   5.058   6.601   6.578 -0.4762 -1.0538 -0.0097
 6570TIP3    H243906   5.018   6.700   6.471  1.3062  2.0340  2.0159
 6571TIP3   OH243907   0.360   1.363   9.871  0.1430  0.6055 -0.2318
 6571TIP3    H143908   0.412   1.299   9.919  0.6934 -0.3355 -1.9701
 6571TIP3    H243909   0.410   1.380   9.791 -1.3114  1.0688 -1.0995
 6572TIP3   OH243910   4.216   0.244   9.462  0.0148  0.1066  0.5095
 6572TIP3    H143911   4.207   0.338   9.446 -0.1945 -0.1381 -0.9730
 6572TIP3    H243912   4.164   0.229   9.541 -0.7861  1.0829  0.2052
 6573TIP3   OH243913   1.901   1.806   7.092 -0.0787 -0.7759 -0.0538
 6573TIP3    H143914   1.815   1.804   7.134  0.2956  0.3626  0.8272
 6573TIP3    H243915   1.887   1.853   7.010  0.1026  1.5684  1.1759
 6574TIP3   OH243916   0.748   5.566   7.500  0.1846  0.2148 -0.1381
 6574TIP3    H143917   0.672   5.606   7.542  0.1253 -1.0505  1.0307
 6574TIP3    H243918   0.814   5.636   7.499 -0.5536  0.9365  0.0074
 6575TIP3   OH243919   3.925   0.988   8.924  0.1235  0.4327 -0.0156
 6575TIP3    H143920   3.893   0.899   8.911  0.4249  0.1855  0.8392
 6575TIP3    H243921   4.019   0.978   8.938 -0.1240  0.6525  2.1296
 6576TIP3   OH243922   2.416   4.928   6.815 -0.7849 -0.0037 -0.0951
 6576TIP3    H143923   2.333   4.951   6.775  0.2274 -0.0028 -2.3650
 6576TIP3    H243924   2.453   4.860   6.758  0.5845 -0.3057  1.0720
 6577TIP3   OH243925   3.339   2.314  10.005  0.0329  0.0239  0.1157
 6577TIP3    H143926   3.260   2.273  10.040  0.7658 -0.6366  1.0391
 6577TIP3    H243927   3.397   2.325  10.080  1.4492 -0.9789 -0.7590
 6578TIP3   OH243928   0.824   2.877   7.253  0.5648  0.8767 -0.1645
 6578TIP3    H143929   0.788   2.790   7.271  0.9398  0.6754 -0.3756
 6578TIP3    H243930   0.821   2.923   7.337 -3.9323  2.3072 -0.8336
 6579TIP3   OH243931   1.571   4.334   7.618  0.0254 -0.0486  0.4189
 6579TIP3    H143932   1.505   4.265   7.627 -1.8515  1.4634 -1.0488
 6579TIP3    H243933   1.644   4.292   7.572 -1.8040 -0.6987 -2.0666
 6580TIP3   OH243934   0.664   6.019   7.960 -0.1549 -0.2454 -0.2960
 6580TIP3    H143935   0.713   5.937   7.964  0.1537 -0.0561 -0.1879
 6580TIP3    H243936   0.661   6.049   8.051 -0.1481 -0.0647 -0.3556
 6581TIP3   OH243937   6.699   6.054   7.100 -0.5198  0.3070 -0.4567
 6581TIP3    H143938   6.700   6.078   7.193 -1.7472 -1.2664  0.0108
 6581TIP3    H243939   6.677   6.134   7.054 -1.8198  0.6918  0.7791
 6582TIP3   OH243940   1.447   1.996   8.750 -0.2969  0.0786 -0.3954
 6582TIP3    H143941   1.435   1.961   8.838 -0.2385 -0.0342 -0.4322
 6582TIP3    H243942   1.383   1.949   8.697 -0.0617 -0.1394 -0.4902
 6583TIP3   OH243943   2.552   1.253   8.225  0.1633  0.3838 -0.2478
 6583TIP3    H143944   2.467   1.213   8.206 -0.9041  2.1342  0.5207
 6583TIP3    H243945   2.588   1.199   8.296 -0.1605 -0.5488 -0.7714
 6584TIP3   OH243946   3.007   1.165   8.458 -0.3850 -0.0973 -0.7289
 6584TIP3    H143947   3.043   1.101   8.520  0.0431  0.4873 -0.3656
 6584TIP3    H243948   3.057   1.245   8.474 -2.7939  1.2499  0.8799
 6585TIP3   OH243949   6.045   3.447   6.790 -0.2067 -0.0733 -0.2763
 6585TIP3    H143950   6.069   3.524   6.738  0.9132 -0.9319 -1.0811
 6585TIP3    H243951   6.100   3.377   6.755  0.1987 -0.8121  1.7192
 6586TIP3   OH243952   0.511   4.508   7.411  0.1150 -0.1326 -0.0181
 6586TIP3    H143953   0.542   4.447   7.344 -0.1384 -0.4184  0.1204
 6586TIP3    H243954   0.445   4.459   7.459 -0.9834  0.6508 -0.6739
 6587TIP3   OH243955   1.076   0.079   8.129  0.0035 -0.3491  0.0585
 6587TIP3    H143956   1.077   0.111   8.039  0.5377  0.7421  0.4312
 6587TIP3    H243957   1.064  -0.016   8.121 -0.0139 -0.2581 -1.1488
 6588TIP3   OH243958   0.962   2.397   7.520  0.1070 -0.1094  0.1040
 6588TIP3    H143959   1.021   2.336   7.476  0.4732 -0.3703  0.9512
 6588TIP3    H243960   0.944   2.357   7.605 -1.7791 -0.3473 -0.3401
 6589TIP3   OH243961   0.601   5.661   8.664 -0.1347 -0.1617 -0.0600
 6589TIP3    H143962   0.535   5.691   8.602 -0.5871 -1.2063 -0.1106
 6589TIP3    H243963   0.576   5.571   8.683  1.0344 -0.4337  0.2573
 6590TIP3   OH243964   2.312   3.970   9.298 -0.1547  0.1935  0.2320
 6590TIP3    H143965   2.388   3.913   9.306 -0.9196 -0.9119 -0.1166
 6590TIP3    H243966   2.244   3.927   9.350 -0.9120  0.4860 -0.4957
 6591TIP3   OH243967   0.753   4.159   7.047 -0.2052 -0.4357 -0.4104
 6591TIP3    H143968   0.825   4.098   7.026  1.1715  0.6258  0.9960
 6591TIP3    H243969   0.695   4.109   7.104 -0.2181 -1.0815 -0.9765
 6592TIP3   OH243970   0.567   3.310   6.866 -0.3841  0.1248  0.3313
 6592TIP3    H143971   0.572   3.298   6.771  1.1337 -0.2482  0.4313
 6592TIP3    H243972   0.488   3.262   6.893 -2.0007  1.9360 -0.9616
 6593TIP3   OH243973   6.227   2.724   9.523 -0.1656  0.6484 -0.6119
 6593TIP3    H143974   6.243   2.664   9.596  0.4189 -1.0196 -2.0506
 6593TIP3    H243975   6.132   2.736   9.522 -0.3539 -0.7087 -0.6243
 6594TIP3   OH243976   6.000   6.012   8.236  0.4305  0.1421  0.2021
 6594TIP3    H143977   6.028   6.052   8.318 -1.8129  0.0569  1.0677
 6594TIP3    H243978   5.907   5.996   8.247  0.5746 -2.3254 -1.3737
 6595TIP3   OH243979   2.626   2.677   7.779  0.1229  0.0084  0.0773
 6595TIP3    H143980   2.576   2.742   7.829 -1.1265 -0.9385  0.0960
 6595TIP3    H243981   2.696   2.651   7.839  0.4257  1.0409  0.2056
 6596TIP3   OH243982   1.836   0.019   9.040 -0.3028 -0.2011 -0.4012
 6596TIP3    H143983   1.909  -0.009   8.985  0.1442 -0.3723  0.2710
 6596TIP3    H243984   1.765   0.037   8.978 -0.2231 -1.6514 -0.9426
 6597TIP3   OH243985   2.290   0.710   8.648  0.6432  0.3831 -0.4784
 6597TIP3    H143986   2.363   0.719   8.586  0.8976 -0.0446 -0.2424
 6597TIP3    H243987   2.246   0.630   8.622  2.6254 -1.6098  1.7934
 6598TIP3   OH243988   0.716   0.957   7.981 -0.5234 -0.5165 -0.0484
 6598TIP3    H143989   0.770   1.003   8.046 -2.7762  0.3387  1.3151
 6598TIP3    H243990   0.700   1.022   7.914 -0.0920 -0.6989 -0.3346
 6599TIP3   OH243991   5.838   2.530   9.475  0.4057  0.3998  0.1120
 6599TIP3    H143992   5.762   2.510   9.530 -0.1368  0.5242 -0.5848
 6599TIP3    H243993   5.907   2.474   9.508 -1.0380 -2.7537 -1.8103
 6600TIP3   OH243994   1.687   2.237   9.011 -0.3063  0.4081  0.1796
 6600TIP3    H143995   1.774   2.256   9.045  0.2168  0.6247 -1.2017
 6600TIP3    H243996   1.641   2.195   9.083  0.6608  1.0607  1.2048
 6601TIP3   OH243997   5.000   5.736   8.660  0.2929 -0.2103 -0.0477
 6601TIP3    H143998   5.023   5.754   8.569  0.6053  0.0727  0.0835
 6601TIP3    H243999   4.952   5.814   8.689  1.2411  0.2367  0.3826
 6602TIP3   OH244000   0.454   2.947   8.321 -0.2096  0.3383 -0.1714
 6602TIP3    H144001   0.504   2.979   8.395 -1.1960  1.3552  0.0795
 6602TIP3    H244002   0.507   2.875   8.285  0.5279  0.1791  1.1768
 6603TIP3   OH244003   3.500   6.005   8.685 -0.5216  0.1727  0.2536
 6603TIP3    H144004   3.439   6.001   8.611  1.3244  0.2784 -1.3333
 6603TIP3    H244005   3.507   6.098   8.705 -1.0923  0.1371  0.6521
 6604TIP3   OH244006   4.222   1.094   9.470  0.0678  0.4200  0.5717
 6604TIP3    H144007   4.310   1.107   9.504  0.3585 -0.6028  0.2319
 6604TIP3    H244008   4.176   1.048   9.541  1.1968 -3.4273 -0.9458
 6605TIP3   OH244009   6.232   3.110   8.657  0.4190 -0.1141 -0.8236
 6605TIP3    H144010   6.303   3.168   8.685  1.8126 -1.3110 -1.7670
 6605TIP3    H244011   6.276   3.037   8.614 -1.2756 -1.9030  0.2931
 6606TIP3   OH244012   6.689   5.729   8.281 -0.3201 -0.6835 -0.2637
 6606TIP3    H144013   6.748   5.715   8.206 -0.4679 -0.9466 -0.3336
 6606TIP3    H244014   6.602   5.708   8.247 -0.4260 -0.5146 -0.0982
 6607TIP3   OH244015   2.687   3.659   7.686 -0.3469  0.0813 -0.0609
 6607TIP3    H144016   2.648   3.598   7.749  2.2446 -1.2469  0.3888
 6607TIP3    H244017   2.702   3.606   7.607 -1.6332  1.2044 -1.1129
 6608TIP3   OH244018   1.703   5.072   7.355 -0.7304  0.5159 -0.3616
 6608TIP3    H144019   1.790   5.108   7.336 -0.3160 -0.4773 -0.4073
 6608TIP3    H244020   1.687   5.095   7.446  0.1554 -0.4069  0.0429
 6609TIP3   OH244021   2.850   6.563   9.896 -0.3397  0.5146 -0.3120
 6609TIP3    H144022   2.925   6.590   9.949 -1.8402  3.0736  0.6946
 6609TIP3    H244023   2.817   6.483   9.938  2.0034 -0.9464 -1.0680
 6610TIP3   OH244024   5.796   0.064  16.896  0.2296 -0.3295  0.0763
 6610TIP3    H144025   5.762   0.008  16.966  1.1277  0.5202  1.2604
 6610TIP3    H244026   5.842   0.005  16.837 -0.8343 -1.1106  0.0119
 6611TIP3   OH244027   5.973   6.469   7.776 -0.6023 -0.0672 -0.1683
 6611TIP3    H144028   5.953   6.520   7.698 -1.0085  0.1043  0.0438
 6611TIP3    H244029   5.914   6.394   7.772 -0.2448 -0.3411 -0.3040
 6612TIP3   OH244030   6.374   5.971   9.589 -0.4702 -0.4188 -0.1241
 6612TIP3    H144031   6.409   6.032   9.654  2.0635 -1.1629 -0.6788
 6612TIP3    H244032   6.340   5.897   9.640  1.0412 -0.7665  0.4177
 6613TIP3   OH244033   1.406   3.801   6.784 -0.0283 -0.1898  0.4210
 6613TIP3    H144034   1.408   3.862   6.859 -1.4711  2.7407 -1.7123
 6613TIP3    H244035   1.335   3.741   6.803 -1.4802  1.5515  0.7617
 6614TIP3   OH244036   2.858   3.517   7.264  0.6979  0.5132 -0.5531
 6614TIP3    H144037   2.944   3.550   7.290  0.3938 -0.0043  1.1913
 6614TIP3    H244038   2.874   3.427   7.236  0.6881  0.2853  0.1466
 6615TIP3   OH244039   2.021   0.477   8.035  0.1354 -0.1989 -0.2292
 6615TIP3    H144040   2.072   0.501   7.957  0.1165 -0.6502 -0.3822
 6615TIP3    H244041   1.930   0.492   8.010  0.0914 -0.8492 -0.4810
 6616TIP3   OH244042   1.140   5.759   6.689 -0.0671  0.0087  0.0038
 6616TIP3    H144043   1.157   5.672   6.653 -0.1702 -1.5087  3.2764
 6616TIP3    H244044   1.047   5.758   6.710 -0.0777  0.9584  0.0453
 6617TIP3   OH244045   2.953   4.385   9.740  0.3954 -0.4567  0.1243
 6617TIP3    H144046   3.030   4.355   9.787  0.0611 -1.7235 -0.1000
 6617TIP3    H244047   2.956   4.480   9.746  2.2498 -0.4597 -0.3241
 6618TIP3   OH244048   3.338   1.938   7.426 -0.2369 -0.4867  0.0031
 6618TIP3    H144049   3.390   1.875   7.476 -1.7187 -1.2432  0.6510
 6618TIP3    H244050   3.387   1.951   7.345  1.5542 -0.2436  1.0782
 6619TIP3   OH244051   1.703   4.000   9.632  0.6259  0.1777 -0.7177
 6619TIP3    H144052   1.667   4.011   9.720 -0.4521 -0.7452 -1.0125
 6619TIP3    H244053   1.789   4.040   9.636  1.2455 -1.1758  1.2000
 6620TIP3   OH244054   5.506   1.820   7.211 -0.0248 -0.2207  0.9678
 6620TIP3    H144055   5.529   1.863   7.129  1.8441  2.1236  2.5918
 6620TIP3    H244056   5.410   1.825   7.214 -0.0177  1.5279 -0.1488
 6621TIP3   OH244057   4.392   4.155   8.707  0.0813  0.0362 -0.3518
 6621TIP3    H144058   4.311   4.201   8.686  0.6497  0.9171 -0.6555
 6621TIP3    H244059   4.378   4.066   8.675 -0.1094  0.6358 -2.0189
 6622TIP3   OH244060   5.495   5.590   7.539 -0.1285 -0.3928  0.3169
 6622TIP3    H144061   5.460   5.555   7.458 -0.8765  1.7373 -0.3473
 6622TIP3    H244062   5.427   5.650   7.571  0.6069 -0.3593  1.9411
 6623TIP3   OH244063   5.369   2.869   8.651  0.5436 -0.1585  0.2979
 6623TIP3    H144064   5.386   2.914   8.568  0.0928 -0.2417  0.1617
 6623TIP3    H244065   5.454   2.870   8.696  0.9650 -0.7494 -0.4633
 6624TIP3   OH244066   4.539   3.221   7.612 -0.6344  0.0616  0.3904
 6624TIP3    H144067   4.534   3.181   7.525  1.3885 -2.8278  1.4668
 6624TIP3    H244068   4.503   3.156   7.671  3.2578 -0.6624  2.2996
 6625TIP3   OH244069   3.607   5.479   6.902  0.1248  0.0192 -0.3499
 6625TIP3    H144070   3.560   5.497   6.821  0.3297 -1.1794 -0.7529
 6625TIP3    H244071   3.693   5.448   6.874  0.9209  1.4884  0.3687
 6626TIP3   OH244072   1.796   1.478   8.411  0.1761  0.2201  0.2576
 6626TIP3    H144073   1.788   1.491   8.316  0.6337  0.1984  0.2116
 6626TIP3    H244074   1.712   1.505   8.446 -0.2703 -0.5019 -0.2280
 6627TIP3   OH244075   3.570   2.401   7.441 -0.1699 -0.4251 -0.4008
 6627TIP3    H144076   3.610   2.346   7.509  1.3861  0.4712 -0.5457
 6627TIP3    H244077   3.643   2.429   7.387 -1.2535 -0.2276 -1.8312
 6628TIP3   OH244078   1.580   0.446   9.851 -0.8474  0.7347 -0.0284
 6628TIP3    H144079   1.645   0.376   9.859  0.8407  1.8423 -2.5457
 6628TIP3    H244080   1.502   0.411   9.893 -0.1843 -2.7808 -1.3410
 6629TIP3   OH244081   3.815   3.778   8.914 -0.4707 -0.3286 -0.0001
 6629TIP3    H144082   3.736   3.725   8.924 -2.1091  2.1701  1.3816
 6629TIP3    H244083   3.800   3.854   8.970  0.7079  2.7429 -3.4838
 6630TIP3   OH244084   3.883   4.418   9.458 -0.0721  0.0456 -0.5689
 6630TIP3    H144085   3.957   4.371   9.419 -0.2609 -0.3444 -0.4546
 6630TIP3    H244086   3.923   4.495   9.498  0.1949  0.1577 -1.0466
 6631TIP3   OH244087   6.677   3.574   6.811 -0.5467  0.1892 -0.2888
 6631TIP3    H144088   6.720   3.568   6.725  0.8716  1.7205  0.2817
 6631TIP3    H244089   6.691   3.487   6.849  1.0336  0.2626 -0.6095
 6632TIP3   OH244090   3.913   1.905   6.968 -0.0586  0.1142  0.2322
 6632TIP3    H144091   3.909   1.843   6.896 -0.8442  0.2633  0.1469
 6632TIP3    H244092   4.002   1.894   7.004 -0.1155 -0.8949  0.0852
 6633TIP3   OH244093   3.584   1.726   6.875 -0.5274  0.6765  0.0274
 6633TIP3    H144094   3.515   1.660   6.881 -0.8950  0.7151 -2.5537
 6633TIP3    H244095   3.613   1.740   6.965 -0.5413 -2.8591  0.6948
 6634TIP3   OH244096   3.426   5.532   7.511  0.1880  0.3010 -0.5742
 6634TIP3    H144097   3.494   5.529   7.443  1.0533 -1.2311  0.3041
 6634TIP3    H244098   3.344   5.535   7.462  0.7829 -0.9297 -1.7011
 6635TIP3   OH244099   2.609   1.826   7.311  0.7789  0.1095  0.3655
 6635TIP3    H144100   2.573   1.913   7.297  0.3913  0.2613  2.1105
 6635TIP3    H244101   2.684   1.839   7.369  1.5694 -0.5819 -0.4680
 6636TIP3   OH244102   4.804   5.554   9.834 -0.3673  0.3191  0.5018
 6636TIP3    H144103   4.787   5.552   9.740  2.4397  0.6913 -0.0970
 6636TIP3    H244104   4.846   5.639   9.849  0.1091 -0.1339  1.9019
 6637TIP3   OH244105   1.917   4.688   7.684 -0.2651  0.1011 -0.6867
 6637TIP3    H144106   1.915   4.680   7.779 -0.8191 -2.4312 -0.8362
 6637TIP3    H244107   1.832   4.653   7.655 -0.0338  0.6503 -2.1349
 6638TIP3   OH244108   4.662   3.466   7.490 -0.8700 -0.6448 -0.0444
 6638TIP3    H144109   4.706   3.458   7.575 -1.4659 -0.1964  0.3222
 6638TIP3    H244110   4.611   3.385   7.482 -1.5138 -0.3047  0.4555
 6639TIP3   OH244111   6.661   2.543   8.140 -0.1855 -0.1579  0.4512
 6639TIP3    H144112   6.590   2.506   8.087  0.2874  0.2173 -0.4638
 6639TIP3    H244113   6.684   2.474   8.202 -1.1631 -0.3795  0.5783
 6640TIP3   OH244114   4.774   0.930   9.322 -0.2715 -0.6173 -0.4891
 6640TIP3    H144115   4.812   0.884   9.247 -0.2790  0.1776 -0.9916
 6640TIP3    H244116   4.795   1.023   9.306  0.3041 -0.5072  0.8239
 6641TIP3   OH244117   3.758   3.538   7.180  0.5915  0.8639 -0.5495
 6641TIP3    H144118   3.764   3.581   7.095  0.1095 -0.0541 -1.0714
 6641TIP3    H244119   3.718   3.453   7.160  1.4243  0.2247  0.4480
 6642TIP3   OH244120   0.439   0.996   9.752 -0.5318  0.6853  0.2574
 6642TIP3    H144121   0.477   1.044   9.826 -0.8450  1.0455  0.1875
 6642TIP3    H244122   0.449   0.904   9.775 -1.0552  0.7999  0.9650
 6643TIP3   OH244123   5.945   4.645   9.599  0.2758  0.0961 -0.1470
 6643TIP3    H144124   5.859   4.643   9.558  0.7398  1.6058 -1.2963
 6643TIP3    H244125   5.930   4.683   9.686 -0.4750 -1.6042  0.5246
 6644TIP3   OH244126   0.383   2.915   7.618  0.4293  0.2440 -0.1667
 6644TIP3    H144127   0.450   2.934   7.684 -0.4636 -0.2984  0.9282
 6644TIP3    H244128   0.306   2.964   7.647  0.2502  0.6175 -1.2474
 6645TIP3   OH244129   0.480   5.711   7.542  0.3499 -0.3228  0.2752
 6645TIP3    H144130   0.490   5.719   7.637 -0.1599  0.7170  0.2535
 6645TIP3    H244131   0.389   5.734   7.525 -0.0035 -2.0477 -0.3248
 6646TIP3   OH244132   2.023   2.409   8.708 -0.2033  0.4583 -0.3429
 6646TIP3    H144133   1.941   2.387   8.751  0.0889 -0.5130 -0.2701
 6646TIP3    H244134   2.030   2.504   8.718  1.0916  0.1303  4.0675
 6647TIP3   OH244135   4.291   3.584   7.524  0.3269 -0.2764 -0.0671
 6647TIP3    H144136   4.316   3.640   7.451 -0.8630  1.7629  0.9922
 6647TIP3    H244137   4.230   3.637   7.575 -3.1760 -3.5255 -0.4608
 6648TIP3   OH244138   1.511   2.090   8.210  0.2972  0.2149  0.1627
 6648TIP3    H144139   1.566   2.045   8.274  0.6231 -0.0600 -0.3022
 6648TIP3    H244140   1.421   2.066   8.235  0.4837 -1.4784 -0.6166
 6649TIP3   OH244141   1.596   2.756   9.662 -0.3896  0.0155  0.1321
 6649TIP3    H144142   1.664   2.690   9.669 -0.4298 -0.0810 -0.3338
 6649TIP3    H244143   1.606   2.792   9.573 -0.3693  0.6288  0.3782
 6650TIP3   OH244144   5.613   4.430   9.535 -0.4569  0.5233  0.5084
 6650TIP3    H144145   5.607   4.396   9.624  1.0336 -0.7823  0.1699
 6650TIP3    H244146   5.536   4.395   9.490  0.3177 -1.3785  0.5480
 6651TIP3   OH244147   3.030   2.940   7.760  0.2288  0.3974 -0.0657
 6651TIP3    H144148   3.061   2.854   7.786 -0.8424 -0.1466 -0.5420
 6651TIP3    H244149   3.003   2.930   7.669  2.2970  1.8300 -0.9115
 6652TIP3   OH244150   2.728   2.590   8.889  0.0661  0.8171  0.3372
 6652TIP3    H144151   2.805   2.599   8.945  0.2029 -0.4486  0.3716
 6652TIP3    H244152   2.693   2.679   8.882  0.4191  1.1037  1.8972
 6653TIP3   OH244153   1.428   2.521   7.931 -0.0753  0.1140 -0.0916
 6653TIP3    H144154   1.469   2.473   8.003  0.9132  1.3316  0.1909
 6653TIP3    H244155   1.434   2.462   7.856  1.0152 -0.2618  0.2716
 6654TIP3   OH244156   0.098   4.854   8.818 -0.3089  0.0367 -0.4748
 6654TIP3    H144157   0.067   4.781   8.872 -0.8119 -0.5657 -1.5496
 6654TIP3    H244158   0.085   4.931   8.872 -0.2882 -0.6038  0.4738
 6655TIP3   OH244159   0.522   5.744   8.149 -0.3315 -0.1023  0.3072
 6655TIP3    H144160   0.499   5.658   8.115 -0.2196  0.3545 -1.0098
 6655TIP3    H244161   0.490   5.805   8.083 -0.6501  0.8885  1.3506
 6656TIP3   OH244162   0.886   5.754   8.657  0.2247  0.4879  0.5598
 6656TIP3    H144163   0.795   5.727   8.667 -0.0334  1.0112 -0.2980
 6656TIP3    H244164   0.920   5.699   8.586  0.5745  0.3172  0.8552
 6657TIP3   OH244165   1.562   0.500   6.539 -0.1879  0.0142 -0.0266
 6657TIP3    H144166   1.620   0.425   6.537 -0.8330 -0.5452 -3.0735
 6657TIP3    H244167   1.482   0.468   6.581 -0.3478 -0.9758 -1.0294
 6658TIP3   OH244168   3.948   5.696   6.909 -0.3891 -0.0847 -0.1824
 6658TIP3    H144169   3.886   5.750   6.860  1.3531  0.9625 -1.3526
 6658TIP3    H244170   3.932   5.719   7.001 -0.1593  1.9459 -0.6118
 6659TIP3   OH244171   2.446   3.882   9.693  0.1287  0.4976 -0.2664
 6659TIP3    H144172   2.369   3.902   9.747  1.4688 -0.3529  2.1221
 6659TIP3    H244173   2.504   3.957   9.708  1.0638 -0.3763  0.6393
 6660TIP3   OH244174   1.398   5.647   6.980  0.2916 -0.2930 -0.3740
 6660TIP3    H144175   1.481   5.673   7.020  0.1568 -2.3640  1.4156
 6660TIP3    H244176   1.422   5.606   6.897  0.9149  0.3644 -0.5275
 6661TIP3   OH244177   1.478   3.509   9.892  0.4398  0.1408  0.4776
 6661TIP3    H144178   1.487   3.605   9.898 -0.6472  0.2393  0.6190
 6661TIP3    H244179   1.555   3.476   9.938  2.0228  0.9274 -1.4391
 6662TIP3   OH244180   6.342   3.723   7.711  0.1503  0.2889 -0.0735
 6662TIP3    H144181   6.361   3.693   7.622 -0.6202  0.6368 -0.3582
 6662TIP3    H244182   6.425   3.758   7.743  0.9426 -1.5591  0.0485
 6663TIP3   OH244183   6.742   0.247   8.650 -0.3838  0.3132 -0.1114
 6663TIP3    H144184   6.739   0.245   8.554  0.3766  1.5326 -0.1857
 6663TIP3    H244185   6.665   0.299   8.675 -0.1254  0.7006 -0.1122
 6664TIP3   OH244186   0.096   4.752   7.216  0.3660  0.5156 -0.0358
 6664TIP3    H144187   0.095   4.734   7.310 -0.5802  3.1864  0.5475
 6664TIP3    H244188   0.169   4.812   7.204 -0.1127  0.9451 -0.8456
 6665TIP3   OH244189   4.742   2.620   7.079 -0.1265 -0.1624  0.2537
 6665TIP3    H144190   4.700   2.645   6.996  0.7625 -0.4767 -0.3066
 6665TIP3    H244191   4.672   2.580   7.130 -1.0463  1.3442  0.2512
 6666TIP3   OH244192   5.677   5.186   8.421 -0.0643  0.2860 -0.3238
 6666TIP3    H144193   5.692   5.275   8.454  2.8659 -0.1407 -0.1772
 6666TIP3    H244194   5.746   5.173   8.356  1.0532 -2.5666  1.2299
 6667TIP3   OH244195   6.763   3.078   9.510  0.1177  0.3845  0.5017
 6667TIP3    H144196   6.689   3.032   9.550  1.2997 -0.1646  2.1556
 6667TIP3    H244197   6.780   3.030   9.429  0.1988 -1.0102  1.3243
 6668TIP3   OH244198   2.938   2.096   7.542  0.1498  0.1105 -0.4364
 6668TIP3    H144199   2.894   2.101   7.627 -0.0976 -2.6377 -0.3121
 6668TIP3    H244200   2.914   2.010   7.508  1.9749  0.2788 -2.3404
 6669TIP3   OH244201   0.279   1.790   6.345  0.1876 -0.1008  0.2228
 6669TIP3    H144202   0.215   1.853   6.379  1.0628  0.7037  0.4217
 6669TIP3    H244203   0.352   1.844   6.315  1.7933 -1.0845  2.1456
 6670TIP3   OH244204   6.732   4.109   7.893 -0.0943 -0.0500  0.2298
 6670TIP3    H144205   6.823   4.080   7.901  0.0278  0.8778  4.4218
 6670TIP3    H244206   6.695   4.099   7.981 -4.5471 -1.6337 -1.5154
 6671TIP3   OH244207   2.084   4.067   9.738 -0.1115 -0.2151 -0.0409
 6671TIP3    H144208   2.035   4.103   9.664  0.3114  0.5861  0.0617
 6671TIP3    H244209   2.068   4.129   9.809 -0.4474 -0.9319  0.5315
 6672TIP3   OH244210   5.955   1.200   7.884  0.2812 -0.5439 -0.0780
 6672TIP3    H144211   5.899   1.185   7.808 -0.0113 -1.4474  0.3069
 6672TIP3    H244212   5.895   1.232   7.951  0.7966  1.9799 -0.7084
 6673TIP3   OH244213   4.645   3.746   9.788  0.5265  0.1292  0.2595
 6673TIP3    H144214   4.710   3.802   9.831 -1.7471  3.4698 -0.2519
 6673TIP3    H244215   4.581   3.727   9.856 -1.1334  2.2716 -0.5810
 6674TIP3   OH244216   0.288   3.676   9.121  0.0463  0.0594  0.4475
 6674TIP3    H144217   0.340   3.709   9.195  0.2901  0.3476  0.1499
 6674TIP3    H244218   0.326   3.590   9.102  0.0588  0.0341  0.5870
 6675TIP3   OH244219   0.771   2.348   7.053 -0.1282 -0.0630  0.3166
 6675TIP3    H144220   0.736   2.401   7.125 -0.6362 -0.1957  0.1747
 6675TIP3    H244221   0.834   2.289   7.094 -1.6898 -1.3595  0.9527
 6676TIP3   OH244222   4.006   3.722   7.221  0.1622  0.1132 -0.1745
 6676TIP3    H144223   4.097   3.714   7.248 -0.3276 -0.7521  1.2898
 6676TIP3    H244224   3.957   3.733   7.302 -1.1525 -0.4828 -0.8575
 6677TIP3   OH244225   2.194   4.615   7.580  0.0564 -0.1652  0.4846
 6677TIP3    H144226   2.227   4.680   7.642 -2.1796  2.2438 -0.6511
 6677TIP3    H244227   2.099   4.616   7.593 -0.1237 -2.7142 -0.1114
 6678TIP3   OH244228   4.512   5.322   8.209 -0.3060 -0.3197  0.3579
 6678TIP3    H144229   4.583   5.342   8.270 -1.1786  0.3755  1.1871
 6678TIP3    H244230   4.443   5.287   8.265 -0.9312 -0.1752 -0.3118
 6679TIP3   OH244231   2.378   2.688   7.005  0.9028  0.1617  0.3984
 6679TIP3    H144232   2.447   2.679   7.071  1.3440  1.0508  0.0741
 6679TIP3    H244233   2.370   2.601   6.967  0.9390 -0.2658  1.3289
 6680TIP3   OH244234   1.183   2.507   8.259 -0.7668  0.4809  0.3415
 6680TIP3    H144235   1.278   2.521   8.258 -0.5877 -0.6005 -0.1055
 6680TIP3    H244236   1.170   2.438   8.324 -1.0951 -0.1691 -0.3874
 6681TIP3   OH244237   5.594   4.374   8.411  0.5855 -0.0189 -0.4639
 6681TIP3    H144238   5.502   4.349   8.421  1.0245 -1.9757 -0.9144
 6681TIP3    H244239   5.602   4.455   8.461 -0.7238 -1.3574  2.1720
 6682TIP3   OH244240   1.500   1.216   7.888  0.0430 -0.6681 -0.3901
 6682TIP3    H144241   1.475   1.164   7.812  0.7568 -0.3491 -0.8512
 6682TIP3    H244242   1.525   1.151   7.954 -1.9524 -1.0100  0.1118
 6683TIP3   OH244243   6.132   0.946   8.368  0.1767 -0.3522 -0.6904
 6683TIP3    H144244   6.112   0.863   8.325 -0.3345 -0.0625 -1.0226
 6683TIP3    H244245   6.049   0.994   8.368 -0.0813 -0.6823  1.4001
 6684TIP3   OH244246   1.277   6.535   7.779 -0.5357  0.2931  0.5280
 6684TIP3    H144247   1.287   6.499   7.691  0.3089  1.1445  0.2643
 6684TIP3    H244248   1.349   6.497   7.829  0.6295  1.8953  0.1352
 6685TIP3   OH244249   1.232   0.998   7.683 -0.0504  0.2987 -0.2009
 6685TIP3    H144250   1.174   0.969   7.754  0.0868 -1.4188 -0.7493
 6685TIP3    H244251   1.320   0.981   7.716  0.0154 -0.4510 -0.7572
 6686TIP3   OH244252   1.130   3.109   9.965 -0.2295 -0.0242  0.1472
 6686TIP3    H144253   1.106   3.189  10.012  1.1741  1.4862 -1.5403
 6686TIP3    H244254   1.197   3.068  10.020 -1.4683 -0.4716  1.3754
 6687TIP3   OH244255   0.335   1.903   7.158  0.5083 -0.7898 -0.0668
 6687TIP3    H144256   0.372   1.816   7.146  1.3429 -0.6258  1.1104
 6687TIP3    H244257   0.364   1.930   7.245 -0.2402  0.4204 -0.1609
 6688TIP3   OH244258   1.756   0.021   8.464  0.1624  0.1828  0.3807
 6688TIP3    H144259   1.821   0.069   8.515 -0.0646 -0.3350  1.1755
 6688TIP3    H244260   1.803  -0.058   8.435  0.7264  1.1338 -1.4479
 6689TIP3   OH244261   2.366   4.749   7.776 -0.4570  0.2317  0.2651
 6689TIP3    H144262   2.450   4.782   7.744  0.1280 -0.0772  1.4356
 6689TIP3    H244263   2.308   4.826   7.774 -0.0582  0.5278 -0.2075
 6690TIP3   OH244264   1.089   3.808   7.912  0.0890  0.1460  0.5171
 6690TIP3    H144265   1.164   3.865   7.895  0.1833 -0.2804 -0.5220
 6690TIP3    H244266   1.105   3.730   7.860  1.2102 -1.9896  3.7323
 6691TIP3   OH244267   1.523   2.303   7.042 -0.2959 -0.6112  0.1558
 6691TIP3    H144268   1.490   2.338   7.125 -1.2116 -0.6725 -0.1656
 6691TIP3    H244269   1.550   2.380   6.992 -0.3139 -0.5274  0.2754
 6692TIP3   OH244270   6.221   0.402   8.971 -0.7017 -0.2859  0.1064
 6692TIP3    H144271   6.189   0.444   8.892 -0.8845  1.1008  0.8845
 6692TIP3    H244272   6.149   0.410   9.034  0.2697  0.7976  1.1493
 6693TIP3   OH244273   5.807   6.642   8.653  0.0519  0.4157 -0.2021
 6693TIP3    H144274   5.875   6.584   8.688 -1.0694 -0.6807  0.2521
 6693TIP3    H244275   5.839   6.667   8.567  1.7333  1.1710  0.5828
 6694TIP3   OH244276   1.999   5.193   8.600  0.2736  0.8483  0.3911
 6694TIP3    H144277   2.035   5.224   8.517  0.4476 -1.4502 -0.4495
 6694TIP3    H244278   2.076   5.164   8.650 -0.0459 -0.9384 -0.0689
 6695TIP3   OH244279   1.272   4.249   8.555  0.2264  0.2984 -0.0825
 6695TIP3    H144280   1.348   4.296   8.518  1.3965  1.1289  3.0618
 6695TIP3    H244281   1.310   4.190   8.620 -1.7491 -0.4968  0.4139
 6696TIP3   OH244282   3.449   5.115   7.143 -0.1046 -0.5383 -0.7788
 6696TIP3    H144283   3.526   5.083   7.097 -0.0694 -2.1163  0.2849
 6696TIP3    H244284   3.455   5.211   7.138  2.5837 -0.5686  0.2813
 6697TIP3   OH244285   4.168   2.169   7.325 -0.0123 -0.1571  0.4640
 6697TIP3    H144286   4.224   2.147   7.399  1.2701 -1.0034 -0.7178
 6697TIP3    H244287   4.095   2.107   7.332 -0.1918  0.1397  1.3214
 6698TIP3   OH244288   5.844   6.707   9.072 -0.2117 -0.1996  1.1220
 6698TIP3    H144289   5.778   6.730   9.138 -0.2830  0.5700  0.7971
 6698TIP3    H244290   5.820   6.760   8.995 -0.4118 -1.4303  0.3051
 6699TIP3   OH244291   3.073   1.808   9.610  0.1011 -0.1450 -0.2212
 6699TIP3    H144292   3.033   1.756   9.680 -0.5501  0.7663  0.0924
 6699TIP3    H244293   3.165   1.814   9.635 -0.1330  0.2041  0.5895
 6700TIP3   OH244294   5.624   3.081   8.206 -0.0215 -0.1311  0.2793
 6700TIP3    H144295   5.711   3.064   8.168 -0.4710 -1.3865 -0.2358
 6700TIP3    H244296   5.642   3.106   8.296  0.9433  0.7635 -0.1385
 6701TIP3   OH244297   6.446   3.645   7.465 -0.3146  0.4358  0.2008
 6701TIP3    H144298   6.517   3.608   7.412  0.0704 -2.1003  2.2764
 6701TIP3    H244299   6.379   3.668   7.401  1.2221  0.2022 -1.6013
 6702TIP3   OH244300   4.165   3.379   8.192  0.0627 -0.4346  0.1909
 6702TIP3    H144301   4.214   3.339   8.121  0.1150 -1.8500  0.9865
 6702TIP3    H244302   4.195   3.334   8.271 -0.3760  0.7258  1.0523
 6703TIP3   OH244303   0.747   5.328   9.035 -0.1855  0.0242 -0.3155
 6703TIP3    H144304   0.691   5.332   8.957  0.4718 -1.2599 -0.8755
 6703TIP3    H244305   0.811   5.260   9.016  1.1670  0.9759  0.5869
 6704TIP3   OH244306   0.216   0.473   7.129 -0.2942  0.2201 -0.1973
 6704TIP3    H144307   0.294   0.441   7.082 -0.8097 -0.1718 -0.8068
 6704TIP3    H244308   0.192   0.401   7.187  1.7896  1.5981  2.5895
 6705TIP3   OH244309   5.571   1.817   9.309 -0.4155  0.0620 -0.2285
 6705TIP3    H144310   5.580   1.756   9.382  1.5084 -0.1446 -0.5815
 6705TIP3    H244311   5.653   1.809   9.260 -0.0732  2.8482 -0.3233
 6706TIP3   OH244312   6.263   3.529   8.429 -0.0783 -0.0590  0.9562
 6706TIP3    H144313   6.252   3.490   8.342 -1.7434  1.3640  0.4861
 6706TIP3    H244314   6.314   3.464   8.478  2.2754 -0.2227 -1.5013
 6707TIP3   OH244315   5.762   5.024   6.549 -0.4102 -0.3170 -0.5478
 6707TIP3    H144316   5.804   4.984   6.473 -0.3356 -1.5205  0.0933
 6707TIP3    H244317   5.823   5.009   6.621 -1.1942 -0.6347  0.0703
 6708TIP3   OH244318   2.356   2.251   7.970  0.7724 -0.1726 -0.0989
 6708TIP3    H144319   2.335   2.333   7.926  0.3937 -0.9321 -1.3825
 6708TIP3    H244320   2.331   2.265   8.061 -0.4915  0.7043 -0.5604
 6709TIP3   OH244321   2.449   0.358   8.627  0.1594  0.1158  0.1877
 6709TIP3    H144322   2.409   0.279   8.666 -1.7618  0.3994 -1.0579
 6709TIP3    H244323   2.434   0.426   8.692  0.3660 -0.1962  0.5696
 6710TIP3   OH244324   2.873   0.249   9.212  0.1890 -0.1103 -0.5429
 6710TIP3    H144325   2.901   0.332   9.252  1.1451 -0.4940 -0.3889
 6710TIP3    H244326   2.777   0.251   9.217  0.2504 -0.4497  2.4457
 6711TIP3   OH244327   5.285   5.997   6.932 -0.5216  0.2010  0.1999
 6711TIP3    H144328   5.351   5.948   6.980  0.1207 -0.0195 -0.8808
 6711TIP3    H244329   5.251   6.060   6.996  1.6912  1.2377  0.4410
 6712TIP3   OH244330   2.343   0.251   8.136  0.2634 -0.5203 -0.3737
 6712TIP3    H144331   2.301   0.277   8.219  0.6843  0.1722 -0.3692
 6712TIP3    H244332   2.314   0.161   8.122 -1.3448 -0.0268 -0.4415
 6713TIP3   OH244333   1.598   3.257   6.827 -0.0551 -0.2855 -0.2912
 6713TIP3    H144334   1.656   3.333   6.837  1.5754 -1.3953 -0.8091
 6713TIP3    H244335   1.552   3.272   6.744 -1.3106  1.0888  0.6141
 6714TIP3   OH244336   0.260   4.191   9.078 -0.1389 -0.1877 -0.1732
 6714TIP3    H144337   0.170   4.201   9.047 -0.3346  1.5176  0.8078
 6714TIP3    H244338   0.306   4.269   9.046  0.7571 -0.5849  0.1072
 6715TIP3   OH244339   2.203   5.227   6.747 -0.1934  0.7009 -0.1173
 6715TIP3    H144340   2.289   5.269   6.747 -0.0697  0.4596 -0.4932
 6715TIP3    H244341   2.141   5.297   6.730 -0.1599  1.0288  1.0177
 6716TIP3   OH244342   4.879   1.229   9.413  0.1941 -0.1458 -0.2739
 6716TIP3    H144343   4.824   1.227   9.335 -2.4409  0.2974  1.4257
 6716TIP3    H244344   4.919   1.316   9.413  0.9238 -0.4536 -1.5169
 6717TIP3   OH244345   5.166   3.257   7.050  0.0130 -0.8106  0.2820
 6717TIP3    H144346   5.216   3.298   7.120  0.0096 -1.1047  0.4584
 6717TIP3    H244347   5.097   3.208   7.095 -0.7113 -0.0461  0.0194
 6718TIP3   OH244348   5.269   6.329   6.903  0.0758  0.0661  0.4430
 6718TIP3    H144349   5.361   6.305   6.892  0.1048  0.3491  0.0586
 6718TIP3    H244350   5.268   6.389   6.977  0.1315 -0.3334  0.7722
 6719TIP3   OH244351   5.126   0.088   6.754 -0.1107 -0.6982  0.5255
 6719TIP3    H144352   5.055   0.145   6.784  0.8581  0.7476  0.1569
 6719TIP3    H244353   5.119   0.090   6.658  0.2455 -0.7891  0.4983
 6720TIP3   OH244354   5.006   1.681   8.287  0.6232 -0.1205 -0.3982
 6720TIP3    H144355   5.000   1.602   8.340  0.1174  0.8828  1.1185
 6720TIP3    H244356   4.925   1.681   8.235 -0.0317  0.0465  0.5863
 6721TIP3   OH244357   0.577   3.806   8.491  0.0285 -0.3792 -0.1299
 6721TIP3    H144358   0.538   3.832   8.573 -0.7359  0.9277 -0.8795
 6721TIP3    H244359   0.519   3.841   8.424  0.7706 -1.1846 -1.2364
 6722TIP3   OH244360   0.687   3.683   7.431  0.2584 -0.2771  0.1554
 6722TIP3    H144361   0.632   3.613   7.394 -0.4758  0.8107 -0.8625
 6722TIP3    H244362   0.724   3.727   7.355 -2.2241  2.7715  0.5241
 6723TIP3   OH244363   0.165   6.049   7.284  0.3689  0.6757  0.1063
 6723TIP3    H144364   0.261   6.051   7.285  0.4483 -0.3399 -1.5377
 6723TIP3    H244365   0.139   6.141   7.278  1.2557  0.9284 -0.0213
 6724TIP3   OH244366   5.174   3.876   9.170  0.5357 -0.1282 -0.5438
 6724TIP3    H144367   5.201   3.958   9.211  0.3621 -0.7725  0.9569
 6724TIP3    H244368   5.139   3.901   9.085 -3.3953  1.9682  1.3918
 6725TIP3   OH244369   1.573   2.059   6.939  0.1761 -0.3023 -0.1798
 6725TIP3    H144370   1.560   2.122   7.010 -1.3368 -0.6417 -0.1212
 6725TIP3    H244371   1.585   1.975   6.984  1.9545 -0.1198 -0.2640
 6726TIP3   OH244372   2.984   5.673   9.312 -0.0789  0.5591 -0.3865
 6726TIP3    H144373   3.000   5.764   9.285 -0.3284  0.7729  0.1723
 6726TIP3    H244374   3.022   5.667   9.400 -0.9276  0.3997 -0.0214
 6727TIP3   OH244375   2.067   4.153   7.104  0.1735  0.0527  0.0879
 6727TIP3    H144376   2.054   4.248   7.099 -0.0199 -0.0079 -0.6380
 6727TIP3    H244377   1.999   4.116   7.048  0.7996 -0.4716 -0.3426
 6728TIP3   OH244378   3.741   6.487   8.755  0.1819  0.1411 -0.1201
 6728TIP3    H144379   3.676   6.502   8.824  0.4043  2.3960 -0.3376
 6728TIP3    H244380   3.753   6.572   8.714  1.6013 -0.7166 -1.6000
 6729TIP3   OH244381   2.603   5.075   7.461  1.0452 -0.3498  0.8945
 6729TIP3    H144382   2.688   5.119   7.460  0.1930  1.5505  3.0255
 6729TIP3    H244383   2.568   5.090   7.373  1.5038  1.9109  1.0284
 6730TIP3   OH244384   5.742   3.894   8.986 -0.8266 -0.5820 -0.1543
 6730TIP3    H144385   5.815   3.833   9.000  0.0666 -1.3013 -5.5080
 6730TIP3    H244386   5.776   3.979   9.013 -0.1896 -1.6022  2.6225
 6731TIP3   OH244387   2.267   3.702   8.781  0.7368 -0.5484 -0.0357
 6731TIP3    H144388   2.327   3.771   8.806  0.7333 -0.5206 -0.1038
 6731TIP3    H244389   2.239   3.725   8.692 -1.7443  1.1086  1.0641
 6732TIP3   OH244390   0.159   3.749   7.444  0.6285 -0.4459  0.5989
 6732TIP3    H144391   0.089   3.742   7.508  0.5158  1.2397  0.7281
 6732TIP3    H244392   0.238   3.723   7.492  0.4381  0.0741  1.2084
 6733TIP3   OH244393   0.386   3.571   8.505  0.0480  0.7526 -0.3478
 6733TIP3    H144394   0.479   3.596   8.506  0.1213  0.5947 -1.9009
 6733TIP3    H244395   0.351   3.611   8.585  1.0244  2.4830 -0.7220
 6734TIP3   OH244396   0.700   2.317   6.495 -0.0120  0.3576 -0.1165
 6734TIP3    H144397   0.765   2.338   6.562  0.9287  0.1042 -0.9263
 6734TIP3    H244398   0.620   2.361   6.525  0.2904 -0.0066  1.3171
 6735TIP3   OH244399   4.889   4.283  10.197  0.1190 -0.7696 -0.5630
 6735TIP3    H144400   4.918   4.197  10.168 -1.7000 -1.2440 -1.0730
 6735TIP3    H244401   4.941   4.345  10.146  0.5383 -1.5781 -1.1170
 6736TIP3   OH244402   0.570   0.757   9.153 -0.4722 -0.3802  0.2401
 6736TIP3    H144403   0.488   0.751   9.104  0.9406  1.0954 -2.5447
 6736TIP3    H244404   0.564   0.840   9.200  0.0868  0.6689 -1.4534
 6737TIP3   OH244405   4.235   2.050   6.588 -0.1457  0.5078  0.1858
 6737TIP3    H144406   4.207   1.969   6.544  0.4120  0.8340 -0.8137
 6737TIP3    H244407   4.205   2.120   6.530  1.8840  0.8989 -0.4668
 6738TIP3   OH244408   3.837   2.605   7.884 -0.2173  0.2158 -0.1017
 6738TIP3    H144409   3.836   2.579   7.792 -0.4709  1.7715 -0.5785
 6738TIP3    H244410   3.805   2.696   7.883  0.1465  0.3868  1.4785
 6739TIP3   OH244411   3.033   5.952   8.447  0.2017 -0.0500 -0.4306
 6739TIP3    H144412   3.024   5.895   8.371  0.2411 -0.9496  0.2139
 6739TIP3    H244413   3.031   6.041   8.412 -0.5062 -0.4327 -1.4054
 6740TIP3   OH244414   0.837   3.547   9.869  0.3270  0.3470  0.5379
 6740TIP3    H144415   0.776   3.616   9.843 -0.1475 -0.2881 -0.0667
 6740TIP3    H244416   0.781   3.471   9.885  0.8138  0.1797  1.5066
 6741TIP3   OH244417   1.916   4.678   7.961  0.2492  0.5151  0.1250
 6741TIP3    H144418   1.842   4.624   7.990  0.6412 -1.4225 -2.1885
 6741TIP3    H244419   1.987   4.655   8.021  0.1636 -0.9898 -0.2911
 6742TIP3   OH244420   3.594   2.366   9.482  0.1975  0.4448  0.4252
 6742TIP3    H144421   3.583   2.461   9.480 -0.4025  0.3667 -0.3277
 6742TIP3    H244422   3.688   2.353   9.492  0.5176  1.1136 -1.4219
 6743TIP3   OH244423   4.370   1.296   8.473  0.7956  0.1229 -0.0181
 6743TIP3    H144424   4.465   1.296   8.473  0.8281 -0.1599 -1.9187
 6743TIP3    H244425   4.346   1.389   8.472  1.0113  0.2037  0.8939
 6744TIP3   OH244426   2.006   4.953   7.929 -0.0669  0.1169  0.4099
 6744TIP3    H144427   2.022   5.029   7.985  0.2834  0.4602 -0.1534
 6744TIP3    H244428   1.955   4.894   7.984  0.8699  0.1404  1.3435
 6745TIP3   OH244429   4.353   4.563   8.183 -0.1069  0.1144  0.0472
 6745TIP3    H144430   4.430   4.596   8.230 -0.0371  0.3812 -0.2508
 6745TIP3    H244431   4.288   4.633   8.191 -0.1774  0.0601 -0.0508
 6746TIP3   OH244432   6.167   2.129   8.881  0.2776  0.3811  0.1972
 6746TIP3    H144433   6.128   2.042   8.874 -0.7092  0.8241  0.1046
 6746TIP3    H244434   6.093   2.189   8.882  0.9628  1.3928 -2.0470
 6747TIP3   OH244435   1.083   0.443   9.385 -0.2633 -0.0780  0.4907
 6747TIP3    H144436   1.049   0.421   9.472 -0.0776  4.5550  2.0383
 6747TIP3    H244437   1.178   0.443   9.395 -0.2476  0.8655  0.4911
 6748TIP3   OH244438   5.471   0.952   7.650  0.6198 -0.2122  0.2829
 6748TIP3    H144439   5.387   0.908   7.661  0.0697  0.4686 -0.9609
 6748TIP3    H244440   5.491   0.987   7.736 -2.2617  2.8577 -0.0615
 6749TIP3   OH244441   1.102   4.635   8.937 -0.3685  0.4921 -0.1637
 6749TIP3    H144442   1.141   4.686   8.866  1.7768  0.3973  0.8698
 6749TIP3    H244443   1.079   4.551   8.897  2.1229 -0.0930 -0.5086
 6750TIP3   OH244444   4.034   3.724   9.409  0.1567 -0.7532  0.1724
 6750TIP3    H144445   3.939   3.713   9.410  0.1039 -0.3152  1.1297
 6750TIP3    H244446   4.053   3.764   9.324 -0.6144 -0.0796  0.3030
 6751TIP3   OH244447   5.869   2.295   8.623 -0.2306 -0.3179  0.3228
 6751TIP3    H144448   5.951   2.274   8.668  0.5756  2.3130  0.2589
 6751TIP3    H244449   5.881   2.262   8.534  0.8550  0.1880  0.2718
 6752TIP3   OH244450   5.116   0.685   7.117 -0.1860  0.3036 -0.6198
 6752TIP3    H144451   5.157   0.654   7.198  0.8720  0.0203 -1.2432
 6752TIP3    H244452   5.173   0.756   7.087 -0.7367  0.6066 -0.9663
 6753TIP3   OH244453   0.944   6.435  10.075 -0.3488 -0.0130 -0.2623
 6753TIP3    H144454   0.896   6.491  10.136  1.0159  0.2247  0.6274
 6753TIP3    H244455   0.912   6.346  10.093 -0.4696  0.1442  0.2946
 6754TIP3   OH244456   2.470   4.700   6.674  0.2467 -0.4672  0.8000
 6754TIP3    H144457   2.401   4.683   6.738 -0.6417  1.0404  0.2795
 6754TIP3    H244458   2.443   4.653   6.596 -0.2925  0.2304  0.5531
 6755TIP3   OH244459   6.435   4.896   6.867  0.1507  0.1084  0.1357
 6755TIP3    H144460   6.422   4.951   6.944 -0.6128  0.1105  0.0078
 6755TIP3    H244461   6.440   4.807   6.903  1.3338  0.2446  0.3360
 6756TIP3   OH244462   1.333   0.080  10.034 -0.1107 -0.0052 -0.1511
 6756TIP3    H144463   1.365   0.068  10.123 -1.1017 -1.8302  0.0014
 6756TIP3    H244464   1.410   0.072   9.979  0.5392  1.3017  0.5242
 6757TIP3   OH244465   2.185   6.025   8.339  0.4699  1.1011  0.1680
 6757TIP3    H144466   2.237   5.981   8.272 -0.4459  0.0195  0.1478
 6757TIP3    H244467   2.212   5.984   8.421  1.4209  2.2639  0.4797
 6758TIP3   OH244468   0.551   3.542   9.139  0.0050 -0.4785 -0.5316
 6758TIP3    H144469   0.609   3.601   9.091 -2.8483  2.4746 -0.6792
 6758TIP3    H244470   0.536   3.586   9.222 -0.6812 -2.0704  0.2365
 6759TIP3   OH244471   6.735   5.987   9.023  0.2825 -0.3780 -0.1191
 6759TIP3    H144472   6.711   5.955   8.936 -0.7070  0.7078 -0.2714
 6759TIP3    H244473   6.830   5.985   9.024  0.3707 -3.9705  0.1467
 6760TIP3   OH244474   0.557   5.195   9.627  0.2730  0.1820 -0.1898
 6760TIP3    H144475   0.473   5.241   9.620  0.0666 -0.3203 -1.1764
 6760TIP3    H244476   0.622   5.265   9.635 -0.2416  0.5732  0.8005
 6761TIP3   OH244477   5.138   2.675   8.735 -0.4886  0.1842 -0.6419
 6761TIP3    H144478   5.076   2.713   8.797  0.1486  1.1239 -0.5625
 6761TIP3    H244479   5.204   2.743   8.722  0.9875 -1.0761 -0.0908
 6762TIP3   OH244480   2.566   1.502   8.639  0.5507 -0.1800 -0.0064
 6762TIP3    H144481   2.580   1.537   8.727  0.9577 -1.5987  0.5201
 6762TIP3    H244482   2.474   1.521   8.621  0.7386  1.0894  0.2659
 6763TIP3   OH244483   2.024   0.279   7.804 -0.6345  0.6951  0.3327
 6763TIP3    H144484   2.018   0.282   7.900  0.6353  1.3867  0.4094
 6763TIP3    H244485   2.089   0.211   7.786 -1.5606 -0.0960 -0.0855
 6764TIP3   OH244486   3.926   5.451   8.066 -0.1282 -0.0209  0.4615
 6764TIP3    H144487   3.916   5.404   7.983 -1.5826  0.5869  0.2726
 6764TIP3    H244488   3.967   5.388   8.125  0.1989 -0.7119 -0.4948
 6765TIP3   OH244489   5.301   0.963   8.245  0.1919 -0.0396  0.2948
 6765TIP3    H144490   5.332   0.909   8.173  1.8057  1.0707  0.0926
 6765TIP3    H244491   5.235   0.910   8.289  1.5433 -2.0718 -0.0054
 6766TIP3   OH244492   0.083   1.603  10.070 -0.1758 -0.1894 -0.1443
 6766TIP3    H144493   0.007   1.654  10.098 -0.8097 -1.5386  0.7297
 6766TIP3    H244494   0.155   1.635  10.123 -0.8581 -1.0681  1.3805
 6767TIP3   OH244495   6.340   6.146   7.546 -0.3346 -0.2427 -0.0405
 6767TIP3    H144496   6.265   6.195   7.580  0.0576  0.9402 -0.8202
 6767TIP3    H244497   6.416   6.190   7.585  0.1113  0.9529 -2.1510
 6768TIP3   OH244498   5.942   3.718  10.703  0.3007 -0.6818  0.3595
 6768TIP3    H144499   6.025   3.732  10.658 -1.3267 -0.2578 -2.7477
 6768TIP3    H244500   5.907   3.638  10.664 -1.9058  0.5569 -0.3771
 6769TIP3   OH244501   5.927   2.330   6.826 -0.4437  0.1044  0.0610
 6769TIP3    H144502   5.851   2.333   6.885 -0.1903  2.9244  0.4022
 6769TIP3    H244503   5.890   2.347   6.739 -0.4643 -1.0018 -0.1542
 6770TIP3   OH244504   3.973   1.293   9.088  0.0873  0.0892 -0.1221
 6770TIP3    H144505   4.059   1.275   9.125  0.5450 -0.0894 -1.2406
 6770TIP3    H244506   3.982   1.273   8.994 -1.6009 -1.5237 -0.0049
 6771TIP3   OH244507   2.184   3.843   8.119  0.8867  0.1719 -0.0078
 6771TIP3    H144508   2.201   3.811   8.030 -1.3864 -2.6411  0.3938
 6771TIP3    H244509   2.271   3.862   8.154  2.1178 -1.4127 -1.9098
 6772TIP3   OH244510   6.512   0.714   9.707  0.1248  0.1770  0.7567
 6772TIP3    H144511   6.545   0.794   9.666  0.0104  0.0223  0.3561
 6772TIP3    H244512   6.513   0.733   9.801  1.5440  0.0915  0.7731
 6773TIP3   OH244513   3.637   5.530   7.321 -0.2560  0.0445 -0.3307
 6773TIP3    H144514   3.688   5.602   7.357 -0.1677 -0.7129  1.1369
 6773TIP3    H244515   3.686   5.451   7.345 -1.9557 -0.6900  0.9241
 6774TIP3   OH244516   0.328   4.828   8.686  0.1727  0.1082 -0.2685
 6774TIP3    H144517   0.238   4.833   8.720 -0.3819  0.1615 -1.6854
 6774TIP3    H244518   0.342   4.735   8.669 -0.5825  0.3335 -2.4423
 6775TIP3   OH244519   4.979   1.415   7.975 -0.1084 -0.0749  0.3981
 6775TIP3    H144520   4.969   1.509   7.957 -0.6260 -0.2389 -0.2149
 6775TIP3    H244521   4.902   1.375   7.935 -0.5273 -0.6385  1.7242
 6776TIP3   OH244522   2.163   0.550   8.866  0.6729 -0.3758  0.2645
 6776TIP3    H144523   2.125   0.518   8.785 -0.5615  0.9332  0.2861
 6776TIP3    H244524   2.252   0.576   8.843 -0.0712  1.1976 -1.0156
 6777TIP3   OH244525   6.740   1.317   6.677  0.0651  0.2090 -0.8169
 6777TIP3    H144526   6.733   1.336   6.771 -2.5765 -1.1622 -0.6524
 6777TIP3    H244527   6.833   1.300   6.664  0.4638  0.0835  1.6231
 6778TIP3   OH244528   2.107   2.261   9.832  0.0109  0.5401  0.0766
 6778TIP3    H144529   2.127   2.340   9.882  4.1609  0.0927 -0.5331
 6778TIP3    H244530   2.107   2.288   9.741  0.6931 -0.0143 -0.0958
 6779TIP3   OH244531   3.037   6.091   6.895  0.0813  0.1317 -0.5844
 6779TIP3    H144532   2.967   6.147   6.863  0.6902  0.3892 -1.5243
 6779TIP3    H244533   3.053   6.119   6.985 -0.4176  0.6557 -0.6596
 6780TIP3   OH244534   1.885   4.628   8.993  0.5217  0.7782 -0.0553
 6780TIP3    H144535   1.797   4.592   9.006  1.1760 -1.0523 -0.4294
 6780TIP3    H244536   1.907   4.606   8.903  2.4351 -1.3218  0.8461
 6781TIP3   OH244537   5.266   2.658   6.823  0.4297 -0.1541 -0.0768
 6781TIP3    H144538   5.188   2.712   6.813  0.1094 -0.5573  0.2033
 6781TIP3    H244539   5.339   2.717   6.807  0.1309  0.6392  1.3515
 6782TIP3   OH244540   5.693   5.512   7.731  0.5140 -0.8876 -0.1529
 6782TIP3    H144541   5.633   5.554   7.670  1.9966  0.5067 -0.7324
 6782TIP3    H244542   5.769   5.489   7.678  1.1653 -1.1530  0.8535
 6783TIP3   OH244543   1.469   0.710   8.026  0.9763  0.0386  0.3000
 6783TIP3    H144544   1.523   0.720   8.104 -0.8443 -0.9240  1.7803
 6783TIP3    H244545   1.380   0.724   8.057  0.3202  1.4732 -2.0142
 6784TIP3   OH244546   3.686   0.842   8.637  0.5365 -0.2858  0.3148
 6784TIP3    H144547   3.720   0.769   8.687 -1.3089 -1.2928  0.2007
 6784TIP3    H244548   3.620   0.882   8.694  0.4688  0.3642 -0.1967
 6785TIP3   OH244549   3.043   3.538   8.045  0.0641  0.2174  0.6386
 6785TIP3    H144550   3.088   3.591   7.979 -0.2226 -0.7607 -0.3815
 6785TIP3    H244551   3.046   3.591   8.124  1.4184  0.9523  0.1347
 6786TIP3   OH244552   5.279   4.358   7.214 -0.4825  0.4948  0.0554
 6786TIP3    H144553   5.293   4.429   7.276 -0.5515  1.8885 -1.4420
 6786TIP3    H244554   5.186   4.363   7.191 -0.3372  0.3893 -0.5952
 6787TIP3   OH244555   0.706   4.831   9.549  0.1892  0.1920 -0.1183
 6787TIP3    H144556   0.700   4.894   9.477  1.0002 -1.5636 -1.8021
 6787TIP3    H244557   0.787   4.855   9.595 -0.1971  1.1632  0.0791
 6788TIP3   OH244558   0.479   3.589   6.632 -0.9579 -0.3268  0.0534
 6788TIP3    H144559   0.468   3.580   6.727  1.5915 -1.6597  0.3102
 6788TIP3    H244560   0.513   3.505   6.604  1.7274  1.1323 -1.4193
 6789TIP3   OH244561   5.982   5.433   8.486  0.1105  0.1826 -0.2129
 6789TIP3    H144562   6.017   5.508   8.439  0.2307  1.0319  1.1851
 6789TIP3    H244563   6.033   5.428   8.567  0.3185 -1.6044 -0.4055
 6790TIP3   OH244564   2.650   0.874   8.061  0.4696 -0.7199  0.1953
 6790TIP3    H144565   2.717   0.937   8.033  0.1791  0.0239  1.1248
 6790TIP3    H244566   2.592   0.865   7.985  2.0381 -1.9909 -0.9252
 6791TIP3   OH244567   2.756   5.531   9.507 -0.6463 -0.3962 -0.6132
 6791TIP3    H144568   2.677   5.553   9.556 -0.1314 -0.7553  0.3928
 6791TIP3    H244569   2.821   5.507   9.573  0.2445 -0.3376 -1.4302
 6792TIP3   OH244570   3.923   4.839   8.899  0.0684  0.2474 -0.2865
 6792TIP3    H144571   3.894   4.930   8.903  0.5576  0.4251 -0.7163
 6792TIP3    H244572   3.987   4.837   8.827  1.3460 -0.0613  0.8156
 6793TIP3   OH244573   4.200   5.577   6.800  0.7111 -0.4671 -0.3641
 6793TIP3    H144574   4.284   5.619   6.779  1.6272 -0.9223  2.0194
 6793TIP3    H244575   4.143   5.650   6.826  0.4452 -0.1910 -1.6547
 6794TIP3   OH244576   2.048   2.160   8.340  0.1088  0.2288  0.1131
 6794TIP3    H144577   2.030   2.112   8.259  0.8307 -1.0741  0.6948
 6794TIP3    H244578   2.124   2.116   8.377 -0.8835  0.0827  2.0710
 6795TIP3   OH244579   5.327   1.629   9.801  0.4787 -0.4396 -0.5602
 6795TIP3    H144580   5.267   1.655   9.872  2.0549 -1.7016  1.3282
 6795TIP3    H244581   5.400   1.690   9.808  0.2540 -0.0271 -1.6944
 6796TIP3   OH244582   2.573   2.960   8.421 -0.3267  0.3047  0.2917
 6796TIP3    H144583   2.629   3.028   8.460 -0.0826  0.5501 -0.4718
 6796TIP3    H244584   2.622   2.929   8.345 -0.5614 -0.5485  0.4789
 6797TIP3   OH244585   4.938   0.961   7.621  0.0595 -0.0354 -0.4908
 6797TIP3    H144586   5.004   0.924   7.562 -0.2554 -0.1360 -0.7808
 6797TIP3    H244587   4.859   0.970   7.567  0.5198  2.4883 -0.8585
 6798TIP3   OH244588   0.932   6.028   7.845  0.0107 -0.0316 -0.7403
 6798TIP3    H144589   0.855   6.081   7.822 -0.2762  0.3098  0.8685
 6798TIP3    H244590   0.967   6.070   7.923  0.1919 -1.7931  0.1803
 6799TIP3   OH244591   0.213   5.222   7.556 -0.2165  0.0180  0.0263
 6799TIP3    H144592   0.192   5.230   7.463 -1.4512  1.2225  0.3686
 6799TIP3    H244593   0.226   5.129   7.570  0.4982 -0.1429 -1.4409
 6800TIP3   OH244594   4.646   4.254   8.493 -0.2443 -0.1807 -0.3015
 6800TIP3    H144595   4.644   4.240   8.398  2.0987  3.1689 -0.9966
 6800TIP3    H244596   4.737   4.237   8.518 -0.0131  2.1325  0.6710
 6801TIP3   OH244597   1.970   6.105   7.272  0.2438 -0.0332  0.2969
 6801TIP3    H144598   1.915   6.173   7.234 -0.8582 -1.9816 -1.8609
 6801TIP3    H244599   1.982   6.132   7.363 -1.5568  2.1386 -0.0142
 6802TIP3   OH244600   1.474   0.748   8.476 -1.0270  0.4907  0.0122
 6802TIP3    H144601   1.508   0.701   8.400  1.3548  1.8552  0.1635
 6802TIP3    H244602   1.476   0.684   8.547  0.4793  0.2925 -0.1902
 6803TIP3   OH244603   1.718   2.866   7.082  0.5168  0.7918 -0.2340
 6803TIP3    H144604   1.735   2.793   7.023  0.6728 -0.6493  1.5005
 6803TIP3    H244605   1.802   2.911   7.090  0.8695  0.0840  0.0687
 6804TIP3   OH244606   4.589   4.073   9.502  0.0621 -0.3279  0.5343
 6804TIP3    H144607   4.639   4.053   9.580  0.4013 -1.7499 -0.0254
 6804TIP3    H244608   4.634   4.148   9.462  0.1874  0.0670  1.3941
 6805TIP3   OH244609   2.335   1.260   7.867  0.3637 -0.0534  0.4761
 6805TIP3    H144610   2.373   1.347   7.872 -0.0941  0.1205  1.0024
 6805TIP3    H244611   2.399   1.209   7.817  0.8432  0.4666  0.5490
 6806TIP3   OH244612   2.521   0.244   7.454 -0.0368 -0.1927  0.1363
 6806TIP3    H144613   2.577   0.317   7.481  0.3736 -0.7936  0.9337
 6806TIP3    H244614   2.533   0.178   7.522  0.7617 -1.6323 -1.3413
 6807TIP3   OH244615   2.556   6.593   7.405 -0.0825  0.2920 -0.4279
 6807TIP3    H144616   2.641   6.627   7.431  1.1282 -3.0048  0.4728
 6807TIP3    H244617   2.576   6.525   7.340 -1.7807 -1.6508  0.9321
 6808TIP3   OH244618   6.068   6.156   8.460  0.2948  0.4245 -0.1000
 6808TIP3    H144619   6.012   6.172   8.536 -0.5572 -1.2915 -0.3039
 6808TIP3    H244620   6.130   6.229   8.459 -0.9631  1.5523  1.0473
 6809TIP3   OH244621   1.626   3.377   9.251 -0.4683  0.0579  0.3442
 6809TIP3    H144622   1.696   3.443   9.251  0.3984 -0.8365  0.9701
 6809TIP3    H244623   1.637   3.331   9.167 -2.4051  2.0161 -1.1032
 6810TIP3   OH244624   4.526   4.249   7.308 -0.2471  0.6535  0.3269
 6810TIP3    H144625   4.614   4.223   7.334  0.2084  0.9345 -0.8777
 6810TIP3    H244626   4.511   4.332   7.354  0.5917  1.2168 -0.3848
 6811TIP3   OH244627   5.221   2.820   9.222 -0.0777 -0.5384  0.0154
 6811TIP3    H144628   5.284   2.792   9.156 -0.3229  0.1200 -0.5151
 6811TIP3    H244629   5.228   2.755   9.291  2.4465  0.4313  0.8002
 6812TIP3   OH244630   0.637   1.203   8.561 -0.1267 -0.5656  0.3970
 6812TIP3    H144631   0.583   1.176   8.635 -1.1799  0.6269  0.0852
 6812TIP3    H244632   0.601   1.154   8.487  0.1398 -0.8321  0.4410
 6813TIP3   OH244633   0.323   3.312   7.207 -0.0050 -0.2540 -0.0446
 6813TIP3    H144634   0.243   3.326   7.156  0.1914 -0.2827 -0.3642
 6813TIP3    H244635   0.294   3.263   7.284 -0.6114  1.3260  0.7873
 6814TIP3   OH244636   3.558   0.298   7.395  0.1499  0.0749  0.6610
 6814TIP3    H144637   3.512   0.382   7.401 -0.1327 -0.0972  0.9915
 6814TIP3    H244638   3.646   0.317   7.426  0.4115  0.4805 -0.2892
 6815TIP3   OH244639   4.242   5.652   8.951 -0.3672  0.2537  0.5166
 6815TIP3    H144640   4.194   5.640   8.869 -0.1926  2.9417 -0.0528
 6815TIP3    H244641   4.264   5.745   8.953  1.2226 -0.0915  2.7669
 6816TIP3   OH244642   4.073   5.537   9.157  0.6736 -0.2970 -0.5048
 6816TIP3    H144643   4.139   5.590   9.112  1.3686  1.0440  1.9267
 6816TIP3    H244644   4.123   5.475   9.209 -0.0927 -1.3034 -0.9327
 6817TIP3   OH244645   5.732   0.698   9.474  0.3700 -0.5855 -0.2647
 6817TIP3    H144646   5.641   0.669   9.463  0.2619  0.2752 -2.0942
 6817TIP3    H244647   5.726   0.792   9.488  0.8966 -0.8485  2.0800
 6818TIP3   OH244648   0.496   1.149  10.000 -0.8054  0.3002 -0.4764
 6818TIP3    H144649   0.529   1.239  10.009 -0.7465  0.3148 -0.8221
 6818TIP3    H244650   0.530   1.104  10.077  1.7211 -0.1834 -1.7445
 6819TIP3   OH244651   1.906   6.442   7.335 -0.2968 -0.2662  0.5561
 6819TIP3    H144652   1.866   6.519   7.376  0.0239  0.4383 -0.4209
 6819TIP3    H244653   1.936   6.473   7.250 -0.4230 -1.5522  0.0216
 6820TIP3   OH244654   0.297   5.403   9.002  0.4520 -0.3806 -0.0339
 6820TIP3    H144655   0.281   5.443   8.917  1.7544 -0.3982 -0.3173
 6820TIP3    H244656   0.247   5.321   9.000 -0.1886  0.0177 -0.4525
 6821TIP3   OH244657   1.981   2.165   8.051 -0.3019  1.0996 -0.1690
 6821TIP3    H144658   2.019   2.222   7.984 -0.5030 -0.5293 -1.7677
 6821TIP3    H244659   1.977   2.079   8.008  1.5452 -0.5354  2.6343
 6822TIP3   OH244660   3.105   2.144   9.299 -0.2733 -0.2342  0.2417
 6822TIP3    H144661   3.169   2.212   9.323  0.2706 -0.5075 -0.4098
 6822TIP3    H244662   3.033   2.193   9.260  0.2093 -0.0296 -0.4235
 6823TIP3   OH244663   0.619   2.699   7.421  0.9443  0.5437  0.7278
 6823TIP3    H144664   0.547   2.699   7.485 -1.5542  0.5821 -1.8851
 6823TIP3    H244665   0.683   2.639   7.458 -0.4911  0.3018  3.0990
 6824TIP3   OH244666   3.001   3.207  15.880  0.0528 -0.2873 -0.6347
 6824TIP3    H144667   3.002   3.297  15.845 -0.8622  0.6339  1.5404
 6824TIP3    H244668   3.090   3.176  15.868  0.3109  0.7797 -1.7420
 6825TIP3   OH244669   3.177   4.094   6.926  0.4404 -0.4088  0.6089
 6825TIP3    H144670   3.112   4.124   6.989  0.6382 -0.1393  0.6869
 6825TIP3    H244671   3.134   4.022   6.879 -0.2978  0.4427 -0.0490
 6826TIP3   OH244672   1.781   1.136   6.783  0.7535  0.0457 -0.2959
 6826TIP3    H144673   1.753   1.154   6.693  2.8068 -1.2162 -1.2694
 6826TIP3    H244674   1.805   1.221   6.819 -1.1767  0.7148 -0.5070
 6827TIP3   OH244675   3.227   3.671   6.669 -0.3436  0.6345  0.9025
 6827TIP3    H144676   3.273   3.590   6.690 -1.3636 -0.1960  0.0370
 6827TIP3    H244677   3.161   3.680   6.737  0.9452  1.7538  2.0651
 6828TIP3   OH244678   1.915   1.221   8.422  0.2867  0.6074 -0.1460
 6828TIP3    H144679   1.854   1.294   8.424  0.2209  0.6336 -1.6523
 6828TIP3    H244680   1.999   1.258   8.449  0.2851  1.2943 -1.0219
 6829TIP3   OH244681   6.711   1.451   8.846  0.0536 -0.5310  0.1244
 6829TIP3    H144682   6.792   1.480   8.804  0.0284 -1.5843 -0.7095
 6829TIP3    H244683   6.667   1.400   8.778 -2.0554  1.2744  0.0394
 6830TIP3   OH244684   5.205   5.982   7.434 -0.5577 -0.7442 -0.1692
 6830TIP3    H144685   5.216   6.031   7.353  0.5142  0.6730  0.7702
 6830TIP3    H244686   5.114   5.951   7.432 -0.2010 -1.8040 -2.4333
 6831TIP3   OH244687   0.802   0.352   9.244 -0.5775  0.3358 -0.4802
 6831TIP3    H144688   0.894   0.372   9.263 -0.5887  0.1855 -0.2652
 6831TIP3    H244689   0.804   0.267   9.200 -0.5011  0.9458 -1.6979
 6832TIP3   OH244690   3.771   3.827   7.969  0.5446  0.3503 -0.2954
 6832TIP3    H144691   3.857   3.787   7.984 -0.0161 -0.2314  1.7704
 6832TIP3    H244692   3.772   3.906   8.024 -0.3065  0.2027 -0.0570
 6833TIP3   OH244693   5.779   5.073   8.682  0.2740 -0.7001 -0.3846
 6833TIP3    H144694   5.725   5.130   8.737 -0.7659 -1.0811 -0.9738
 6833TIP3    H244695   5.757   5.098   8.592  0.4158 -1.4566 -0.6403
 6834TIP3   OH244696   1.572   6.535   8.277  0.2060  0.1888  0.5008
 6834TIP3    H144697   1.581   6.440   8.271 -0.0906  0.0083  2.3002
 6834TIP3    H244698   1.658   6.565   8.307  0.4989  0.5742 -0.6865
 6835TIP3   OH244699   6.423   4.364   7.378  0.3505 -0.0453  0.2091
 6835TIP3    H144700   6.402   4.406   7.461 -0.5522  0.9740 -0.5021
 6835TIP3    H244701   6.339   4.330   7.346  0.9171 -1.6808  0.3572
 6836TIP3   OH244702   0.296   1.331   8.613  0.1170 -0.5429  0.0514
 6836TIP3    H144703   0.392   1.334   8.618  0.2982 -2.0366 -1.5908
 6836TIP3    H244704   0.269   1.423   8.612  1.6453 -0.0753 -0.9932
 6837TIP3   OH244705   6.725   3.709   7.031  0.1012 -0.0800  0.0219
 6837TIP3    H144706   6.722   3.790   6.981 -0.7731 -0.2735 -0.2504
 6837TIP3    H244707   6.710   3.639   6.967  0.5430 -0.4426  0.3007
 6838TIP3   OH244708   3.753   0.366   7.606  0.4988 -0.0150 -0.3467
 6838TIP3    H144709   3.768   0.324   7.691 -0.0709  0.4792  0.0001
 6838TIP3    H244710   3.798   0.450   7.613 -1.6815  1.1727  0.4419
 6839TIP3   OH244711   6.176   3.267   9.882 -0.1994 -0.1100 -0.1235
 6839TIP3    H144712   6.268   3.243   9.872 -0.2137  0.0720 -0.7001
 6839TIP3    H244713   6.131   3.223   9.810 -0.6744 -0.7384  0.5365
 6840TIP3   OH244714   4.959   3.629   7.072 -0.6740 -0.7171  0.4592
 6840TIP3    H144715   4.884   3.688   7.063 -0.0805  0.2080  1.3698
 6840TIP3    H244716   4.943   3.583   7.154 -0.0939 -0.2880  0.8170
 6841TIP3   OH244717   1.743   2.412   8.447  0.1015  0.2710 -0.2530
 6841TIP3    H144718   1.751   2.440   8.538  0.0427  0.9937 -0.4607
 6841TIP3    H244719   1.662   2.453   8.417 -0.3955 -0.7564 -0.3571
 6842TIP3   OH244720   3.293   6.665   8.189 -0.0524 -0.1076  0.0560
 6842TIP3    H144721   3.333   6.679   8.275 -0.2104  0.2742  0.0689
 6842TIP3    H244722   3.239   6.587   8.200  0.2311 -0.2867  0.1968
 6843TIP3   OH244723   4.825   6.530   9.135  0.4415 -0.2308 -0.1013
 6843TIP3    H144724   4.764   6.547   9.063  1.3655  0.9797 -0.6455
 6843TIP3    H244725   4.822   6.609   9.189  1.6944 -0.0266 -0.2850
 6844TIP3   OH244726   0.209   1.735   6.757 -0.2790 -0.6216  0.2738
 6844TIP3    H144727   0.115   1.743   6.740 -0.4547 -0.2507  1.3425
 6844TIP3    H244728   0.215   1.687   6.839  0.4604 -0.4770  0.3135
 6845TIP3   OH244729   1.994   3.294   8.230  0.7542 -0.5820  0.4252
 6845TIP3    H144730   1.965   3.330   8.313 -1.5792 -2.4290  0.5231
 6845TIP3    H244731   1.984   3.199   8.241 -0.4775 -0.8447 -2.1930
 6846TIP3   OH244732   0.488   2.423   7.807 -0.3143 -0.0869  0.3460
 6846TIP3    H144733   0.575   2.390   7.830 -0.4755 -0.0403  1.0384
 6846TIP3    H244734   0.452   2.358   7.747 -0.1781 -0.5871  0.8033
 6847TIP3   OH244735   4.061   3.747   6.825  0.1799  0.7581 -0.3823
 6847TIP3    H144736   4.033   3.839   6.825 -1.4660  0.2914 -1.4508
 6847TIP3    H244737   4.040   3.715   6.737 -0.0242 -0.8670  0.2237
 6848TIP3   OH244738   5.471   0.650   6.345 -0.2070 -0.2710 -0.1938
 6848TIP3    H144739   5.550   0.673   6.394  0.9114  0.4290 -2.1980
 6848TIP3    H244740   5.419   0.731   6.344 -0.0314 -0.1571 -0.4699
 6849TIP3   OH244741   6.491   2.253   8.000  0.3850  0.5753  0.1812
 6849TIP3    H144742   6.555   2.305   7.953  0.8074  0.5960  0.7760
 6849TIP3    H244743   6.416   2.311   8.011  0.1184  0.4348 -0.8271
 6850TIP3   OH244744   1.004   3.784  10.167 -0.6944 -0.3856 -0.0328
 6850TIP3    H144745   0.946   3.859  10.153 -0.9283 -0.4783  0.4280
 6850TIP3    H244746   0.986   3.756  10.257  0.0245 -0.4510  0.0951
 6851TIP3   OH244747   4.228   0.672   8.735  0.3074 -0.3377  0.0685
 6851TIP3    H144748   4.208   0.611   8.807 -0.8768  1.5243  1.4105
 6851TIP3    H244749   4.277   0.743   8.777  1.2532 -0.1047 -1.3659
 6852TIP3   OH244750   4.010   4.600   8.423  0.5198 -0.5363  0.6419
 6852TIP3    H144751   3.929   4.641   8.453 -1.2841 -2.0229 -1.7698
 6852TIP3    H244752   4.065   4.593   8.501 -1.5295  0.8431  2.2961
 6853TIP3   OH244753   2.108   5.378   7.063  0.5912  0.3367  0.1186
 6853TIP3    H144754   2.115   5.474   7.064 -0.9452  0.4707  0.7849
 6853TIP3    H244755   2.020   5.361   7.028  0.1914 -0.7643  1.5858
 6854TIP3   OH244756   4.558   6.143   8.194  0.2767 -0.9204  0.0884
 6854TIP3    H144757   4.512   6.225   8.214  0.5247 -0.8484  0.3688
 6854TIP3    H244758   4.488   6.078   8.186 -0.0195 -0.4632 -1.2913
 6855TIP3   OH244759   6.079   0.816   7.848 -0.2485 -0.3052 -0.0096
 6855TIP3    H144760   6.086   0.906   7.817 -0.1658 -0.1794  0.3692
 6855TIP3    H244761   5.995   0.813   7.894  0.2140 -0.1491  0.8564
 6856TIP3   OH244762   6.142   0.826   9.142  0.4564  0.2138 -0.0161
 6856TIP3    H144763   6.129   0.913   9.106  0.1862  0.0970 -0.2051
 6856TIP3    H244764   6.092   0.825   9.223 -0.0814  0.0189 -0.3487
 6857TIP3   OH244765   3.487   2.011   7.191  0.1259  0.7223 -0.5056
 6857TIP3    H144766   3.576   1.975   7.191 -0.5191 -1.0600 -2.2928
 6857TIP3    H244767   3.468   2.025   7.098 -1.9327 -0.2492 -0.2801
 6858TIP3   OH244768   1.117   3.138   9.047 -0.8437 -0.3891  0.0996
 6858TIP3    H144769   1.066   3.213   9.077  1.3929  0.1679  2.9597
 6858TIP3    H244770   1.075   3.063   9.088 -2.4513 -0.6936 -1.9234
 6859TIP3   OH244771   3.427   2.097   7.920  0.2323 -0.4891  0.4441
 6859TIP3    H144772   3.456   2.069   7.833 -2.2411 -1.1889 -0.2433
 6859TIP3    H244773   3.488   2.054   7.980  0.5616 -1.9623 -0.8741
 6860TIP3   OH244774   2.391   3.755   6.880 -0.0303  0.1178 -0.2513
 6860TIP3    H144775   2.420   3.664   6.876  1.8568  0.7151 -2.8140
 6860TIP3    H244776   2.463   3.801   6.924 -1.4305  0.3089  2.0023
 6861TIP3   OH244777   0.698   1.216   6.985  0.3667  0.4681 -0.3196
 6861TIP3    H144778   0.774   1.235   6.930 -0.6295  1.7248 -1.3012
 6861TIP3    H244779   0.635   1.174   6.927  0.2348 -0.4949  0.4740
 6862TIP3   OH244780   1.544   5.010   6.936 -0.5422 -0.4176 -0.0649
 6862TIP3    H144781   1.575   4.941   6.995 -1.8028 -1.0846 -0.1488
 6862TIP3    H244782   1.555   4.973   6.848 -0.9474 -0.4021 -0.1245
 6863TIP3   OH244783   3.172   3.748   7.111 -0.0633 -0.2780 -0.0185
 6863TIP3    H144784   3.154   3.756   7.017  0.8341 -0.5581 -0.2258
 6863TIP3    H244785   3.266   3.764   7.119 -0.1659 -0.0379  0.8658
 6864TIP3   OH244786   4.361   5.801   8.577 -0.1356 -0.0272 -0.1961
 6864TIP3    H144787   4.338   5.812   8.669  2.4459  0.3754  0.4828
 6864TIP3    H244788   4.353   5.889   8.540 -1.2643 -0.2065 -0.3865
 6865TIP3   OH244789   5.967   5.013   7.207  0.2079 -0.0753 -0.5948
 6865TIP3    H144790   5.944   5.105   7.198  0.7629  0.2049  0.6160
 6865TIP3    H244791   5.914   4.982   7.280 -0.1301 -0.7813 -1.1252
 6866TIP3   OH244792   2.816   2.722   6.853 -0.2260  0.2438  0.5918
 6866TIP3    H144793   2.727   2.688   6.851 -0.0936 -0.0877  0.2132
 6866TIP3    H244794   2.853   2.698   6.768  0.2326  0.3491  0.7586
 6867TIP3   OH244795   3.797   5.943   6.825 -0.1827 -0.1078 -0.0947
 6867TIP3    H144796   3.789   5.954   6.920 -0.9903 -1.1868 -0.0231
 6867TIP3    H244797   3.730   6.001   6.789  0.7512  1.0241 -0.0662
 6868TIP3   OH244798   6.450   2.220   6.788 -0.0647 -0.0367 -0.1539
 6868TIP3    H144799   6.355   2.213   6.797 -0.1079 -1.1799 -1.2079
 6868TIP3    H244800   6.483   2.135   6.815  0.6901  0.4379  0.4472
 6869TIP3   OH244801   6.130   2.603   7.313  0.3157 -0.5429 -0.0602
 6869TIP3    H144802   6.110   2.529   7.371  2.1512 -0.8435  0.2547
 6869TIP3    H244803   6.136   2.564   7.226 -2.9676 -0.0078 -0.6505
 6870TIP3   OH244804   5.216   6.137   8.797  0.5697  0.6329 -0.4976
 6870TIP3    H144805   5.246   6.083   8.724 -2.2949 -2.7755  0.5294
 6870TIP3    H244806   5.172   6.211   8.756 -0.0987 -0.6683 -2.2756
 6871TIP3   OH244807   2.337   6.265   8.700  0.1601  0.6005 -0.0764
 6871TIP3    H144808   2.428   6.249   8.675  0.2549  0.5481  0.2952
 6871TIP3    H244809   2.340   6.280   8.794 -0.2636  0.2362  0.0020
 6872TIP3   OH244810   3.278   6.335   8.151  0.2400  0.5450 -0.3053
 6872TIP3    H144811   3.361   6.330   8.104 -0.2354 -0.0176 -1.0958
 6872TIP3    H244812   3.298   6.303   8.239  0.2629 -2.3998 -1.2849
 6873TIP3   OH244813   4.102   4.049   7.927 -0.0189  0.2964 -0.0866
 6873TIP3    H144814   4.131   4.040   7.836 -0.9815 -2.8937 -0.2118
 6873TIP3    H244815   4.153   3.983   7.975 -1.3437  0.1245  1.1741
 6874TIP3   OH244816   2.392   1.963   8.771 -0.8915  0.1596  0.4417
 6874TIP3    H144817   2.380   1.985   8.679  0.7206  0.4765  0.2787
 6874TIP3    H244818   2.313   1.913   8.794 -0.6663 -1.2154 -1.5140
 6875TIP3   OH244819   0.296   0.751   8.993 -0.6646 -0.0134  0.7200
 6875TIP3    H144820   0.201   0.758   8.986 -1.0975 -3.4995  1.2360
 6875TIP3    H244821   0.319   0.673   8.943  2.1113  1.1742 -0.1070
 6876TIP3   OH244822   3.866   3.841   8.358 -0.1082 -0.1845 -0.0367
 6876TIP3    H144823   3.778   3.859   8.390  0.1208  0.5461  0.2167
 6876TIP3    H244824   3.922   3.899   8.410  0.4131  0.1042 -0.9059
 6877TIP3   OH244825   6.519   5.090   8.682  0.1749  0.7397 -0.2172
 6877TIP3    H144826   6.547   5.067   8.771 -2.4217  2.3953  1.1576
 6877TIP3    H244827   6.442   5.146   8.695 -2.7274 -1.9768 -3.5238
 6878TIP3   OH244828   2.544   0.732   7.245  0.3337 -0.0387  0.2845
 6878TIP3    H144829   2.570   0.669   7.178  1.6285  0.3365  0.4002
 6878TIP3    H244830   2.521   0.811   7.196 -1.0810 -0.4940  0.1540
 6879TIP3   OH244831   1.259   3.388   7.940 -0.2066 -0.2927 -0.1071
 6879TIP3    H144832   1.329   3.324   7.950  1.3184  1.0550 -1.4056
 6879TIP3    H244833   1.284   3.460   7.999 -0.2279  0.4004 -0.9286
 6880TIP3   OH244834   4.952   2.847   9.223 -0.1944  0.5052 -0.1328
 6880TIP3    H144835   4.915   2.773   9.271 -0.4530  1.6795  1.5552
 6880TIP3    H244836   5.047   2.833   9.228 -0.2317  0.4331  0.4392
 6881TIP3   OH244837   0.533   0.990   6.897 -0.3192  0.4791 -0.4178
 6881TIP3    H144838   0.526   0.949   6.983 -1.8433  0.4066 -0.5451
 6881TIP3    H244839   0.445   1.024   6.880 -0.1455  0.1745 -2.0991
 6882TIP3   OH244840   4.364   1.594   8.480  0.3952 -0.7677  0.3846
 6882TIP3    H144841   4.359   1.675   8.531  1.8137  0.1468 -0.8087
 6882TIP3    H244842   4.412   1.620   8.400 -1.6980 -2.1183 -1.4066
 6883TIP3   OH244843   6.023   0.817   7.161 -0.0758  0.6497  0.2434
 6883TIP3    H144844   5.963   0.794   7.090 -2.7027  0.2654  2.4358
 6883TIP3    H244845   5.978   0.886   7.209  0.7351 -0.3525  2.5745
 6884TIP3   OH244846   2.639   5.294   9.087  0.8576  0.2638  0.1175
 6884TIP3    H144847   2.662   5.216   9.139  0.1286  0.6357  1.0299
 6884TIP3    H244848   2.681   5.366   9.134  1.8283  0.4106 -0.9218
 6885TIP3   OH244849   0.186   2.487   8.316  0.1539 -0.5620 -0.5051
 6885TIP3    H144850   0.121   2.483   8.385 -0.8573  1.4734 -1.2489
 6885TIP3    H244851   0.236   2.567   8.334  1.6316 -1.4062 -0.6674
 6886TIP3   OH244852   4.747   4.796   9.291  0.2339  0.2306 -0.2708
 6886TIP3    H144853   4.711   4.813   9.378  1.4229 -0.9211  0.4945
 6886TIP3    H244854   4.794   4.877   9.269  0.4204  0.3283  0.4333
 6887TIP3   OH244855   1.745   1.731   8.779  0.2662 -0.4104 -0.0481
 6887TIP3    H144856   1.693   1.776   8.712 -0.2720  0.0226  0.6496
 6887TIP3    H244857   1.745   1.639   8.752  1.3488 -0.0332 -1.4736
 6888TIP3   OH244858   1.476   4.703   7.369 -0.0187  0.5776  0.0892
 6888TIP3    H144859   1.403   4.641   7.373  1.1769 -0.9596 -0.5564
 6888TIP3    H244860   1.494   4.726   7.460  0.0662 -0.7264  0.4157
 6889TIP3   OH244861   4.481   5.717   7.536 -0.3144  0.1548  0.1898
 6889TIP3    H144862   4.524   5.770   7.469 -0.1072  0.1233  0.2969
 6889TIP3    H244863   4.542   5.718   7.610 -1.1732  1.3964  0.9275
 6890TIP3   OH244864   5.014   3.188   6.813  0.4349 -0.0079 -0.1048
 6890TIP3    H144865   5.001   3.276   6.779 -2.3131 -0.5698 -0.8190
 6890TIP3    H244866   5.071   3.198   6.889 -0.8772  2.5613  0.6220
 6891TIP3   OH244867   5.229   0.048   9.241  0.6637  0.6813 -0.2815
 6891TIP3    H144868   5.223  -0.047   9.251 -0.5485  0.6553 -0.9771
 6891TIP3    H244869   5.194   0.082   9.323  1.1867  0.5380  0.0081
 6892TIP3   OH244870   0.870   3.520   7.588 -0.1809  0.1954 -0.1260
 6892TIP3    H144871   0.941   3.580   7.610 -0.2537  0.3775 -0.3951
 6892TIP3    H244872   0.799   3.576   7.556 -0.3831 -0.0005 -0.0284
 6893TIP3   OH244873   1.407   4.016   8.099 -0.0462 -0.5705  0.1829
 6893TIP3    H144874   1.482   3.957   8.091 -0.2584 -0.8286  0.0932
 6893TIP3    H244875   1.347   3.971   8.158 -0.5517 -0.8098 -0.4955
 6894TIP3   OH244876   2.404   5.417   8.801  0.3409  0.2802  0.5128
 6894TIP3    H144877   2.389   5.414   8.707 -0.3963 -1.6436  0.6423
 6894TIP3    H244878   2.489   5.459   8.810  0.2766  0.7898 -0.9881
 6895TIP3   OH244879   1.726   4.886   8.979  0.2478  0.3107 -0.1843
 6895TIP3    H144880   1.751   4.955   9.041  0.2276  0.3171 -0.1829
 6895TIP3    H244881   1.806   4.837   8.963  0.4428  0.8183 -0.8032
 6896TIP3   OH244882   6.517   2.462   9.355  0.0452 -0.2467 -0.1308
 6896TIP3    H144883   6.440   2.430   9.402  0.5295  0.9798  1.5863
 6896TIP3    H244884   6.571   2.384   9.341  0.7232 -0.4458  3.0123
 6897TIP3   OH244885   2.914   1.369   9.445 -0.1056 -0.5070  0.2333
 6897TIP3    H144886   2.848   1.420   9.398  0.5689 -0.0876 -0.2725
 6897TIP3    H244887   2.997   1.392   9.403  0.5577  0.0588  1.7797
 6898TIP3   OH244888   0.264   3.577   6.502  0.5055  0.5986 -0.3259
 6898TIP3    H144889   0.230   3.666   6.499 -0.1876  0.3584  0.1103
 6898TIP3    H244890   0.353   3.586   6.536  0.1925  1.0593  0.3779
 6899TIP3   OH244891   1.540   5.995   9.359  0.2693  0.0158 -0.1942
 6899TIP3    H144892   1.600   5.956   9.296 -0.0442  0.8543 -1.0368
 6899TIP3    H244893   1.505   5.920   9.408  0.7012 -0.6322 -0.8492
 6900TIP3   OH244894   2.758   0.515   7.427  0.0097  0.0745 -0.3418
 6900TIP3    H144895   2.811   0.473   7.360  0.6845 -0.7237  0.6506
 6900TIP3    H244896   2.779   0.608   7.420  0.6900 -0.1009 -0.7005
 6901TIP3   OH244897   6.235   4.634   9.134 -0.4298 -0.4687  0.0200
 6901TIP3    H144898   6.175   4.563   9.110 -2.2124  0.9683  0.0107
 6901TIP3    H244899   6.254   4.619   9.227 -3.5711  0.8660  1.0077
 6902TIP3   OH244900   5.860   6.758   6.554  0.1869  0.3050 -0.4007
 6902TIP3    H144901   5.855   6.663   6.553 -1.3851  0.3111 -2.6986
 6902TIP3    H244902   5.770   6.787   6.574  0.3831  1.2663 -0.8207
 6903TIP3   OH244903   0.844   2.364   8.876  0.0296 -0.6024  0.2690
 6903TIP3    H144904   0.868   2.294   8.816  0.3606  0.8604 -1.3911
 6903TIP3    H244905   0.871   2.445   8.831 -0.2317  0.5959  2.1444
 6904TIP3   OH244906   1.321   6.332   7.561  0.0470  0.6141 -0.1867
 6904TIP3    H144907   1.231   6.302   7.550  0.4008 -0.2312 -0.8839
 6904TIP3    H244908   1.360   6.268   7.621  0.5574  0.1874 -0.9648
 6905TIP3   OH244909   3.999   5.620   7.281  0.0034 -0.6410 -0.2101
 6905TIP3    H144910   4.007   5.554   7.350  1.0827 -0.9368 -0.6068
 6905TIP3    H244911   4.040   5.581   7.205  0.9339  0.5977 -0.3663
 6906TIP3   OH244912   5.710   5.739   7.901  0.3614  0.3558 -0.5311
 6906TIP3    H144913   5.658   5.800   7.850 -0.3108  0.9697  0.8529
 6906TIP3    H244914   5.727   5.666   7.842  0.7220  1.6186 -2.0409
 6907TIP3   OH244915   4.934   3.313   8.199 -0.2657 -0.0760  0.6567
 6907TIP3    H144916   4.976   3.267   8.271 -2.6529  0.1266  2.2779
 6907TIP3    H244917   4.902   3.244   8.141  0.1702 -0.2811  0.6576
 6908TIP3   OH244918   3.867   4.479   8.160  0.0387  0.2429  0.0871
 6908TIP3    H144919   3.882   4.563   8.203 -1.4365  1.0146 -0.8046
 6908TIP3    H244920   3.927   4.480   8.085  2.0763 -0.7879  1.5999
 6909TIP3   OH244921   5.403   1.832   8.406  0.8884  0.0315  0.1873
 6909TIP3    H144922   5.463   1.759   8.422  1.0982  0.3538  0.9245
 6909TIP3    H244923   5.434   1.902   8.464  0.2060  0.4315  0.0834
 6910TIP3   OH244924   3.765   2.112   9.198  0.3287 -0.2335 -0.0954
 6910TIP3    H144925   3.792   2.025   9.169  0.1699 -0.6990  1.0968
 6910TIP3    H244926   3.846   2.161   9.211  0.3929  0.3407 -2.2610
 6911TIP3   OH244927   3.065   6.608   7.520  0.1721  0.4940 -0.8980
 6911TIP3    H144928   3.153   6.602   7.559  0.5191 -0.2339 -1.7317
 6911TIP3    H244929   3.081   6.640   7.431 -0.5912  2.0129 -0.5107
 6912TIP3   OH244930   2.186   4.043   6.807 -0.0136  0.3554 -0.2532
 6912TIP3    H144931   2.228   4.129   6.813  1.2364 -0.2309 -0.1675
 6912TIP3    H244932   2.226   3.992   6.877 -1.1069 -0.1536  0.0093
 6913TIP3   OH244933   2.265   5.343   7.503  0.0828 -0.0668  0.1307
 6913TIP3    H144934   2.310   5.312   7.424  0.1303  1.2190 -0.3651
 6913TIP3    H244935   2.173   5.321   7.487  0.3596 -1.8366  0.7327
 6914TIP3   OH244936   2.786   5.722   9.844  0.3043 -0.0168 -0.0340
 6914TIP3    H144937   2.871   5.680   9.828  1.1827  1.6727 -0.0603
 6914TIP3    H244938   2.793   5.806   9.799 -1.2072  0.3646  0.4059
 6915TIP3   OH244939   2.520   5.922   7.779  0.3837  0.2839 -0.2316
 6915TIP3    H144940   2.536   6.004   7.827 -5.3208  0.0805  3.0126
 6915TIP3    H244941   2.456   5.946   7.712  0.0508 -1.1960 -0.4803
 6916TIP3   OH244942   0.564   1.009   9.274  0.0444  0.2462  0.1600
 6916TIP3    H144943   0.483   0.978   9.316  0.4613 -1.4834 -0.2353
 6916TIP3    H244944   0.627   1.017   9.346  0.1357 -0.5787  0.1794
 6917TIP3   OH244945   2.614   1.509   8.376 -0.4904 -0.3693 -0.0092
 6917TIP3    H144946   2.559   1.433   8.358  0.4017 -1.0504  0.0645
 6917TIP3    H244947   2.651   1.491   8.463  1.1650 -0.7594 -0.7588
 6918TIP3   OH244948   4.801   4.154   8.234  0.2466 -0.2995 -0.5410
 6918TIP3    H144949   4.872   4.124   8.177  2.0252  2.7653 -0.1729
 6918TIP3    H244950   4.756   4.221   8.183 -1.4743 -1.1044 -0.1645
 6919TIP3   OH244951   3.154   1.727   8.123  0.0306 -0.2588  0.0265
 6919TIP3    H144952   3.160   1.747   8.029 -0.7624  0.3008  0.0833
 6919TIP3    H244953   3.149   1.813   8.165  0.1922 -0.5138  0.5656
 6920TIP3   OH244954   6.357   6.401   6.749 -0.3773  0.0019 -0.4487
 6920TIP3    H144955   6.449   6.385   6.728  0.3150  1.6610  1.0252
 6920TIP3    H244956   6.328   6.321   6.792  0.8517 -0.0081  0.4232
 6921TIP3   OH244957   2.883   6.314   9.627  0.3301  0.4892 -0.4959
 6921TIP3    H144958   2.813   6.249   9.632  0.0623  0.8550  0.9128
 6921TIP3    H244959   2.929   6.293   9.546  0.0656 -1.2650 -0.2323
 6922TIP3   OH244960   0.996   4.930   6.883  0.1281 -0.0477 -0.1623
 6922TIP3    H144961   0.981   4.907   6.975  1.3112 -1.2596 -0.2404
 6922TIP3    H244962   0.937   5.004   6.867 -1.5347 -1.0375  1.0221
 6923TIP3   OH244963   0.827   6.668   7.683 -0.1302 -0.1893 -0.2229
 6923TIP3    H144964   0.771   6.608   7.732 -0.7180  0.5975  0.1000
 6923TIP3    H244965   0.898   6.689   7.743 -1.0696  1.1004  0.5001
 6924TIP3   OH244966   2.836   0.167   8.256  0.1734 -0.3449 -0.3075
 6924TIP3    H144967   2.764   0.166   8.319  0.7031 -1.9371  0.3313
 6924TIP3    H244968   2.820   0.244   8.201 -2.2643 -0.8963 -0.4755
 6925TIP3   OH244969   5.571   4.533   8.000  0.1081 -0.2926  0.5449
 6925TIP3    H144970   5.488   4.553   8.044  0.5465  1.1963  0.7753
 6925TIP3    H244971   5.637   4.582   8.049  1.4839 -3.0017  1.5836
 6926TIP3   OH244972   0.975   6.344   7.781  0.0736  0.0355 -0.4122
 6926TIP3    H144973   1.000   6.289   7.855  1.0916  0.9999 -0.0192
 6926TIP3    H244974   0.915   6.409   7.819 -0.7025 -0.4459 -0.7726
 6927TIP3   OH244975   6.402   0.090   8.843  0.0932 -0.3245  0.0855
 6927TIP3    H144976   6.373   0.182   8.840  1.0014 -0.0324 -0.0179
 6927TIP3    H244977   6.460   0.081   8.768  1.9370 -0.3123  1.4553
 6928TIP3   OH244978   1.217   1.808   7.089  0.5491  0.3327 -0.3709
 6928TIP3    H144979   1.124   1.820   7.106  0.4436  0.2903 -0.8834
 6928TIP3    H244980   1.261   1.874   7.142  0.1750  0.8529 -0.7056
 6929TIP3   OH244981   0.543   3.586   8.174 -0.6837  0.6999  0.5169
 6929TIP3    H144982   0.565   3.580   8.267  0.4817  1.4441  0.3133
 6929TIP3    H244983   0.628   3.597   8.131 -1.2755  1.1123 -0.5706
 6930TIP3   OH244984   5.788   4.934   7.462 -0.6885  0.0052  0.2394
 6930TIP3    H144985   5.709   4.896   7.424 -0.4489  1.4563 -1.9445
 6930TIP3    H244986   5.757   4.986   7.536 -1.4815 -1.1969  0.7687
 6931TIP3   OH244987   5.593   5.889   9.371  0.1485 -0.2495  0.2371
 6931TIP3    H144988   5.662   5.950   9.346 -0.2462  0.4635  0.8369
 6931TIP3    H244989   5.616   5.862   9.460  0.1255 -0.6910  0.1107
 6932TIP3   OH244990   5.971   3.790   7.819 -0.3449 -0.8773 -0.8673
 6932TIP3    H144991   5.878   3.776   7.804 -0.6898  0.0266  0.3138
 6932TIP3    H244992   6.011   3.704   7.801 -1.5484 -1.6021 -0.2212
 6933TIP3   OH244993   4.112   1.713   7.510 -0.2763  0.0755 -0.5474
 6933TIP3    H144994   4.074   1.638   7.556  1.0421  1.1019  2.5069
 6933TIP3    H244995   4.052   1.786   7.528 -0.7466  0.1175 -2.1796
 6934TIP3   OH244996   5.594   3.673  10.197 -0.0794  0.1834 -0.3470
 6934TIP3    H144997   5.533   3.659  10.125  0.8460 -0.5537 -1.0011
 6934TIP3    H244998   5.627   3.586  10.219  0.5864  0.5407  0.1391
 6935TIP3   OH244999   0.992   2.772   6.786 -0.0411 -0.4489  0.0167
 6935TIP3    H145000   1.039   2.843   6.743 -1.0338  0.1354 -0.1462
 6935TIP3    H245001   0.983   2.801   6.877 -0.3919 -0.3802 -0.0361
 6936TIP3   OH245002   4.157   3.251   7.550 -0.4530  0.3293 -0.0184
 6936TIP3    H145003   4.165   3.336   7.593 -1.4988 -0.1832  1.2455
 6936TIP3    H245004   4.079   3.212   7.588 -0.2952 -0.9914 -0.9734
 6937TIP3   OH245005   2.702   1.562   7.278  0.2705 -0.0891 -0.1722
 6937TIP3    H145006   2.648   1.610   7.214 -0.1427  0.3974  0.5265
 6937TIP3    H245007   2.658   1.577   7.362  1.0954 -0.2913  0.3043
 6938TIP3   OH245008   2.590   5.491   7.975 -0.4453  0.5259 -0.3582
 6938TIP3    H145009   2.598   5.561   7.911  0.3684  1.7166  1.0055
 6938TIP3    H245010   2.674   5.491   8.022 -1.7017  1.0365  2.0338
 6939TIP3   OH245011   6.738   0.188   7.764  0.5197 -0.3506 -0.0260
 6939TIP3    H145012   6.792   0.267   7.765  0.6850 -0.4178 -1.4444
 6939TIP3    H245013   6.787   0.125   7.818  0.3656  0.5065  1.1378
 6940TIP3   OH245014   3.440   2.017   6.474 -0.0417 -0.3297  0.1969
 6940TIP3    H145015   3.486   1.937   6.497 -0.7159 -0.7787  0.0210
 6940TIP3    H245016   3.354   2.008   6.515 -0.7034 -0.4364 -1.1654
 6941TIP3   OH245017   2.827   2.051   6.956  0.6261 -0.4017 -0.1107
 6941TIP3    H145018   2.788   2.026   6.872 -0.5421  3.0267 -0.7512
 6941TIP3    H245019   2.885   2.124   6.934  1.7528 -0.6591  1.8435
 6942TIP3   OH245020   1.454   1.381   8.461  0.1532  0.9842  0.2300
 6942TIP3    H145021   1.447   1.477   8.454  2.7631  1.3949  1.9840
 6942TIP3    H245022   1.468   1.364   8.554 -1.8063 -1.3177  0.2079
 6943TIP3   OH245023   1.407   5.236   8.704 -0.5494  0.2203  0.6453
 6943TIP3    H145024   1.385   5.199   8.790  1.6312 -0.1843  1.0756
 6943TIP3    H245025   1.499   5.260   8.710  0.2463 -1.5762 -2.1621
 6944TIP3   OH245026   5.138   0.575   8.669 -0.1714  0.1885 -0.3235
 6944TIP3    H145027   5.171   0.548   8.583 -1.3067 -1.2287 -0.3577
 6944TIP3    H245028   5.127   0.493   8.717 -1.5688  0.7781  0.4113
 6945TIP3   OH245029   4.200   6.275   7.624 -0.0064  0.3446  0.2278
 6945TIP3    H145030   4.160   6.233   7.548  1.2163  1.8120 -1.3050
 6945TIP3    H245031   4.284   6.229   7.635 -1.1065 -1.3643  2.1653
 6946TIP3   OH245032   3.701   2.830   7.804  0.4762  0.3893 -0.0260
 6946TIP3    H145033   3.714   2.803   7.714  2.2971  1.3935 -0.1161
 6946TIP3    H245034   3.667   2.920   7.798 -0.9045 -0.0850  0.3025
 6947TIP3   OH245035   2.373   2.653   6.621  0.1753  0.4998 -0.1444
 6947TIP3    H145036   2.451   2.618   6.664 -1.1163 -0.2300  1.7037
 6947TIP3    H245037   2.373   2.613   6.534  1.2546 -0.3767  0.2449
 6948TIP3   OH245038   0.535   2.993   9.549  0.0314 -0.3640  0.3230
 6948TIP3    H145039   0.617   2.997   9.599  0.8020  2.0346 -0.9659
 6948TIP3    H245040   0.551   2.928   9.481  1.0624  0.3783 -0.1694
 6949TIP3   OH245041   5.059   1.351   6.841 -0.2170 -0.2905  0.2291
 6949TIP3    H145042   5.140   1.400   6.854  0.3978 -1.0980 -0.4007
 6949TIP3    H245043   4.989   1.413   6.863  0.5537  0.5767  0.3011
 6950TIP3   OH245044   5.381   6.442   7.807 -0.2528  0.0778 -0.1400
 6950TIP3    H145045   5.431   6.414   7.883  0.2736 -1.1419 -0.9075
 6950TIP3    H245046   5.294   6.404   7.820 -0.3718  0.4575  0.1849
 6951TIP3   OH245047   5.102   1.662   7.061  0.4743  0.3285 -0.2245
 6951TIP3    H145048   5.161   1.689   6.991  0.7703  0.2546 -0.0037
 6951TIP3    H245049   5.046   1.596   7.021  1.8333 -1.0708  0.0867
 6952TIP3   OH245050   1.169   3.664   6.789 -0.1672 -0.1890  0.5562
 6952TIP3    H145051   1.130   3.720   6.856 -0.6782 -0.1793  0.2572
 6952TIP3    H245052   1.136   3.576   6.808 -1.3582  0.0062 -0.4149
 6953TIP3   OH245053   3.096   2.897   7.015 -0.0850  0.2285  0.6843
 6953TIP3    H145054   3.131   2.809   7.028  0.7750 -0.2245 -3.2257
 6953TIP3    H245055   3.007   2.893   7.050  0.5577 -1.5881  2.2837
 6954TIP3   OH245056   1.481   2.810   7.499  0.1753  0.4299 -0.3361
 6954TIP3    H145057   1.422   2.855   7.559  0.0068 -2.1390  1.6239
 6954TIP3    H245058   1.563   2.857   7.506  0.1334  0.2797  1.9436
 6955TIP3   OH245059   1.479   1.312   8.773 -0.0261  0.8386  0.2299
 6955TIP3    H145060   1.479   1.362   8.855  1.6391  0.5343  0.4538
 6955TIP3    H245061   1.446   1.226   8.798  1.8213  0.2787  0.9505
 6956TIP3   OH245062   2.922   6.041   7.769 -0.1811 -0.1468 -0.3266
 6956TIP3    H145063   2.863   6.018   7.697  2.0736 -1.4502 -1.8998
 6956TIP3    H245064   2.925   6.136   7.768 -1.4047 -0.0921 -0.8870
 6957TIP3   OH245065   1.359   4.565   8.373  0.2305 -0.1694 -0.4990
 6957TIP3    H145066   1.290   4.597   8.431 -0.9535 -1.3968 -1.1936
 6957TIP3    H245067   1.322   4.571   8.285  0.5606 -1.9383 -0.7844
 6958TIP3   OH245068   4.596   5.816   7.022 -0.0159  0.2421 -0.2407
 6958TIP3    H145069   4.659   5.811   6.951 -2.0270  1.0203 -2.1764
 6958TIP3    H245070   4.546   5.895   7.005 -1.9961 -0.7084  0.7924
 6959TIP3   OH245071   5.108   0.024   7.192  0.1169 -0.5133 -0.0652
 6959TIP3    H145072   5.101  -0.008   7.282 -0.5584 -0.3184 -0.0418
 6959TIP3    H245073   5.106   0.120   7.201  1.0433 -0.4741 -0.2163
 6960TIP3   OH245074   0.316   3.148   6.859  0.3179  0.1574  0.1216
 6960TIP3    H145075   0.228   3.128   6.829  0.9424 -0.0259 -1.7148
 6960TIP3    H245076   0.364   3.066   6.847  1.4116  0.9932 -1.6898
 6961TIP3   OH245077   2.511   3.336   8.754  0.5616 -0.0057  0.3059
 6961TIP3    H145078   2.430   3.379   8.781  2.0108  2.4615  1.0231
 6961TIP3    H245079   2.495   3.308   8.664 -0.1973  3.0781 -0.6217
 6962TIP3   OH245080   0.085   4.961   8.050  0.5252 -0.0932 -0.2164
 6962TIP3    H145081   0.123   4.972   7.963 -0.2704 -0.0054 -0.5648
 6962TIP3    H245082   0.071   5.050   8.081  2.0472 -0.1109  0.5736
 6963TIP3   OH245083   6.329   6.280   8.476 -0.3716  0.3230  0.6058
 6963TIP3    H145084   6.380   6.360   8.488 -0.3040  0.0669  2.3285
 6963TIP3    H245085   6.342   6.231   8.557 -1.5000 -0.8201  0.1347
 6964TIP3   OH245086   5.299   1.452   8.448 -0.2069 -0.0385  0.2635
 6964TIP3    H145087   5.315   1.360   8.469 -2.4142 -0.4215  0.4669
 6964TIP3    H245088   5.252   1.451   8.365 -1.2438  0.8271  0.8107
 6965TIP3   OH245089   1.431   5.246   8.175  0.1673  0.4167  0.1258
 6965TIP3    H145090   1.418   5.288   8.260 -1.5448  0.4294 -0.0996
 6965TIP3    H245091   1.497   5.299   8.132  0.4396  0.9179  1.1187
 6966TIP3   OH245092   6.215   6.082   9.068 -0.2253  0.2030  0.1900
 6966TIP3    H145093   6.310   6.074   9.068 -0.2084  0.2229 -1.0582
 6966TIP3    H245094   6.186   6.020   9.135  0.5854 -1.1778 -0.6735
 6967TIP3   OH245095   0.517   5.005   9.417  0.3757 -0.2464 -0.0867
 6967TIP3    H145096   0.542   5.070   9.351 -0.3656  0.9477  0.7703
 6967TIP3    H245097   0.531   5.050   9.501 -0.4370 -1.0965  0.5186
 6968TIP3   OH245098   5.931   6.167   7.490 -0.2055 -0.0874 -0.1355
 6968TIP3    H145099   5.913   6.075   7.510 -1.1815 -0.0919 -0.9520
 6968TIP3    H245100   5.979   6.199   7.567 -0.5632 -1.0641  0.5228
 6969TIP3   OH245101   6.004   0.855   7.556  0.2053 -0.5903  0.3082
 6969TIP3    H145102   6.083   0.805   7.575  0.2618 -0.6204  0.0077
 6969TIP3    H245103   6.030   0.915   7.486 -0.2998 -1.3312 -0.5499
 6970TIP3   OH245104   5.243   0.138   7.540 -0.4446 -0.1889 -0.1150
 6970TIP3    H145105   5.199   0.200   7.598 -0.6458 -0.1903 -0.2650
 6970TIP3    H245106   5.271   0.190   7.465 -0.9105 -0.3352 -0.3990
 6971TIP3   OH245107   4.246   0.714   9.272 -0.1166  0.5505 -0.1575
 6971TIP3    H145108   4.247   0.672   9.358  1.0142 -0.9502 -0.8624
 6971TIP3    H245109   4.313   0.782   9.277  1.7762 -1.1641 -0.5496
 6972TIP3   OH245110   5.229   6.388   7.395 -0.4942 -0.2478 -0.0667
 6972TIP3    H145111   5.205   6.476   7.366  0.6644 -0.2810 -1.1976
 6972TIP3    H245112   5.149   6.353   7.434 -0.8294  1.4704  0.8352
 6973TIP3   OH245113   5.500   1.969   7.883 -0.3060 -0.4610 -0.5615
 6973TIP3    H145114   5.441   1.960   7.958 -0.1663  0.4620 -0.3347
 6973TIP3    H245115   5.441   1.981   7.808 -0.4652 -1.9051 -0.7077
 6974TIP3   OH245116   0.168   6.553   9.312 -0.8143  0.0900  0.6505
 6974TIP3    H145117   0.089   6.506   9.285 -0.5236 -0.1710  0.2607
 6974TIP3    H245118   0.152   6.573   9.405 -1.1880 -0.2640  0.6668
 6975TIP3   OH245119   1.237   5.344   6.882 -0.1536 -0.1894  0.0302
 6975TIP3    H145120   1.149   5.383   6.877 -0.5307 -0.8241  1.2220
 6975TIP3    H245121   1.228   5.274   6.947  1.3293 -0.0243  0.4442
 6976TIP3   OH245122   4.657   0.259   8.426 -0.0499  0.0013  0.2143
 6976TIP3    H145123   4.630   0.285   8.514 -0.8286 -0.1792  0.0348
 6976TIP3    H245124   4.666   0.164   8.430 -0.0266 -0.0014  0.1087
 6977TIP3   OH245125   2.381   4.146   7.995  0.7721  0.1512 -0.4402
 6977TIP3    H145126   2.307   4.140   8.055  1.0704  0.4618 -0.0400
 6977TIP3    H245127   2.373   4.068   7.939 -0.1324  0.4316 -0.7219
 6978TIP3   OH245128   2.922   2.073   8.977  0.2857 -0.7312 -0.0695
 6978TIP3    H145129   2.909   2.151   9.032 -0.9207 -0.4804 -0.6896
 6978TIP3    H245130   2.953   2.108   8.894 -0.3670 -0.8922 -0.3853
 6979TIP3   OH245131   6.202   4.412   8.010 -0.3234 -0.1040  0.0009
 6979TIP3    H145132   6.120   4.390   8.053  0.3606 -0.9016  0.9196
 6979TIP3    H245133   6.265   4.348   8.043  0.7701  0.7567 -0.3551
 6980TIP3   OH245134   4.912   0.554   8.125  0.0135  0.2599  0.0192
 6980TIP3    H145135   4.821   0.538   8.151 -0.1149 -0.6178 -0.8991
 6980TIP3    H245136   4.964   0.498   8.183  0.2325  2.7037  2.3649
 6981TIP3   OH245137   6.285   4.180   8.536  0.1205 -0.0373  0.8137
 6981TIP3    H145138   6.336   4.141   8.606  0.6671  1.0900  1.0684
 6981TIP3    H245139   6.223   4.112   8.510  0.8614 -0.9560  1.4125
 6982TIP3   OH245140   5.558   0.245   8.524  0.0535 -0.0524  0.1050
 6982TIP3    H145141   5.515   0.318   8.569 -1.2895  1.1069 -2.8223
 6982TIP3    H245142   5.495   0.218   8.457  2.1138 -1.2885 -1.4504
 6983TIP3   OH245143   0.059   1.961   7.214 -0.8719  0.0330 -0.0742
 6983TIP3    H145144   0.153   1.954   7.233 -1.0879  0.5937  1.3295
 6983TIP3    H245145   0.054   2.008   7.131  0.0690  1.0259  0.4160
 6984TIP3   OH245146   6.058   2.110   7.468  0.2329 -0.1342 -0.2018
 6984TIP3    H145147   6.018   2.070   7.545 -0.6488  2.4137  0.8043
 6984TIP3    H245148   5.991   2.104   7.400 -0.1790  0.2420  0.1629
 6985TIP3   OH245149   6.457   2.862   7.925 -0.1095 -0.6014  0.0018
 6985TIP3    H145150   6.417   2.775   7.918 -1.0817 -0.1537 -0.2831
 6985TIP3    H245151   6.420   2.911   7.852  3.5818 -1.0854 -2.4371
 6986TIP3   OH245152   0.782   1.929   6.939  0.2697  0.0834  0.2638
 6986TIP3    H145153   0.843   2.000   6.922 -0.6983  0.8425 -0.1094
 6986TIP3    H245154   0.783   1.877   6.858 -0.0223  0.4412  0.0257
 6987TIP3   OH245155   1.205   1.385   6.880 -1.2626 -0.2071  0.1523
 6987TIP3    H145156   1.214   1.312   6.942 -0.0731  1.2616  1.8048
 6987TIP3    H245157   1.288   1.388   6.833 -1.2929  0.1012  0.1168
 6988TIP3   OH245158   2.032   5.689   8.396  0.1037  0.3283  0.1996
 6988TIP3    H145159   1.997   5.723   8.314 -0.5486  0.1728  0.4014
 6988TIP3    H245160   1.957   5.690   8.456  0.4004 -0.2134  0.5885
 6989TIP3   OH245161   2.642   3.891   7.502 -0.0037 -0.0921 -0.4210
 6989TIP3    H145162   2.658   3.862   7.412  0.6570  1.1433 -0.7228
 6989TIP3    H245163   2.643   3.811   7.554 -1.2918 -0.9377 -1.6261
 6990TIP3   OH245164   1.969   3.558   7.121  0.4937  0.4476  0.0976
 6990TIP3    H145165   1.997   3.544   7.211  0.1380  0.9401  0.2841
 6990TIP3    H245166   2.012   3.488   7.072  1.2074  0.5573  0.5459
 6991TIP3   OH245167   4.282   3.208   6.748  0.4882  0.3641 -0.2800
 6991TIP3    H145168   4.198   3.169   6.724  1.2282 -0.1810 -2.1806
 6991TIP3    H245169   4.297   3.178   6.838  0.4710 -2.8812 -1.2183
 6992TIP3   OH245170   6.035   5.200   8.727  0.1427  0.2568 -0.3590
 6992TIP3    H145171   5.956   5.168   8.684 -0.4719 -0.5965  1.3174
 6992TIP3    H245172   6.003   5.245   8.805  1.2979  0.2153  0.1546
 6993TIP3   OH245173   3.963   4.565  10.259 -0.4541  0.3728  0.0657
 6993TIP3    H145174   4.001   4.507  10.194 -1.4927  0.8568 -1.0044
 6993TIP3    H245175   3.998   4.534  10.343  1.6687  0.3440 -0.7890
 6994TIP3   OH245176   6.672   2.407   7.828 -0.2337 -0.2668 -0.1585
 6994TIP3    H145177   6.721   2.487   7.810 -0.1255 -0.1263  0.7109
 6994TIP3    H245178   6.646   2.374   7.742 -0.2124  0.6633 -0.5248
 6995TIP3   OH245179   2.092   1.293   9.488  0.7833  0.3541 -0.3635
 6995TIP3    H145180   2.168   1.328   9.533  0.1411  0.5683  0.5778
 6995TIP3    H245181   2.017   1.340   9.526  0.1036 -0.4475 -0.6706
 6996TIP3   OH245182   5.507   2.167   7.162  0.6221 -0.1943 -0.4406
 6996TIP3    H145183   5.484   2.258   7.182 -0.1824 -0.3056 -0.7860
 6996TIP3    H245184   5.457   2.116   7.226 -1.2011 -0.5080 -1.9995
 6997TIP3   OH245185   0.564   1.371   8.839 -0.1909 -0.5891  0.7213
 6997TIP3    H145186   0.537   1.400   8.926 -2.4114 -0.3071 -0.0103
 6997TIP3    H245187   0.525   1.284   8.829  1.0114 -1.1276  0.4066
 6998TIP3   OH245188   0.099   4.303   8.801 -0.4706  0.0380  0.5038
 6998TIP3    H145189   0.027   4.350   8.758 -1.9228 -2.2926  0.2047
 6998TIP3    H245190   0.131   4.364   8.867 -1.5045  1.8371 -0.5580
 6999TIP3   OH245191   6.651   2.108   8.537 -0.0159  0.0528  0.0780
 6999TIP3    H145192   6.615   2.124   8.450  0.4543  2.3733  0.2458
 6999TIP3    H245193   6.745   2.123   8.528 -0.0241  0.8582  1.0826
 7000TIP3   OH245194   3.411   2.684   8.680 -0.2984  0.3633  0.0313
 7000TIP3    H145195   3.380   2.655   8.594  1.5965 -0.8339 -0.2954
 7000TIP3    H245196   3.434   2.604   8.726  1.0922  1.1134  0.7126
 7001TIP3   OH245197   2.333   3.954  10.023 -0.1201  0.2133  0.2876
 7001TIP3    H145198   2.396   3.883  10.014 -0.1638  0.2309 -0.2177
 7001TIP3    H245199   2.251   3.917   9.991 -0.5240 -0.0064  1.5251
 7002TIP3   OH245200   3.744   2.319   8.517  0.0398  0.0313  0.5638
 7002TIP3    H145201   3.758   2.372   8.439 -1.4493 -0.0575  0.2153
 7002TIP3    H245202   3.832   2.294   8.545  0.5722 -0.5331 -1.4853
 7003TIP3   OH245203   2.079   2.360   7.857  0.0339 -0.1422  0.4400
 7003TIP3    H145204   2.147   2.418   7.891 -0.6626  0.7273  0.3669
 7003TIP3    H245205   2.094   2.358   7.763  1.4267 -1.8700  0.6340
 7004TIP3   OH245206   3.329   2.844   6.838 -0.2679 -0.3246  0.4913
 7004TIP3    H145207   3.244   2.813   6.870 -0.4607  0.1515  0.4504
 7004TIP3    H245208   3.313   2.868   6.746 -0.4944  1.2617  0.9109
 7005TIP3   OH245209   3.704   0.961   9.460  0.0072 -0.1508 -0.0444
 7005TIP3    H145210   3.771   0.904   9.424 -0.8323  0.0411 -2.0438
 7005TIP3    H245211   3.655   0.906   9.522 -0.1535 -1.3160 -1.1699
 7006TIP3   OH245212   6.499   5.322   7.323 -0.2599  0.4654 -0.8911
 7006TIP3    H145213   6.544   5.335   7.239 -1.0147  0.7081 -1.2692
 7006TIP3    H245214   6.474   5.410   7.350 -1.3603  0.2521 -1.1734
 7007TIP3   OH245215   3.163   6.604   8.915  0.1299 -0.2562  0.2462
 7007TIP3    H145216   3.129   6.569   8.997  1.0486 -0.6919  0.4575
 7007TIP3    H245217   3.247   6.559   8.902 -0.1361 -0.4284 -1.0902
 7008TIP3   OH245218   5.709   3.984  10.336 -0.3470  0.6823  0.4344
 7008TIP3    H145219   5.694   3.970  10.430 -1.0420  0.9126  0.3630
 7008TIP3    H245220   5.738   3.898  10.304 -2.3192 -0.0379  0.4444
 7009TIP3   OH245221   5.418   1.275   8.815  0.0911 -0.4411 -0.0280
 7009TIP3    H145222   5.396   1.299   8.905  0.2139 -0.9071  0.1262
 7009TIP3    H245223   5.507   1.308   8.803 -0.7983  1.9429 -0.8287
 7010TIP3   OH245224   2.808   6.321   9.320 -0.2986  0.2290 -0.1852
 7010TIP3    H145225   2.809   6.236   9.277  1.1542  0.0743  0.0986
 7010TIP3    H245226   2.728   6.320   9.373  0.9252 -2.0673  1.8723
 7011TIP3   OH245227   0.735   3.096   9.311  0.5659 -0.9412 -0.9694
 7011TIP3    H145228   0.800   3.112   9.379 -0.3357 -1.3927  0.0193
 7011TIP3    H245229   0.749   3.166   9.247  0.4373  0.3956  0.4234
 7012TIP3   OH245230   2.332   4.444   6.732  0.0762  0.2951 -0.3829
 7012TIP3    H145231   2.273   4.512   6.766  0.3255  0.3183  0.0097
 7012TIP3    H245232   2.317   4.369   6.789  1.5322  0.7870  0.7202
 7013TIP3   OH245233   0.038   2.784   7.299  0.0866 -0.1325 -0.2840
 7013TIP3    H145234   0.111   2.723   7.306  0.2580  0.1973  1.0372
 7013TIP3    H245235   0.028   2.798   7.205  2.5677  0.8227 -0.4922
 7014TIP3   OH245236   0.764   5.073   7.716 -0.5186 -0.0604 -0.3348
 7014TIP3    H145237   0.769   5.088   7.810 -2.0686  0.4087 -0.2961
 7014TIP3    H245238   0.678   5.107   7.691 -2.0130 -3.9601 -1.1798
 7015TIP3   OH245239   5.224   3.677   7.694 -0.5207  0.5723  0.0584
 7015TIP3    H145240   5.196   3.730   7.619 -1.7422  0.5575  0.4721
 7015TIP3    H245241   5.283   3.612   7.657 -1.7372  0.0556 -1.0397
 7016TIP3   OH245242   4.355   0.009   6.568 -0.2507 -0.4593  0.0640
 7016TIP3    H145243   4.431  -0.035   6.606 -0.1118 -1.6178 -1.4353
 7016TIP3    H245244   4.388   0.048   6.487 -0.5647  1.7977  0.9770
 7017TIP3   OH245245   4.837   2.693   9.694 -0.2411 -0.5371  0.4203
 7017TIP3    H145246   4.810   2.606   9.724  1.1482  0.0307  3.8133
 7017TIP3    H245247   4.916   2.712   9.745 -0.2256  2.5307 -0.5604
 7018TIP3   OH245248   5.137   0.868   7.445 -0.2020 -0.0151 -0.4654
 7018TIP3    H145249   5.197   0.932   7.406  0.5921  0.1531  0.9357
 7018TIP3    H245250   5.149   0.789   7.394  1.3477 -0.0220 -0.1329
 7019TIP3   OH245251   0.262   2.656   7.209 -0.7075  0.1194 -0.1288
 7019TIP3    H145252   0.302   2.618   7.131  1.4848  0.4332  0.7799
 7019TIP3    H245253   0.316   2.625   7.282 -2.1507  0.5732  1.2025
 7020TIP3   OH245254   0.453   1.086   8.813 -0.6032 -0.5569  0.1573
 7020TIP3    H145255   0.504   1.096   8.894  0.5252 -0.5318 -0.5410
 7020TIP3    H245256   0.436   0.992   8.806  0.1716 -0.6835 -0.0905
 7021TIP3   OH245257   4.871   6.298   9.277  0.5609  0.6562 -0.1014
 7021TIP3    H145258   4.877   6.392   9.259  1.2435  0.5753 -0.3204
 7021TIP3    H245259   4.961   6.268   9.281  0.3752  0.1725  0.8728
 7022TIP3   OH245260   3.726   2.537   6.641  0.0196  0.3364  0.3932
 7022TIP3    H145261   3.714   2.442   6.641 -0.7311  0.4089 -0.7197
 7022TIP3    H245262   3.807   2.551   6.691 -0.2321 -0.8262  1.1645
 7023TIP3   OH245263   1.034   5.525   7.321 -0.0591  0.3158  0.6440
 7023TIP3    H145264   1.129   5.515   7.318 -0.0066  0.9144 -1.7717
 7023TIP3    H245265   1.000   5.460   7.259 -1.1256  0.8383  0.6384
 7024TIP3   OH245266   0.562   5.921   8.893 -0.1032 -0.2256  0.0296
 7024TIP3    H145267   0.473   5.950   8.912  0.6417  2.2328  0.1194
 7024TIP3    H245268   0.580   5.953   8.804  0.1087 -2.3242 -0.7610
 7025TIP3   OH245269   3.595   3.049   7.709 -0.3078  0.6894 -0.2358
 7025TIP3    H145270   3.573   3.058   7.616 -0.3391  0.7991 -0.2180
 7025TIP3    H245271   3.514   3.020   7.750 -0.1546  0.1378 -0.3227
 7026TIP3   OH245272   0.202   5.796   7.835 -0.2676  0.1051 -0.1957
 7026TIP3    H145273   0.245   5.721   7.793 -1.1493 -0.9852  0.7815
 7026TIP3    H245274   0.272   5.862   7.842  0.8131 -0.9963 -0.1598
 7027TIP3   OH245275   2.831   3.827   9.697 -0.1540 -0.2088  0.3951
 7027TIP3    H145276   2.781   3.755   9.657 -2.2546  1.5198 -0.3639
 7027TIP3    H245277   2.821   3.899   9.634 -0.5067  1.5574  2.3852
 7028TIP3   OH245278   3.250   2.521   7.319  0.1126 -0.0783  0.2936
 7028TIP3    H145279   3.161   2.516   7.355 -0.0020  1.0652  0.2009
 7028TIP3    H245280   3.280   2.430   7.318 -1.1657 -0.5263  0.0448
 7029TIP3   OH245281   5.879   0.368   8.266  0.1234 -0.0906 -0.5222
 7029TIP3    H145282   5.894   0.362   8.360 -0.8245 -0.7164 -0.4020
 7029TIP3    H245283   5.826   0.446   8.255 -2.7757 -1.8809 -0.1153
 7030TIP3   OH245284   2.877   3.536   8.452 -0.3387  0.3726  0.3415
 7030TIP3    H145285   2.841   3.606   8.397  1.8391  1.5594  0.3254
 7030TIP3    H245286   2.907   3.581   8.531 -0.7373 -0.8786  1.2267
 7031TIP3   OH245287   3.686   1.692   7.973  0.2131 -0.6054  0.3186
 7031TIP3    H145288   3.696   1.772   7.922  0.7729 -0.1670  1.0796
 7031TIP3    H245289   3.601   1.657   7.947 -1.0700  1.3678  1.4761
 7032TIP3   OH245290   1.649   6.001   9.620 -0.5154  0.1110 -0.3586
 7032TIP3    H145291   1.612   6.067   9.562 -0.3693  1.3370  0.9028
 7032TIP3    H245292   1.728   6.041   9.656 -0.4000 -0.7614  0.4023
 7033TIP3   OH245293   6.669   3.644   9.350 -0.3859  0.4810 -0.0352
 7033TIP3    H145294   6.576   3.634   9.331 -0.1856  0.1692 -0.9392
 7033TIP3    H245295   6.708   3.669   9.266  0.6281 -1.4573 -0.2084
 7034TIP3   OH245296   6.527   5.098   7.487 -0.0880 -0.1137  0.0927
 7034TIP3    H145297   6.518   5.026   7.425  2.0463 -0.9905  0.7085
 7034TIP3    H245298   6.531   5.177   7.432  2.6620 -0.9402 -1.0474
 7035TIP3   OH245299   6.517   4.553   7.887 -0.0395  0.1720 -0.1482
 7035TIP3    H145300   6.515   4.490   7.959 -0.2783  0.3152 -0.0256
 7035TIP3    H245301   6.511   4.638   7.930  1.1572  0.3300 -0.2551
 7036TIP3   OH245302   0.096   6.442   8.286 -0.1630 -0.1306  0.8765
 7036TIP3    H145303   0.099   6.518   8.227 -0.8646 -1.4351 -0.9531
 7036TIP3    H245304   0.184   6.437   8.323  0.5130  0.3986 -0.5634
 7037TIP3   OH245305   3.784   4.018   9.528 -0.1753 -1.1579  0.1182
 7037TIP3    H145306   3.729   3.989   9.601  0.3583 -1.8548  0.2544
 7037TIP3    H245307   3.730   4.082   9.481  0.1719  0.7754  2.2012
 7038TIP3   OH245308   1.025   4.138  17.300 -0.3921 -0.3683  0.0288
 7038TIP3    H145309   1.033   4.230  17.324  1.0787 -0.0347 -1.5693
 7038TIP3    H245310   1.024   4.092  17.384 -2.5837  1.1431  0.9030
 7039TIP3   OH245311   1.477   6.677   9.033  0.3987  0.1947 -0.0803
 7039TIP3    H145312   1.450   6.761   9.070  0.7516  0.4587 -0.4145
 7039TIP3    H245313   1.501   6.697   8.943  0.0499 -0.3486 -0.2968
 7040TIP3   OH245314   5.771   6.761   7.344 -0.3794 -0.4455  0.0303
 7040TIP3    H145315   5.854   6.809   7.341 -0.5750  0.0709  1.5369
 7040TIP3    H245316   5.720   6.795   7.270 -0.8882  2.4996  1.5618
 7041TIP3   OH245317   2.819   4.013   9.488 -0.1505 -0.5223  0.8728
 7041TIP3    H145318   2.884   4.082   9.500 -0.2067  0.0572 -1.6081
 7041TIP3    H245319   2.848   3.967   9.410 -0.6785 -2.7135  1.8874
 7042TIP3   OH245320   3.061   6.411   8.388  0.1580 -0.2094 -0.0066
 7042TIP3    H145321   3.038   6.324   8.355  1.4501 -0.3919 -0.4947
 7042TIP3    H245322   3.028   6.471   8.322 -0.9250 -0.3047  0.4339
 7043TIP3   OH245323   1.721   0.922   8.849 -0.1093  0.3291  0.6426
 7043TIP3    H145324   1.782   0.987   8.883 -0.1534  0.2761  0.8280
 7043TIP3    H245325   1.635   0.950   8.882 -0.2366  0.6059  0.0817
 7044TIP3   OH245326   6.270   2.557   9.762 -0.0893 -0.2925 -0.5539
 7044TIP3    H145327   6.184   2.598   9.771  0.0777  0.2291 -1.2567
 7044TIP3    H245328   6.315   2.578   9.844 -1.0375 -1.5837  0.3360
 7045TIP3   OH245329   3.688   0.233   8.079 -0.4965  0.2446 -0.1565
 7045TIP3    H145330   3.615   0.295   8.082  0.0836  0.9355 -0.0892
 7045TIP3    H245331   3.729   0.248   7.994 -0.3001  0.0141 -0.1020
 7046TIP3   OH245332   4.461   4.882   8.037  0.1198 -0.5754 -0.9165
 7046TIP3    H145333   4.493   4.972   8.035 -0.2790 -0.4337 -1.0739
 7046TIP3    H245334   4.394   4.879   7.969 -0.2479 -0.8470 -0.5457
 7047TIP3   OH245335   3.605   3.678   7.827 -0.0648  0.3954 -0.1277
 7047TIP3    H145336   3.646   3.739   7.889  1.1931 -1.4715  0.9812
 7047TIP3    H245337   3.552   3.621   7.882 -3.9097  2.3593 -1.4700
 7048TIP3   OH245338   4.221   1.599   8.815 -0.7942 -0.2096  0.2497
 7048TIP3    H145339   4.209   1.688   8.850  0.3766 -0.4483  1.3044
 7048TIP3    H245340   4.134   1.575   8.782 -0.7845  1.9533 -1.6180
 7049TIP3   OH245341   0.438   0.526   7.532  0.0185  0.3612  0.0415
 7049TIP3    H145342   0.379   0.531   7.608  0.4086 -1.1104  0.4760
 7049TIP3    H245343   0.520   0.563   7.563  0.7711 -1.9440  1.0023
 7050TIP3   OH245344   5.585   1.634   6.978  0.0509  0.2853 -0.1817
 7050TIP3    H145345   5.521   1.675   6.919  0.2997  0.9819  0.0159
 7050TIP3    H245346   5.537   1.620   7.060 -0.4928 -1.3093 -0.7304
 7051TIP3   OH245347   6.569   6.676   9.698 -0.9862 -0.3766 -0.2507
 7051TIP3    H145348   6.643   6.679   9.639 -2.2525  1.6736 -1.8729
 7051TIP3    H245349   6.569   6.761   9.742 -1.4897 -0.9374  0.8825
 7052TIP3   OH245350   1.932   0.761   8.215 -0.3015  0.0264  0.3511
 7052TIP3    H145351   2.005   0.817   8.241  0.8109 -0.2438 -1.9643
 7052TIP3    H245352   1.950   0.677   8.258 -1.8808  1.2043  3.6867
 7053TIP3   OH245353   5.213   4.948   9.068 -0.1707 -0.3656  0.6131
 7053TIP3    H145354   5.295   4.944   9.116 -0.2570 -0.5749  0.7430
 7053TIP3    H245355   5.162   4.874   9.100 -0.2211 -0.5203  0.1830
 7054TIP3   OH245356   1.568   0.034   6.782 -0.0107 -0.4208 -0.3134
 7054TIP3    H145357   1.607  -0.035   6.728  0.1804  0.2354 -1.0354
 7054TIP3    H245358   1.635   0.103   6.784 -0.5307  0.0913 -0.3150
 7055TIP3   OH245359   6.576   0.026   9.260  0.5553 -0.0305 -0.2702
 7055TIP3    H145360   6.639   0.033   9.331 -0.2288 -1.4719  0.6251
 7055TIP3    H245361   6.624  -0.017   9.189  1.3076  1.3097 -0.5998
 7056TIP3   OH245362   1.344   0.725   6.076  0.0837  0.4949  0.1918
 7056TIP3    H145363   1.438   0.742   6.084 -0.2911  2.4965  0.7249
 7056TIP3    H245364   1.320   0.763   5.991 -0.4347  0.9896  0.5514
 7057TIP3   OH245365   4.287   6.304   8.922  0.0324 -0.2249 -0.0493
 7057TIP3    H145366   4.262   6.230   8.978 -0.6209  1.8924  2.6706
 7057TIP3    H245367   4.378   6.321   8.944  0.2840 -0.3815 -0.9211
 7058TIP3   OH245368   3.560   0.604   8.926 -0.0588 -0.7118  0.2086
 7058TIP3    H145369   3.520   0.691   8.937 -0.7524 -0.8325 -1.1574
 7058TIP3    H245370   3.641   0.609   8.976 -0.6463  0.3326  1.1158
 7059TIP3   OH245371   6.504   4.092   6.516  0.0546 -0.6410  0.9787
 7059TIP3    H145372   6.553   4.021   6.474  0.8200  0.9242 -0.9408
 7059TIP3    H245373   6.563   4.125   6.584  0.2969 -0.8607  0.8772
 7060TIP3   OH245374   2.705   2.308  10.114  0.8434  0.2308 -0.2531
 7060TIP3    H145375   2.757   2.231  10.137  0.3755 -0.3196 -1.0034
 7060TIP3    H245376   2.621   2.294  10.159 -0.1492 -0.9477 -2.3256
 7061TIP3   OH245377   6.763   5.745   9.172 -0.2409  0.5061 -0.1756
 7061TIP3    H145378   6.740   5.820   9.226 -1.6420 -0.3870  0.5332
 7061TIP3    H245379   6.854   5.760   9.146 -0.0544  1.7370  1.1129
 7062TIP3   OH245380   2.053   3.037  10.399  0.2968  0.0659 -0.4159
 7062TIP3    H145381   1.960   3.014  10.392  0.2146  0.4191 -0.4667
 7062TIP3    H245382   2.098   2.953  10.388  0.0061 -0.0366 -0.8673
 7063TIP3   OH245383   6.721   1.040   8.310 -0.2177  0.7211  0.0135
 7063TIP3    H145384   6.759   0.985   8.242  1.1918 -0.8921  1.9743
 7063TIP3    H245385   6.784   1.111   8.323  0.4341  0.0085  0.8488
 7064TIP3   OH245386   1.225   3.913   9.329  0.5533  0.1553 -0.1318
 7064TIP3    H145387   1.161   3.960   9.384 -1.8149 -1.7440 -1.1097
 7064TIP3    H245388   1.260   3.845   9.386 -1.1476 -1.1630 -0.5720
 7065TIP3   OH245389   1.755   4.448   6.717  0.1122  0.3789 -0.6125
 7065TIP3    H145390   1.843   4.415   6.697  0.2577  1.1948 -1.3693
 7065TIP3    H245391   1.696   4.384   6.678  0.3609  0.0076 -0.3935
 7066TIP3   OH245392   6.574   2.572   9.665  0.2168 -0.6267  0.1353
 7066TIP3    H145393   6.509   2.557   9.734  0.6135 -0.6002  0.5219
 7066TIP3    H245394   6.623   2.491   9.660 -0.3531 -0.9254 -0.7118
 7067TIP3   OH245395   4.899   2.488   6.867  0.4724 -0.4115 -0.8318
 7067TIP3    H145396   4.962   2.557   6.847 -0.3833  0.2401 -1.3322
 7067TIP3    H245397   4.874   2.504   6.958  0.2752 -0.0482 -0.9469
 7068TIP3   OH245398   4.857   3.138   7.462  0.2506 -0.0463 -0.6018
 7068TIP3    H145399   4.827   3.048   7.472  0.7302 -0.2166 -0.7145
 7068TIP3    H245400   4.849   3.175   7.551  3.4714 -1.2555  0.3162
 7069TIP3   OH245401   6.206   5.733   9.982  0.2421 -0.7110 -0.3389
 7069TIP3    H145402   6.264   5.657   9.981 -0.8459 -1.5767 -1.7139
 7069TIP3    H245403   6.138   5.711  10.045  0.7439 -0.1855  0.4117
 7070TIP3   OH245404   4.135   4.722   8.191 -0.3679 -0.1543 -0.2876
 7070TIP3    H145405   4.099   4.675   8.266 -1.2922 -0.4299 -0.8928
 7070TIP3    H245406   4.059   4.759   8.147  0.2940  1.3719 -0.1941
 7071TIP3   OH245407   2.225   1.676   9.606 -0.6983  0.2121 -0.4144
 7071TIP3    H145408   2.289   1.610   9.632  0.2209  1.0035 -0.6171
 7071TIP3    H245409   2.146   1.654   9.657  0.8870  1.4691  2.8941
 7072TIP3   OH245410   0.905   3.360  10.324  0.3624 -0.5666 -0.5093
 7072TIP3    H145411   0.894   3.401  10.410 -1.3965 -0.2400 -0.8461
 7072TIP3    H245412   0.827   3.386  10.275  0.3155 -2.4373 -1.5105
 7073TIP3   OH245413   5.866   6.014   9.629  0.1089  0.4054  0.3985
 7073TIP3    H145414   5.858   6.025   9.724 -0.4783  0.0497  0.3920
 7073TIP3    H245415   5.864   5.919   9.616 -0.3194  0.4682 -0.0092
 7074TIP3   OH245416   4.833   4.322   9.371  0.8754  0.0982 -0.1105
 7074TIP3    H145417   4.900   4.336   9.438  0.9065  0.5060 -0.2260
 7074TIP3    H245418   4.862   4.244   9.324  1.3611  0.3734 -0.2725
 7075TIP3   OH245419   2.462   6.288   6.727  0.3128 -0.0046  0.0224
 7075TIP3    H145420   2.488   6.347   6.655 -1.0531 -0.4396 -0.8708
 7075TIP3    H245421   2.537   6.231   6.739  0.9976  0.8061 -0.2932
 7076TIP3   OH245422   1.291   5.994   6.624 -0.4648  0.1307 -0.5261
 7076TIP3    H145423   1.200   6.025   6.627 -0.8269 -0.9575  0.5150
 7076TIP3    H245424   1.283   5.900   6.608  0.3287 -0.4379  1.9158
 7077TIP3   OH245425   5.614   5.647   7.199 -0.2153 -0.3519  0.1013
 7077TIP3    H145426   5.558   5.577   7.165 -1.3834  1.0240 -0.9040
 7077TIP3    H245427   5.604   5.641   7.294 -1.7754 -0.3839 -0.0400
 7078TIP3   OH245428   0.791   3.100   8.114  0.3569 -0.1194  0.3570
 7078TIP3    H145429   0.865   3.097   8.053 -0.3086 -1.0625 -0.4291
 7078TIP3    H245430   0.798   3.019   8.165  0.0249 -0.0712  0.4830
 7079TIP3   OH245431   0.031   0.650   7.873 -0.0789 -0.4626 -0.1831
 7079TIP3    H145432   0.027   0.600   7.792 -2.5164  0.0447 -0.4610
 7079TIP3    H245433  -0.060   0.672   7.893  0.6585  1.7656  1.2254
 7080TIP3   OH245434   4.778   6.735   7.403 -0.2932 -0.0369 -0.3277
 7080TIP3    H145435   4.778   6.790   7.481 -0.3649 -1.1655  0.4945
 7080TIP3    H245436   4.868   6.703   7.397  0.5202  2.2877 -2.4010
 7081TIP3   OH245437   4.542   5.728   9.446 -0.1652  0.1661 -0.5746
 7081TIP3    H145438   4.496   5.734   9.530  1.6413  1.9301  0.3801
 7081TIP3    H245439   4.509   5.802   9.395  0.2465  0.3537 -0.5777
 7082TIP3   OH245440   2.905   4.478   7.656  0.4255  0.1668 -0.1128
 7082TIP3    H145441   2.932   4.441   7.740  2.1296  1.0047 -0.2430
 7082TIP3    H245442   2.913   4.405   7.594  2.7482  0.4239 -0.1830
 7083TIP3   OH245443   4.851   4.474   7.481 -0.0852 -0.4719 -0.2466
 7083TIP3    H145444   4.791   4.485   7.554  1.8556  1.7028  1.1642
 7083TIP3    H245445   4.875   4.564   7.456  1.2852 -1.2326 -1.8596
 7084TIP3   OH245446   0.458   3.844   7.896 -0.5452 -0.8101  0.1034
 7084TIP3    H145447   0.498   3.853   7.809 -1.4160  0.5128 -0.1851
 7084TIP3    H245448   0.531   3.857   7.957  0.3688 -3.1530 -0.3719
 7085TIP3   OH245449   3.737   3.134   8.843 -0.6371  0.0746 -0.1393
 7085TIP3    H145450   3.727   3.204   8.778 -3.6781 -0.3965 -0.3363
 7085TIP3    H245451   3.725   3.054   8.793  0.8667 -0.5328  0.4216
 7086TIP3   OH245452   2.298   5.267   7.230  0.3657  0.1528  0.7424
 7086TIP3    H145453   2.362   5.337   7.243 -0.1039  0.3943  1.8294
 7086TIP3    H245454   2.229   5.307   7.177  0.2946  0.3892  1.0155
 7087TIP3   OH245455   0.834   1.874   7.398 -0.7844 -0.0122 -0.2703
 7087TIP3    H145456   0.748   1.861   7.359 -0.7942 -0.5364 -0.0899
 7087TIP3    H245457   0.894   1.882   7.324 -0.9023 -0.2848 -0.3934
 7088TIP3   OH245458   3.483   6.737   9.000 -0.4181  0.0621  0.0957
 7088TIP3    H145459   3.477   6.641   8.998 -1.8103  0.1149  0.7608
 7088TIP3    H245460   3.503   6.758   9.091  1.9154  0.3535 -0.4158
 7089TIP3   OH245461   1.035   0.574   8.361 -0.2213  0.0722  0.4428
 7089TIP3    H145462   1.071   0.644   8.416 -2.1668 -0.5739  2.7115
 7089TIP3    H245463   0.985   0.621   8.293 -0.1135  0.8888  0.9121
 7090TIP3   OH245464   5.822   5.710   9.197 -0.3395 -0.1299 -0.5901
 7090TIP3    H145465   5.822   5.794   9.244 -0.4781 -0.3293 -0.2318
 7090TIP3    H245466   5.905   5.710   9.149 -0.4595  0.3287 -0.8041
 7091TIP3   OH245467   6.376   0.422   8.429 -0.0499  1.1284  0.2530
 7091TIP3    H145468   6.402   0.492   8.368  0.8173  1.8586  1.4327
 7091TIP3    H245469   6.361   0.466   8.512  1.8634 -0.2180  1.4077
 7092TIP3   OH245470   6.180   2.413   7.798  0.1598 -0.2325  0.5357
 7092TIP3    H145471   6.089   2.389   7.779 -0.0366  1.1173 -0.3471
 7092TIP3    H245472   6.232   2.343   7.760 -0.5020 -1.2734  1.4734
 7093TIP3   OH245473   3.495   4.937   9.353  0.2686 -0.6184  0.3466
 7093TIP3    H145474   3.494   5.019   9.403 -0.4137  0.2713 -1.0601
 7093TIP3    H245475   3.586   4.906   9.360  0.8174  0.8379  0.0141
 7094TIP3   OH245476   6.569   5.882   7.395  0.2687  0.1200 -0.2436
 7094TIP3    H145477   6.550   5.860   7.486  1.3590 -0.1149 -0.0560
 7094TIP3    H245478   6.507   5.952   7.373  0.6830  0.8962  0.9949
 7095TIP3   OH245479   5.301   3.624   8.755 -0.2979 -0.0927 -0.2236
 7095TIP3    H145480   5.281   3.653   8.844  0.4723  1.4090 -0.5049
 7095TIP3    H245481   5.336   3.702   8.712 -0.5018 -0.8360 -1.8022
 7096TIP3   OH245482   1.022   3.559   8.471 -0.6759  0.6305 -0.6139
 7096TIP3    H145483   0.935   3.544   8.507 -0.0217 -0.0260  0.7892
 7096TIP3    H245484   1.049   3.644   8.507  0.5993 -0.7081  1.9255
 7097TIP3   OH245485   3.710   3.332   8.290  0.1500  0.2641 -0.5281
 7097TIP3    H145486   3.799   3.314   8.262 -0.2456 -1.2882 -0.9199
 7097TIP3    H245487   3.663   3.354   8.210  0.0921  0.6895 -0.3786
 7098TIP3   OH245488   6.285   4.017   8.274  0.2848  0.3900 -0.2417
 7098TIP3    H145489   6.206   4.056   8.310  0.6508  0.2114  0.7960
 7098TIP3    H245490   6.284   3.926   8.304  0.5123  0.1720 -0.8509
 7099TIP3   OH245491   4.764   4.280   6.602 -0.6222 -0.1274 -0.1023
 7099TIP3    H145492   4.719   4.214   6.550  0.0855 -0.0919 -0.7790
 7099TIP3    H245493   4.695   4.340   6.630 -0.9760  0.0756 -1.3378
 7100TIP3   OH245494   6.549   3.634   9.966 -0.1273 -0.3651  0.0289
 7100TIP3    H145495   6.567   3.687  10.044  0.1065 -0.9326  0.3643
 7100TIP3    H245496   6.614   3.662   9.902  0.5268 -0.8181  0.4805
 7101TIP3   OH245497   4.997   0.866   8.095  0.1142  0.1833  0.0830
 7101TIP3    H145498   5.034   0.803   8.033 -0.8657 -0.6137  0.2773
 7101TIP3    H245499   4.960   0.812   8.164 -0.2794  1.0033  0.5231
 7102TIP3   OH245500   2.589   2.696   8.501 -0.4101 -0.5745 -0.4515
 7102TIP3    H145501   2.508   2.649   8.482 -0.2170 -1.0749 -0.0702
 7102TIP3    H245502   2.570   2.787   8.480 -1.3487 -0.5430  0.4453
 7103TIP3   OH245503   0.470   2.740  10.107  0.1316  0.7131  0.8780
 7103TIP3    H145504   0.513   2.680  10.168  0.1414  0.9509  1.1086
 7103TIP3    H245505   0.502   2.827  10.133  1.7768  0.6813 -0.7759
 7104TIP3   OH245506   3.123   5.445   8.092 -0.3127  0.4593  0.1228
 7104TIP3    H145507   3.169   5.486   8.019 -0.8210 -1.3479 -1.3050
 7104TIP3    H245508   3.188   5.388   8.133 -0.5060  0.0592 -0.1162
 7105TIP3   OH245509   3.854   4.828   8.382 -0.5053  0.3098 -0.4834
 7105TIP3    H145510   3.808   4.794   8.305 -1.5723  2.1160 -0.6933
 7105TIP3    H245511   3.800   4.901   8.412 -0.1957 -0.4271  2.1014
 7106TIP3   OH245512   6.199   5.845   9.725 -0.0304  0.1135  0.3272
 7106TIP3    H145513   6.112   5.870   9.693 -1.2960 -3.3170  0.6366
 7106TIP3    H245514   6.181   5.799   9.807  1.6282 -3.5086 -1.1485
 7107TIP3   OH245515   3.742   1.732   7.116  0.1175  0.2547  0.1265
 7107TIP3    H145516   3.786   1.693   7.192 -0.7002  0.8993  0.9563
 7107TIP3    H245517   3.801   1.802   7.087 -0.4511  1.3313  1.4329
 7108TIP3   OH245518   0.108   2.889   6.895  0.5864  0.6380  0.1151
 7108TIP3    H145519   0.152   2.930   6.970 -0.1309  1.8716 -0.1042
 7108TIP3    H245520   0.178   2.874   6.832  1.3880 -1.3583  1.3700
 7109TIP3   OH245521   4.267   6.564   8.810  0.4652  0.7768 -0.2714
 7109TIP3    H145522   4.188   6.614   8.791  0.9334  1.4521 -0.4804
 7109TIP3    H245523   4.250   6.524   8.895 -0.6760 -0.2860 -0.9634
 7110TIP3   OH245524   1.391   4.656   9.619  0.3016 -0.3145  0.0794
 7110TIP3    H145525   1.469   4.605   9.639  0.3972 -0.8755 -1.6084
 7110TIP3    H245526   1.364   4.692   9.704  1.4877 -1.3664  0.9412
 7111TIP3   OH245527   3.930   0.841   7.641 -0.1604  0.1200  0.9178
 7111TIP3    H145528   3.920   0.888   7.724 -1.3061 -0.3720  1.0830
 7111TIP3    H245529   3.955   0.909   7.578  3.3430  0.1216  2.0911
 7112TIP3   OH245530   2.809   0.200   9.655 -0.4523  0.8230  0.1364
 7112TIP3    H145531   2.808   0.190   9.750 -0.4853  0.2681  0.0803
 7112TIP3    H245532   2.821   0.294   9.641  0.2160  0.8229  0.6803
 7113TIP3   OH245533   5.706   6.174   8.568 -0.0007  0.4193  0.5553
 7113TIP3    H145534   5.647   6.249   8.565  0.3375  0.9318  3.7877
 7113TIP3    H245535   5.657   6.107   8.616  0.8027 -0.3706  0.2936
 7114TIP3   OH245536   5.541   5.446   8.152 -0.1172  0.1891 -0.2311
 7114TIP3    H145537   5.453   5.454   8.187 -0.6277 -0.5709 -1.2964
 7114TIP3    H245538   5.530   5.401   8.068  1.2752  0.1068 -0.3971
 7115TIP3   OH245539   5.810   5.261   6.880 -0.1509  0.2934 -0.0814
 7115TIP3    H145540   5.857   5.181   6.855  0.6067  0.5730  0.4056
 7115TIP3    H245541   5.722   5.230   6.903  0.3743 -0.5384  0.9245
 7116TIP3   OH245542   4.187   6.201   7.290 -0.4677 -0.3131  0.0065
 7116TIP3    H145543   4.145   6.152   7.219  0.3933  1.9771 -2.2472
 7116TIP3    H245544   4.265   6.240   7.250 -0.9110  2.6205  1.6615
 7117TIP3   OH245545   0.820   5.240   8.262  0.0251  0.2989 -0.0887
 7117TIP3    H145546   0.914   5.227   8.268 -0.0512 -0.1479  0.2052
 7117TIP3    H245547   0.783   5.176   8.323 -0.5499 -0.8138 -1.5319
 7118TIP3   OH245548   2.415   2.391   6.978 -0.2907  0.0330 -0.5051
 7118TIP3    H145549   2.430   2.312   6.927  1.5589  2.4885 -4.2070
 7118TIP3    H245550   2.502   2.426   6.996 -1.0364  1.1893  1.1926
 7119TIP3   OH245551   5.736   3.500   9.551  0.1688 -0.4608 -0.1567
 7119TIP3    H145552   5.734   3.421   9.497 -0.8494 -0.1154 -0.6544
 7119TIP3    H245553   5.671   3.484   9.620  0.1937 -0.1992 -0.0705
 7120TIP3   OH245554   2.500   6.481   6.518  0.4201  0.2065  0.0138
 7120TIP3    H145555   2.486   6.517   6.431  0.8052  0.1083 -0.0910
 7120TIP3    H245556   2.557   6.545   6.561 -0.5733  0.7624  0.5395
 7121TIP3   OH245557   2.466   0.872   7.869  0.2253  0.1672  0.1844
 7121TIP3    H145558   2.471   0.790   7.820  1.5289  1.7942 -2.6350
 7121TIP3    H245559   2.380   0.908   7.846  1.1059  1.2548 -1.6157
 7122TIP3   OH245560   6.052   4.376   9.472  0.2063 -0.1828 -0.4769
 7122TIP3    H145561   6.100   4.312   9.420  0.6712 -0.2510  0.0241
 7122TIP3    H245562   5.975   4.398   9.419 -1.8528 -3.6829  0.7007
 7123TIP3   OH245563   0.937   0.604   6.457  0.1106  0.3705 -0.6814
 7123TIP3    H145564   0.856   0.620   6.506 -0.1437 -1.3230 -0.4914
 7123TIP3    H245565   0.993   0.678   6.479 -0.7069  0.6296  0.6401
 7124TIP3   OH245566   2.672   4.368   6.896 -0.0522  0.1700 -0.4705
 7124TIP3    H145567   2.618   4.436   6.936  0.4024  0.1250  0.2306
 7124TIP3    H245568   2.701   4.407   6.814  1.7885  1.6145  0.7792
 7125TIP3   OH245569   2.820   1.703   6.727  0.2456  0.0340 -0.1423
 7125TIP3    H145570   2.794   1.722   6.818  0.3707 -0.9698  0.1069
 7125TIP3    H245571   2.764   1.630   6.700 -1.0765  1.4635 -1.5139
 7126TIP3   OH245572   1.137   2.620  10.416 -0.0106 -0.1913  0.1123
 7126TIP3    H145573   1.211   2.669  10.380 -0.8697  1.9309  1.0744
 7126TIP3    H245574   1.122   2.658  10.502 -2.5169 -0.2047 -0.2346
 7127TIP3   OH245575   4.391   1.027   6.937  0.1366  0.2492  0.5734
 7127TIP3    H145576   4.308   1.074   6.930 -0.3793 -0.7119  0.0694
 7127TIP3    H245577   4.379   0.969   7.012  0.1119 -0.3547  0.1077
 7128TIP3   OH245578   1.562   4.722   8.840 -0.0902  0.0983  0.1369
 7128TIP3    H145579   1.623   4.732   8.768  2.1587 -3.2038  1.3920
 7128TIP3    H245580   1.601   4.772   8.912 -0.3414  0.2690  0.1566
 7129TIP3   OH245581   3.938   3.571   8.433  0.2715 -0.7361  0.1030
 7129TIP3    H145582   4.007   3.537   8.491 -2.0440 -1.5762  2.5662
 7129TIP3    H245583   3.926   3.662   8.461 -0.4387 -0.9652  0.5689
 7130TIP3   OH245584   5.014   3.834  10.741 -0.1601 -0.0115 -0.5268
 7130TIP3    H145585   5.008   3.879  10.826 -0.8183  0.0318 -0.5901
 7130TIP3    H245586   5.103   3.850  10.712  0.1066 -0.1100  0.2077
 7131TIP3   OH245587   3.785   4.138   8.811 -0.1109  0.1443 -0.2589
 7131TIP3    H145588   3.843   4.206   8.778  1.0628 -0.8580 -0.3194
 7131TIP3    H245589   3.837   4.057   8.807 -1.5318 -0.8074 -0.4214
 7132TIP3   OH245590   5.056   4.042   6.937  0.1976  0.1814  0.1249
 7132TIP3    H145591   5.003   3.963   6.943  0.3095 -0.1355 -2.2990
 7132TIP3    H245592   5.146   4.010   6.931  0.3325  0.5421  0.1840
 7133TIP3   OH245593   3.531   1.030   7.807 -0.5712 -0.2057  0.5712
 7133TIP3    H145594   3.570   0.950   7.770  0.5375  0.5778 -0.0176
 7133TIP3    H245595   3.446   1.002   7.839  1.2215 -2.5699  3.9274
 7134TIP3   OH245596   0.049   5.835   8.048 -0.3015 -0.5142  0.7682
 7134TIP3    H145597   0.006   5.920   8.046 -0.3802 -0.5640 -0.6181
 7134TIP3    H245598   0.087   5.825   7.961 -1.2991 -2.3982  0.4904
 7135TIP3   OH245599   2.241   2.599   9.769  0.6441 -0.6607  0.7392
 7135TIP3    H145600   2.192   2.601   9.687 -1.3951  0.2860  1.9269
 7135TIP3    H245601   2.321   2.550   9.747 -1.1354 -3.0015 -1.0769
 7136TIP3   OH245602   1.818   2.239   6.891 -0.1346  1.0459  0.6008
 7136TIP3    H145603   1.723   2.230   6.881 -0.0531 -1.3646  1.3822
 7136TIP3    H245604   1.845   2.295   6.818 -1.8030 -0.6228 -1.4072
 7137TIP3   OH245605   2.932   5.744   7.578  0.8905 -0.3737  0.1151
 7137TIP3    H145606   2.966   5.754   7.667  1.1465 -2.5693  0.3156
 7137TIP3    H245607   3.008   5.760   7.522  0.6735  1.2588  0.2334
 7138TIP3   OH245608   5.239   6.494   7.107  0.4482 -0.1698 -0.0208
 7138TIP3    H145609   5.165   6.465   7.161 -0.1114 -2.3728 -1.7908
 7138TIP3    H245610   5.209   6.574   7.065 -0.6183 -0.5720 -0.0502
 7139TIP3   OH245611   6.698   3.814   9.742  0.3522 -0.5203  0.0474
 7139TIP3    H145612   6.742   3.898   9.733  0.4127 -0.7231 -1.9620
 7139TIP3    H245613   6.765   3.749   9.720 -0.1257 -0.9965 -0.0230
 7140TIP3   OH245614   2.528   4.318   8.667  0.0611 -0.7160 -0.1345
 7140TIP3    H145615   2.564   4.378   8.602 -3.8074  2.4264  0.2168
 7140TIP3    H245616   2.552   4.356   8.751 -2.4479  0.5918  0.0914
 7141TIP3   OH245617   5.914   3.319   7.168 -0.0191 -0.1368 -1.2480
 7141TIP3    H145618   5.902   3.341   7.260 -0.6087 -0.3865 -1.2613
 7141TIP3    H245619   6.001   3.353   7.146  1.2079 -2.2363  0.0701
 7142TIP3   OH245620   6.586   4.118   7.461 -0.2159  0.1256  0.3105
 7142TIP3    H145621   6.502   4.164   7.456  0.3947  1.1975 -0.6626
 7142TIP3    H245622   6.619   4.119   7.372  0.0909 -1.7756  0.3682
 7143TIP3   OH245623   4.434   2.675   8.762  0.0601  0.0711 -0.3494
 7143TIP3    H145624   4.424   2.675   8.667  1.2165  1.3036 -0.4982
 7143TIP3    H245625   4.520   2.713   8.777  0.2956 -1.0000  1.1774
 7144TIP3   OH245626   6.724   1.718   6.642 -0.1068  0.3467 -0.0444
 7144TIP3    H145627   6.713   1.651   6.574  0.4941  1.8557 -1.6868
 7144TIP3    H245628   6.645   1.771   6.636 -0.1719  0.3381  0.6508
 7145TIP3   OH245629   4.320   0.311   7.150  0.8581 -0.1675  0.3448
 7145TIP3    H145630   4.398   0.257   7.162  1.2232  0.3530  0.3459
 7145TIP3    H245631   4.282   0.319   7.237  0.8838 -0.3031  0.3679
 7146TIP3   OH245632   0.207   3.843   6.561 -0.5745 -0.4408 -0.1891
 7146TIP3    H145633   0.222   3.853   6.655 -0.5039 -0.8069 -0.1619
 7146TIP3    H245634   0.123   3.887   6.545 -0.5161 -0.2549  0.0206
 7147TIP3   OH245635   1.397   2.509   7.513  0.3213  0.7827 -0.4223
 7147TIP3    H145636   1.305   2.487   7.529  0.7690 -0.4217  0.6148
 7147TIP3    H245637   1.399   2.605   7.511 -0.9551  0.8234 -0.5416
 7148TIP3   OH245638   6.334   2.210   7.626  0.2024  0.2154  0.2188
 7148TIP3    H145639   6.421   2.251   7.628  0.2718  0.0809  2.5247
 7148TIP3    H245640   6.304   2.223   7.537  1.2482  3.1173  0.1947
 7149TIP3   OH245641   2.560   0.080   8.921 -0.5398  0.0522 -0.2194
 7149TIP3    H145642   2.567   0.131   8.840 -0.9473  0.6017  0.0833
 7149TIP3    H245643   2.651   0.060   8.945 -0.1622  2.7400  0.9639
 7150TIP3   OH245644   0.629   2.176   9.556 -0.4660  0.5910 -0.0924
 7150TIP3    H145645   0.598   2.253   9.604 -0.6295  1.2511 -1.2248
 7150TIP3    H245646   0.718   2.197   9.529 -0.4852  0.3642 -0.3476
 7151TIP3   OH245647   0.237   5.093   7.025  0.0758 -0.3727 -0.2023
 7151TIP3    H145648   0.266   5.018   6.973 -0.3474  0.2839 -1.4410
 7151TIP3    H245649   0.142   5.094   7.013 -0.1071 -0.5685  1.1205
 7152TIP3   OH245650   3.363   3.463   7.819  0.8030 -0.3111  0.5392
 7152TIP3    H145651   3.341   3.550   7.853  0.7164  0.0262 -0.3412
 7152TIP3    H245652   3.324   3.461   7.731  0.1447 -1.5280  0.8337
 7153TIP3   OH245653   0.414   3.430   9.807 -0.7534 -0.1415 -0.1982
 7153TIP3    H145654   0.492   3.423   9.752 -1.2260 -1.1538 -0.7831
 7153TIP3    H245655   0.433   3.375   9.883 -0.5487  0.3442  0.1079
 7154TIP3   OH245656   2.764   5.943   8.993 -0.3611  0.0441  0.5173
 7154TIP3    H145657   2.779   5.857   8.953  1.2737  1.1273 -1.3250
 7154TIP3    H245658   2.680   5.971   8.957  1.3230  1.2553 -2.8966
 7155TIP3   OH245659   6.254   0.608   9.340 -0.0661 -0.1476 -0.3219
 7155TIP3    H145660   6.233   0.636   9.251  0.4670  0.4412 -0.2695
 7155TIP3    H245661   6.277   0.515   9.331  2.2034  0.4223 -1.1958
 7156TIP3   OH245662   4.969   6.418   7.265 -0.6449  0.4348 -0.1322
 7156TIP3    H145663   4.903   6.486   7.253 -0.4841  0.3433 -1.8261
 7156TIP3    H245664   4.922   6.336   7.249 -0.5702  0.2114  0.7279
 7157TIP3   OH245665   2.798   4.675   7.844  0.1321  0.6322  0.1014
 7157TIP3    H145666   2.809   4.638   7.756 -0.4061  0.8228 -0.0526
 7157TIP3    H245667   2.745   4.611   7.891 -1.7649  1.6847 -0.5118
 7158TIP3   OH245668   3.424   4.619   8.270 -0.6794 -0.5156 -0.3267
 7158TIP3    H145669   3.344   4.663   8.241  0.3469  2.0869  0.5367
 7158TIP3    H245670   3.431   4.543   8.212 -3.1353 -0.2029 -1.1752
 7159TIP3   OH245671   1.762   4.789   6.961 -0.1158  0.3275  0.4434
 7159TIP3    H145672   1.740   4.699   6.938  0.0657  0.5713 -0.7359
 7159TIP3    H245673   1.738   4.797   7.054 -1.1884 -0.5939  0.2604
 7160TIP3   OH245674   4.827   3.697   6.739 -0.2293  0.5406 -0.6075
 7160TIP3    H145675   4.758   3.632   6.727  1.7876 -1.8021 -0.3063
 7160TIP3    H245676   4.807   3.739   6.823 -0.2467 -1.5201  0.4751
 7161TIP3   OH245677   0.590   3.350   6.563  0.4620 -0.0914  0.4014
 7161TIP3    H145678   0.683   3.340   6.581  0.3462  1.4617  2.3093
 7161TIP3    H245679   0.562   3.266   6.529  1.9146 -1.7252  2.9490
 7162TIP3   OH245680   0.028   0.063   9.810  0.3272  0.0196 -0.4387
 7162TIP3    H145681   0.080  -0.007   9.768 -1.4363 -1.9663  0.4953
 7162TIP3    H245682   0.067   0.072   9.897 -0.1286 -0.6447 -0.1544
 7163TIP3   OH245683   1.274   3.283   9.499 -0.0263  0.3023 -0.5532
 7163TIP3    H145684   1.274   3.280   9.594 -0.6501  1.6174 -0.4928
 7163TIP3    H245685   1.236   3.199   9.472  0.8877 -0.4204  0.3123
 7164TIP3   OH245686   1.863   1.129   9.024 -0.1038  0.2053  0.2171
 7164TIP3    H145687   1.913   1.170   8.953  1.3210  1.2891  1.7898
 7164TIP3    H245688   1.909   1.155   9.104 -2.2358 -0.1769  1.6243
 7165TIP3   OH245689   2.475   6.181   8.387  0.1661  0.6319 -0.4054
 7165TIP3    H145690   2.455   6.096   8.427 -1.5518  0.2328 -1.9730
 7165TIP3    H245691   2.526   6.159   8.308 -0.6275  1.0046 -1.0308
 7166TIP3   OH245692   2.757   0.920   7.776 -0.1361  0.0922 -0.3471
 7166TIP3    H145693   2.678   0.874   7.747  0.9200 -0.9926 -1.5681
 7166TIP3    H245694   2.808   0.854   7.823  0.1860  0.7198  0.2062
 7167TIP3   OH245695   1.733   4.157   8.430 -0.3035 -0.4356 -0.0768
 7167TIP3    H145696   1.695   4.242   8.406 -0.5065 -0.1724  1.1212
 7167TIP3    H245697   1.809   4.179   8.484 -1.5421 -1.0031  1.9799
 7168TIP3   OH245698   3.182   6.233   6.706 -0.2903 -0.2597  0.0403
 7168TIP3    H145699   3.196   6.140   6.725 -0.1913 -0.4097 -0.7167
 7168TIP3    H245700   3.087   6.242   6.704 -0.3193 -0.6211 -1.0779
 7169TIP3   OH245701   3.669   4.035   8.484  0.1118 -0.0106  0.1271
 7169TIP3    H145702   3.762   4.060   8.488  0.5186 -1.5248  1.1708
 7169TIP3    H245703   3.624   4.104   8.531  0.4477  1.6459 -1.8241
 7170TIP3   OH245704   1.245   4.743   7.815  0.2949 -0.5516 -0.5277
 7170TIP3    H145705   1.268   4.711   7.902 -1.0581 -1.7933 -0.5986
 7170TIP3    H245706   1.183   4.814   7.830  1.3915  0.4181 -0.4510
 7171TIP3   OH245707   1.931   0.316   7.023 -0.1414 -0.2102  0.2858
 7171TIP3    H145708   1.969   0.401   7.045 -0.7155 -0.4704  2.5014
 7171TIP3    H245709   1.999   0.272   6.971  0.3051  1.4297 -0.5842
 7172TIP3   OH245710   4.917   3.227   9.985 -0.0193 -0.5036  0.2369
 7172TIP3    H145711   4.839   3.276   9.961 -0.0788 -0.4253  0.5814
 7172TIP3    H245712   4.904   3.205  10.077  1.0912  0.9025  0.7596
 7173TIP3   OH245713   4.388   0.592   7.039 -0.3996 -0.1501 -0.3304
 7173TIP3    H145714   4.314   0.614   6.982  0.1509  2.3953 -0.1723
 7173TIP3    H245715   4.365   0.507   7.077 -2.1311 -0.5176 -2.0679
 7174TIP3   OH245716   2.781   6.607   9.276  0.7609  0.0288  0.0817
 7174TIP3    H145717   2.790   6.641   9.187 -0.6739 -0.0393 -0.1061
 7174TIP3    H245718   2.791   6.512   9.266  2.3725  0.1512  0.2702
 7175TIP3   OH245719   4.502   0.273   8.036 -0.3156  0.3345 -0.2644
 7175TIP3    H145720   4.538   0.249   7.951 -0.9839  2.0804 -1.1015
 7175TIP3    H245721   4.415   0.232   8.038  0.0979 -0.5503  0.0357
 7176TIP3   OH245722   2.653   5.499   8.837 -0.1282  0.3260 -0.1658
 7176TIP3    H145723   2.732   5.551   8.827 -0.9929  1.7056 -0.0625
 7176TIP3    H245724   2.681   5.422   8.888  1.5462 -0.2660 -1.8664
 7177TIP3   OH245725   1.199   3.935   8.254  0.2994  0.1311  0.1406
 7177TIP3    H145726   1.155   4.010   8.292  0.8295  1.0173 -0.9574
 7177TIP3    H245727   1.133   3.892   8.200  0.0062 -0.1954  0.7447
 7178TIP3   OH245728   0.550   2.249   7.496 -0.3538  0.3611 -0.3735
 7178TIP3    H145729   0.594   2.169   7.468 -0.4162 -0.1922  1.0696
 7178TIP3    H245730   0.493   2.222   7.567 -0.1869  1.7237  0.3118
 7179TIP3   OH245731   3.630   6.245   9.045  0.0452 -0.3463 -0.3365
 7179TIP3    H145732   3.684   6.180   8.999 -0.0206 -1.7864  1.4888
 7179TIP3    H245733   3.540   6.217   9.030  0.0207 -0.7736  0.5628
 7180TIP3   OH245734   5.716   2.512   8.031  0.4497 -0.1847  0.2024
 7180TIP3    H145735   5.715   2.532   7.937 -2.5634 -0.7184  0.0277
 7180TIP3    H245736   5.655   2.438   8.040  0.2996  0.1664  2.6436
 7181TIP3   OH245737   4.261   1.332   9.790 -0.4143  0.0962 -0.3676
 7181TIP3    H145738   4.257   1.377   9.874 -2.5023  1.4966 -1.1551
 7181TIP3    H245739   4.231   1.243   9.810  0.2559  0.0569  0.5504
 7182TIP3   OH245740   4.876   3.347   7.086  0.1983 -0.1101  0.2006
 7182TIP3    H145741   4.944   3.359   7.152 -0.3142 -1.7499  1.0725
 7182TIP3    H245742   4.917   3.377   7.004  1.3922  0.4490  0.9805
 7183TIP3   OH245743   6.578   2.815   8.485  0.2119 -0.1327 -0.0169
 7183TIP3    H145744   6.657   2.778   8.524 -0.2378 -1.1826 -0.0618
 7183TIP3    H245745   6.590   2.803   8.391 -0.1366 -0.5857 -0.0051
 7184TIP3   OH245746   6.464   1.456   8.999 -0.1559  0.0832  0.0523
 7184TIP3    H145747   6.553   1.459   8.962 -0.8705  0.4017 -1.7501
 7184TIP3    H245748   6.449   1.544   9.033  0.4476 -0.1607  0.9869
 7185TIP3   OH245749   1.580   2.675   8.348 -0.2308  0.4213 -0.2994
 7185TIP3    H145750   1.544   2.592   8.315 -0.6225  0.1457  0.7490
 7185TIP3    H245751   1.638   2.706   8.279 -0.4325 -0.5035 -0.9004
 7186TIP3   OH245752   3.077   4.126   7.572  0.4664 -0.0309 -0.1703
 7186TIP3    H145753   3.171   4.121   7.594  0.4927 -1.0480 -0.4523
 7186TIP3    H245754   3.067   4.210   7.527  0.8760  0.9724  1.5228
 7187TIP3   OH245755   2.493   5.473   7.305  0.5197 -0.0175  0.4724
 7187TIP3    H145756   2.512   5.474   7.399  1.5525  1.1664  0.2719
 7187TIP3    H245757   2.515   5.561   7.275 -0.1545 -0.2650 -0.8214
 7188TIP3   OH245758   1.541   1.455   6.894 -0.8588  0.2301 -0.1124
 7188TIP3    H145759   1.516   1.547   6.903  4.7539  2.2478 -1.4962
 7188TIP3    H245760   1.542   1.439   6.800 -1.8995 -1.4248  0.1107
 7189TIP3   OH245761   1.391   1.027   8.299 -0.2406  0.6983 -0.2349
 7189TIP3    H145762   1.473   1.008   8.344 -0.2237  1.0372 -0.1260
 7189TIP3    H245763   1.411   1.010   8.207 -0.0657  0.7204 -0.2022
 7190TIP3   OH245764   0.045   5.528   7.285  0.4894  0.1554  0.1477
 7190TIP3    H145765   0.141   5.521   7.283  0.5671  1.2153 -1.0039
 7190TIP3    H245766   0.027   5.620   7.265 -0.7842 -0.2330 -0.6266
 7191TIP3   OH245767   3.772   2.965   8.123 -0.4308 -0.3091 -0.6240
 7191TIP3    H145768   3.678   2.977   8.138 -0.3353 -0.2742 -0.0429
 7191TIP3    H245769   3.812   3.047   8.150 -0.0024 -1.0963  1.3371
 7192TIP3   OH245770   3.206   6.312   7.018 -0.4230 -0.4857 -0.6695
 7192TIP3    H145771   3.153   6.323   6.939  0.5191  3.3137 -0.9618
 7192TIP3    H245772   3.296   6.304   6.986 -0.0831  0.6046 -0.0546
 7193TIP3   OH245773   2.977   1.732  10.271 -0.6987 -0.4283  0.2442
 7193TIP3    H145774   2.932   1.711  10.353 -1.6867 -0.8329 -0.3771
 7193TIP3    H245775   3.033   1.806  10.292 -2.0450  0.4256  0.9353
 7194TIP3   OH245776   3.431   0.789   7.491 -0.0642 -0.4203  0.2658
 7194TIP3    H145777   3.482   0.792   7.572 -1.5013  0.3417  1.1623
 7194TIP3    H245778   3.342   0.813   7.517 -0.2624  1.2959 -1.7596
 7195TIP3   OH245779   4.822   3.796   8.150  0.7551  0.1217 -0.3337
 7195TIP3    H145780   4.732   3.762   8.142  1.2998 -1.6821  0.6192
 7195TIP3    H245781   4.823   3.874   8.094 -1.5174  0.4366 -0.0364
 7196TIP3   OH245782   4.182   4.941   7.162  0.1093 -0.4633 -0.2122
 7196TIP3    H145783   4.199   4.865   7.217  1.0669 -0.0556  0.0724
 7196TIP3    H245784   4.263   4.955   7.114  0.7228  1.6495  1.3051
 7197TIP3   OH245785   2.020   2.118   6.638 -0.1317  0.4725  0.2345
 7197TIP3    H145786   1.986   2.195   6.592 -0.2419  0.3179  0.0581
 7197TIP3    H245787   2.070   2.154   6.711  1.2391  0.7419 -0.8199
 7198TIP3   OH245788   2.310   2.616   9.103  0.0459 -0.0617  0.4814
 7198TIP3    H145789   2.336   2.544   9.045 -0.2820 -1.3886  1.9148
 7198TIP3    H245790   2.346   2.695   9.062  1.3900 -1.1671 -0.5408
 7199TIP3   OH245791   2.586   0.182   8.447 -0.1275 -0.1622 -0.7766
 7199TIP3    H145792   2.509   0.224   8.409 -0.1268 -0.5432 -1.2122
 7199TIP3    H245793   2.613   0.240   8.519  0.1964  0.8618 -1.6951
 7200TIP3   OH245794   4.185   1.278   8.849  0.0002 -0.4313 -0.1520
 7200TIP3    H145795   4.180   1.298   8.756 -2.2202  2.0912  0.3708
 7200TIP3    H245796   4.279   1.282   8.870  0.6290 -1.9594 -2.3677
 7201TIP3   OH245797   4.056   5.090   7.649  0.6443 -0.4627  0.4238
 7201TIP3    H145798   4.020   5.065   7.563  1.2001  1.1198 -0.3087
 7201TIP3    H245799   4.139   5.132   7.628  1.2839 -0.9795  1.8436
 7202TIP3   OH245800   3.338   2.296   9.413 -0.3658 -0.4702  0.0720
 7202TIP3    H145801   3.432   2.312   9.406 -0.7838  2.4382 -0.2134
 7202TIP3    H245802   3.318   2.315   9.505 -0.7313 -0.5838  0.0172
 7203TIP3   OH245803   1.384   6.726   9.503 -0.0138  0.0302  0.9525
 7203TIP3    H145804   1.384   6.696   9.412 -2.9736 -0.6760  1.1127
 7203TIP3    H245805   1.451   6.795   9.504  0.1447  0.0395 -1.7367
 7204TIP3   OH245806   5.473   3.159   9.994  0.5114 -0.2798  0.1297
 7204TIP3    H145807   5.476   3.074   9.949 -2.8006  0.1649 -1.1966
 7204TIP3    H245808   5.550   3.158  10.051  1.1916 -3.7058 -0.6072
 7205TIP3   OH245809   3.694   6.338   7.556 -0.4144 -0.3172 -0.2768
 7205TIP3    H145810   3.623   6.276   7.569  0.1684 -1.1555 -1.0304
 7205TIP3    H245811   3.774   6.287   7.567  0.0795  0.4092 -0.4077
 7206TIP3   OH245812   0.827   0.610   8.813  0.5442  0.0549  0.4509
 7206TIP3    H145813   0.762   0.567   8.870  1.3514 -1.0930  0.5407
 7206TIP3    H245814   0.790   0.603   8.725  0.4066 -0.3075  0.5368
 7207TIP3   OH245815   6.612   1.992   7.953 -0.0561 -0.2273  0.1154
 7207TIP3    H145816   6.557   2.067   7.974  1.5352  1.0895 -0.2230
 7207TIP3    H245817   6.658   2.017   7.873  2.3141 -0.5001  1.3018
 7208TIP3   OH245818   0.807   3.553   6.881 -0.3638 -0.0467  0.5405
 7208TIP3    H145819   0.748   3.592   6.946  2.9690  1.7700  2.7385
 7208TIP3    H245820   0.827   3.624   6.821 -1.0963 -0.9097 -0.7592
 7209TIP3   OH245821   0.702   0.712   6.589  0.1798  0.1661  0.3155
 7209TIP3    H145822   0.617   0.669   6.601  0.0321 -0.0149 -1.1999
 7209TIP3    H245823   0.679   0.802   6.565  0.4372  0.3557  0.7747
 7210TIP3   OH245824   1.188   6.428   7.167 -0.0842  0.1725 -0.0778
 7210TIP3    H145825   1.258   6.464   7.222  1.1029 -0.5675 -1.0414
 7210TIP3    H245826   1.189   6.482   7.089 -0.4637  0.0398 -0.1756
 7211TIP3   OH245827   3.729   4.785   9.368 -0.6744 -0.1125 -0.1955
 7211TIP3    H145828   3.764   4.777   9.456 -0.6423  0.2502 -0.1724
 7211TIP3    H245829   3.803   4.762   9.311 -0.9633 -1.2744 -0.1184
 7212TIP3   OH245830   2.886   4.511   7.026  0.4698 -0.6599 -0.5850
 7212TIP3    H145831   2.950   4.442   7.043  0.5373 -0.8149 -1.4433
 7212TIP3    H245832   2.820   4.471   6.970  0.3339 -0.1224 -0.8219
 7213TIP3   OH245833   1.192   6.322  10.203  0.2714 -0.2063  0.3230
 7213TIP3    H145834   1.194   6.406  10.158  0.6375 -0.6672 -0.5287
 7213TIP3    H245835   1.116   6.276  10.166 -0.1257 -0.1353  1.0211
 7214TIP3   OH245836   3.622   2.751   9.118 -0.3377 -0.1577 -0.5010
 7214TIP3    H145837   3.534   2.725   9.091  0.6831 -2.5907 -1.8709
 7214TIP3    H245838   3.665   2.668   9.140  1.7097  0.9301 -0.1765
 7215TIP3   OH245839   3.614   1.208   7.296  0.4182 -0.5035 -0.7185
 7215TIP3    H145840   3.578   1.217   7.384  1.8557 -1.8087  0.0642
 7215TIP3    H245841   3.582   1.124   7.265  0.3387 -0.2856 -1.2419
 7216TIP3   OH245842   3.685   5.418   7.900 -0.1351  0.1495  0.1488
 7216TIP3    H145843   3.727   5.439   7.984 -0.6159  3.7791 -0.3335
 7216TIP3    H245844   3.620   5.352   7.921  0.8658 -0.2428  2.2996
 7217TIP3   OH245845   0.415   0.907   9.490 -0.0139 -0.0496  0.4155
 7217TIP3    H145846   0.416   0.958   9.571 -1.0666 -1.3739  1.3083
 7217TIP3    H245847   0.328   0.866   9.488  0.2207 -0.5500 -1.0689
 7218TIP3   OH245848   1.183   6.598   6.953  0.0742 -0.0421 -0.3625
 7218TIP3    H145849   1.208   6.577   6.863  1.1654 -1.5697  0.2474
 7218TIP3    H245850   1.251   6.660   6.982 -0.0490  0.1369 -0.4517
 7219TIP3   OH245851   2.758   3.296   6.706 -1.0178  0.1423 -0.5068
 7219TIP3    H145852   2.742   3.204   6.684  0.6533  0.2695 -2.6379
 7219TIP3    H245853   2.709   3.311   6.787 -2.6937 -2.1524 -1.0065
 7220TIP3   OH245854   3.009   2.250   7.948  0.0916 -0.9407  0.8276
 7220TIP3    H145855   3.086   2.193   7.940 -0.8261 -2.0475 -0.5512
 7220TIP3    H245856   2.957   2.210   8.017 -0.2774 -1.4869  0.2495
 7221TIP3   OH245857   5.054   1.099   6.659 -0.2619 -0.3796  0.1983
 7221TIP3    H145858   4.960   1.082   6.652  0.0673 -1.7512 -1.5198
 7221TIP3    H245859   5.059   1.184   6.703 -2.3821  0.8190 -1.6249
 7222TIP3   OH245860   6.574   0.697   9.094 -0.4144 -0.2283 -0.0561
 7222TIP3    H145861   6.653   0.724   9.048 -0.0234 -1.3962 -0.1108
 7222TIP3    H245862   6.543   0.620   9.045 -1.2433 -0.1507  0.3282
 7223TIP3   OH245863   2.358   5.342   9.197 -0.0226  0.6162 -0.0100
 7223TIP3    H145864   2.307   5.262   9.206  0.5906  0.2135 -0.1168
 7223TIP3    H245865   2.445   5.320   9.229  0.0439  1.3591  0.3659
 7224TIP3   OH245866   6.152   0.273   7.040 -0.2100 -0.1510  0.1815
 7224TIP3    H145867   6.223   0.338   7.046 -1.3985  1.0360  2.3439
 7224TIP3    H245868   6.194   0.197   7.000  2.7717 -0.0730  2.7559
 7225TIP3   OH245869   2.564   3.235   7.649  0.0436 -0.1840 -0.1513
 7225TIP3    H145870   2.556   3.148   7.609  1.2482 -0.4281  0.1005
 7225TIP3    H245871   2.609   3.287   7.582  2.4751 -0.7105  0.9776
 7226TIP3   OH245872   2.343   4.903   7.398  0.5877 -0.5164  0.1553
 7226TIP3    H145873   2.397   4.977   7.425  1.3675 -1.6191  1.7247
 7226TIP3    H245874   2.259   4.916   7.443  0.4940 -0.2576 -0.0902
 7227TIP3   OH245875   4.999   5.093  10.249 -0.7680  0.0098 -0.5813
 7227TIP3    H145876   5.014   5.042  10.170 -0.7104 -0.5079 -0.2426
 7227TIP3    H245877   5.076   5.076  10.304 -0.9400  0.1400 -0.2948
 7228TIP3   OH245878   5.431   0.431   6.179  0.1713 -0.2218  0.0168
 7228TIP3    H145879   5.443   0.501   6.244 -1.3490 -0.8495  1.0236
 7228TIP3    H245880   5.428   0.476   6.095  0.8606  0.7510  0.4973
 7229TIP3   OH245881   2.987   0.613   8.185 -0.1372  0.1979  0.7379
 7229TIP3    H145882   2.997   0.569   8.100  1.0537  0.3199  0.8064
 7229TIP3    H245883   2.996   0.706   8.165 -1.6486  0.3781  0.7500
 7230TIP3   OH245884   6.746   5.464   6.972 -0.2132  0.3922 -0.3856
 7230TIP3    H145885   6.826   5.494   7.016  0.2361 -1.5730  0.2318
 7230TIP3    H245886   6.675   5.490   7.031  0.2487 -0.6589  0.6735
 7231TIP3   OH245887   4.715   4.092   9.756  0.0333 -0.3846 -0.1423
 7231TIP3    H145888   4.780   4.022   9.753 -0.6115 -1.1204  1.6915
 7231TIP3    H245889   4.758   4.162   9.805 -0.3655 -0.6994  0.6797
 7232TIP3   OH245890   6.405   2.372   8.986 -0.1668 -0.4159 -0.4512
 7232TIP3    H145891   6.352   2.314   9.040 -0.7226 -0.0147 -0.5577
 7232TIP3    H245892   6.441   2.315   8.918 -2.0951 -0.3492 -1.5878
 7233TIP3   OH245893   1.979   2.321   6.426  0.4905 -0.4398  0.0813
 7233TIP3    H145894   1.889   2.291   6.410  0.5010  0.1033 -1.1000
 7233TIP3    H245895   2.026   2.302   6.345  1.4627 -0.7408  0.6999
 7234TIP3   OH245896   1.127   2.810   7.415 -0.2619 -0.0253  0.3776
 7234TIP3    H145897   1.128   2.779   7.505 -1.0824 -0.0602  0.3841
 7234TIP3    H245898   1.092   2.736   7.365  1.8179 -0.6427 -0.2275
 7235TIP3   OH245899   0.475   2.430   8.146  0.6434  0.6659  0.0381
 7235TIP3    H145900   0.394   2.446   8.194  0.6701 -0.7014  0.5791
 7235TIP3    H245901   0.451   2.441   8.054 -0.6641 -1.5288  0.0390
 7236TIP3   OH245902   5.807   3.293  10.461  0.5624 -0.2788  0.0516
 7236TIP3    H145903   5.895   3.274  10.492  0.4731 -0.9369 -0.0786
 7236TIP3    H245904   5.788   3.224  10.398 -0.3692 -0.6488  0.7066
 7237TIP3   OH245905   3.603   3.368   8.051 -0.1154  0.8198  0.1219
 7237TIP3    H145906   3.644   3.379   7.965  0.4025 -1.5274 -0.0175
 7237TIP3    H245907   3.517   3.330   8.032  0.4543 -0.8274  0.6068
 7238TIP3   OH245908   3.784   0.523   9.064 -0.1452 -0.3421  0.2542
 7238TIP3    H145909   3.836   0.503   8.987 -2.3041 -3.3625 -0.6349
 7238TIP3    H245910   3.840   0.501   9.138  0.9916 -0.1685 -0.5430
 7239TIP3   OH245911   3.115   5.240   7.305  0.0591  0.3443 -0.2870
 7239TIP3    H145912   3.133   5.250   7.212  0.4028  1.2739 -0.1263
 7239TIP3    H245913   3.177   5.173   7.334 -0.9800 -0.9883 -0.9848
 7240TIP3   OH245914   3.346   5.634   7.214  0.6979 -0.1330 -0.4072
 7240TIP3    H145915   3.286   5.583   7.270  0.5687 -1.0124 -1.3050
 7240TIP3    H245916   3.332   5.598   7.127  1.5794  0.5759 -0.8521
 7241TIP3   OH245917   4.324   0.021   8.015  0.2076  0.0880 -0.3896
 7241TIP3    H145918   4.282   0.019   8.101 -0.8709  0.8428 -0.8853
 7241TIP3    H245919   4.255  -0.003   7.954  0.8818 -0.0928 -1.0861
 7242TIP3   OH245920   1.647   5.119   8.826  0.2243 -0.5414 -0.0381
 7242TIP3    H145921   1.696   5.133   8.744  0.5003 -1.0125  0.0413
 7242TIP3    H245922   1.672   5.031   8.853 -0.9915 -0.9607 -0.2125
 7243TIP3   OH245923   4.383   2.125   8.579  0.8065  0.1374  0.5607
 7243TIP3    H145924   4.344   2.188   8.518 -0.8338  0.1936  1.6315
 7243TIP3    H245925   4.437   2.179   8.637  1.9150  0.1470 -0.4186
 7244TIP3   OH245926   1.195   6.399   8.192  0.0851  0.0985 -0.4004
 7244TIP3    H145927   1.127   6.366   8.251 -1.0135  0.5394 -1.3705
 7244TIP3    H245928   1.268   6.338   8.203 -0.0913  0.1607  1.3709
 7245TIP3   OH245929   3.723   5.498   8.395  0.0067 -0.0282 -0.4792
 7245TIP3    H145930   3.706   5.425   8.335 -1.9162 -0.3530  0.3855
 7245TIP3    H245931   3.661   5.566   8.368  0.5162  0.5928 -0.1159
 7246TIP3   OH245932   1.347   4.802   7.096 -0.1892 -0.2530  0.2832
 7246TIP3    H145933   1.437   4.816   7.127 -0.8701  1.9120  1.5213
 7246TIP3    H245934   1.331   4.709   7.110  1.1069 -0.2464  2.2584
 7247TIP3   OH245935   5.945   3.693  10.033  0.1634 -0.0543 -0.0529
 7247TIP3    H145936   5.875   3.688   9.968  0.0023 -2.0591  0.2249
 7247TIP3    H245937   5.902   3.721  10.114 -0.0246  0.2444 -0.2543
 7248TIP3   OH245938   3.041   5.753   7.848  0.7077  0.1423 -0.2150
 7248TIP3    H145939   3.061   5.843   7.872  1.6409  0.2570 -1.3445
 7248TIP3    H245940   3.109   5.701   7.889  1.7354  0.2433 -1.7096
 7249TIP3   OH245941   6.683   4.251   9.375  0.0531 -0.3121 -0.2744
 7249TIP3    H145942   6.624   4.320   9.406 -2.4339 -2.5875  0.4050
 7249TIP3    H245943   6.746   4.240   9.447  0.8132  1.5112 -0.6060
 7250TIP3   OH245944   0.354   4.964   7.601 -0.4345  0.2002  0.2065
 7250TIP3    H145945   0.325   4.895   7.540 -1.6147 -0.8741  1.8907
 7250TIP3    H245946   0.432   4.928   7.642  1.2254  1.5229 -1.6004
 7251TIP3   OH245947   1.807   0.996   9.468 -0.6447  0.4288 -0.3372
 7251TIP3    H145948   1.815   0.934   9.540 -0.8771  1.0170  0.2056
 7251TIP3    H245949   1.887   0.983   9.416 -1.6777 -1.8988 -1.5362
 7252TIP3   OH245950   0.296   3.393   8.276  0.3755  0.2022  0.2477
 7252TIP3    H145951   0.233   3.322   8.293 -0.8537  1.2387  0.1665
 7252TIP3    H245952   0.313   3.431   8.362 -0.1537  0.7625  0.1138
 7253TIP3   OH245953   4.337   0.579   7.331  0.0451  0.0136 -0.2567
 7253TIP3    H145954   4.302   0.492   7.353  0.5357 -0.3814 -0.9823
 7253TIP3    H245955   4.307   0.594   7.241  1.2236 -0.0753 -0.6781
 7254TIP3   OH245956   0.111   3.507   7.300 -0.6644 -0.7489 -0.6407
 7254TIP3    H145957   0.032   3.494   7.351 -2.3469 -0.2811 -2.9789
 7254TIP3    H245958   0.152   3.585   7.339 -1.6499 -0.6425  0.2216
 7255TIP3   OH245959   2.266   0.704   7.041 -0.3737 -0.2846 -0.3497
 7255TIP3    H145960   2.319   0.764   6.988 -0.1703  0.3115  0.5006
 7255TIP3    H245961   2.188   0.688   6.989  0.1450 -0.2843 -1.1385
 7256TIP3   OH245962   0.488   6.741   6.621  0.4836 -0.4937 -0.7738
 7256TIP3    H145963   0.569   6.769   6.662  0.9987 -2.4021 -0.3966
 7256TIP3    H245964   0.479   6.799   6.545  1.9589  0.0399 -0.5827
 7257TIP3   OH245965   6.663   4.567   9.264 -0.2927  0.4644 -0.0142
 7257TIP3    H145966   6.758   4.565   9.255 -0.1838 -0.9759  1.0678
 7257TIP3    H245967   6.648   4.573   9.359 -1.2669 -0.4380 -0.0882
 7258TIP3   OH245968   1.896   5.489   8.180  0.2157 -0.0814  0.5932
 7258TIP3    H145969   1.902   5.573   8.135  0.0339 -0.4202 -0.0929
 7258TIP3    H245970   1.816   5.494   8.232 -0.0154  0.0295  0.2343
 7259TIP3   OH245971   5.249   2.402   8.760  0.3362 -0.5711 -0.5253
 7259TIP3    H145972   5.178   2.425   8.819 -0.9238 -0.7432 -1.9184
 7259TIP3    H245973   5.299   2.482   8.750 -0.2315 -0.1815 -0.2871
 7260TIP3   OH245974   2.015   2.669   6.929 -0.7450  0.2877 -0.8482
 7260TIP3    H145975   2.031   2.751   6.881  0.6881 -0.2522 -1.3638
 7260TIP3    H245976   2.032   2.691   7.020  1.0813  0.2696 -1.1401
 7261TIP3   OH245977   3.333   2.011   8.269 -0.7048  0.4733 -0.1828
 7261TIP3    H145978   3.237   2.007   8.262 -0.6605 -0.5274 -0.2957
 7261TIP3    H245979   3.350   2.096   8.310 -1.6666  0.4727  0.2523
 7262TIP3   OH245980   4.103   6.520   6.900 -0.1608  0.4847 -0.8310
 7262TIP3    H145981   4.107   6.424   6.900 -1.5072  0.3814  0.8269
 7262TIP3    H245982   4.030   6.541   6.842  0.5300  0.5591 -1.6923
 7263TIP3   OH245983   5.449   6.491   7.546  0.4575 -0.5232 -0.3319
 7263TIP3    H145984   5.356   6.479   7.527  0.3546 -0.4567  0.1075
 7263TIP3    H245985   5.461   6.451   7.633  0.8410 -0.5407 -0.3898
 7264TIP3   OH245986   2.933   3.867   8.843 -0.3432  0.1265 -0.6012
 7264TIP3    H145987   2.934   3.812   8.921 -1.9086  1.2045  0.2292
 7264TIP3    H245988   3.025   3.881   8.822  0.0904 -1.7863 -0.1219
 7265TIP3   OH245989   0.513   5.207  15.158  0.2043 -0.1191  0.2459
 7265TIP3    H145990   0.452   5.280  15.143  0.7580  0.1347 -0.8728
 7265TIP3    H245991   0.470   5.131  15.119  0.8589  0.1881 -1.1330
 7266TIP3   OH245992   0.369   2.342   8.756  0.1041 -0.0595 -0.0554
 7266TIP3    H145993   0.421   2.321   8.833  2.1208 -2.0843 -1.8198
 7266TIP3    H245994   0.286   2.373   8.791  0.9548 -0.7871  2.9127
 7267TIP3   OH245995   5.004   6.438   6.859  0.0853  0.1315  0.1284
 7267TIP3    H145996   5.060   6.381   6.912  0.4880 -0.2855 -0.7179
 7267TIP3    H245997   5.037   6.526   6.877 -0.0664  0.0333  0.8960
 7268TIP3   OH245998   0.055   0.811   8.174  0.3227  0.2525 -0.5693
 7268TIP3    H145999   0.082   0.729   8.133 -0.2305  0.3827 -1.2072
 7268TIP3    H246000   0.132   0.840   8.223  0.3423 -0.9626  0.1738
 7269TIP3   OH246001   6.412   2.656  10.240 -0.1147 -0.5476  0.1203
 7269TIP3    H146002   6.369   2.731  10.280 -0.4724 -0.3120 -0.6885
 7269TIP3    H246003   6.505   2.670  10.253 -0.1354  0.4202 -0.6715
 7270TIP3   OH246004   4.443   6.637   7.222  0.3079  0.0923  0.2696
 7270TIP3    H146005   4.482   6.584   7.153  0.4122  0.2134  0.2359
 7270TIP3    H246006   4.349   6.631   7.207  0.3371  0.2412  0.0301
 7271TIP3   OH246007   2.752   2.531   7.308  0.2659  0.1443  0.2675
 7271TIP3    H146008   2.777   2.609   7.358  1.1210  0.0676 -0.0174
 7271TIP3    H246009   2.811   2.463   7.340 -0.8975 -0.5654  0.9700
 7272TIP3   OH246010   4.322   4.614   8.932 -0.2545 -0.7683 -0.2476
 7272TIP3    H146011   4.283   4.585   8.849  0.3702 -0.8292 -0.5280
 7272TIP3    H246012   4.377   4.689   8.907  2.1140 -2.4351 -0.3799
 7273TIP3   OH246013   4.533   1.907   7.806 -0.2456  0.1537 -0.6496
 7273TIP3    H146014   4.544   1.920   7.711 -0.2164  2.0149 -0.4336
 7273TIP3    H246015   4.617   1.934   7.844  0.2988 -2.0783 -0.1656
 7274TIP3   OH246016   6.227   0.690   7.294 -0.5058 -0.1194  0.3024
 7274TIP3    H146017   6.305   0.744   7.303  0.6151 -1.1925 -2.1340
 7274TIP3    H246018   6.171   0.738   7.233 -1.0953 -0.0837  0.8566
 7275TIP3   OH246019   5.598   2.535   9.601  0.2080 -0.0638 -0.1093
 7275TIP3    H146020   5.533   2.600   9.627  1.8753  1.6066  0.1157
 7275TIP3    H246021   5.660   2.533   9.674  1.3890 -0.2398 -1.0920
 7276TIP3   OH246022   5.391   6.769   6.589  0.4932 -0.4308  0.4692
 7276TIP3    H146023   5.300   6.756   6.563  0.7754 -0.3371 -0.6180
 7276TIP3    H246024   5.425   6.680   6.602  0.6664 -0.5459 -0.6740
 7277TIP3   OH246025   4.735   1.981   8.857  0.5254  0.3395 -0.1873
 7277TIP3    H146026   4.658   1.931   8.828 -0.6467  2.5005 -1.0172
 7277TIP3    H246027   4.783   1.920   8.913 -1.0326 -1.5561 -0.7951
 7278TIP3   OH246028   0.883   0.448   6.794  0.3298  0.2567 -0.2686
 7278TIP3    H146029   0.826   0.435   6.719  1.8719 -0.0052 -1.4627
 7278TIP3    H246030   0.872   0.369   6.847 -0.1447  0.0555 -0.6669
 7279TIP3   OH246031   0.075   2.203   8.291  0.1057  0.1622  0.0939
 7279TIP3    H146032   0.131   2.276   8.318 -1.2726  0.8604  1.1219
 7279TIP3    H246033   0.075   2.208   8.195  0.4611  1.1843  0.1327
 7280TIP3   OH246034   5.974   3.195   8.550  0.1420 -0.2955  0.1622
 7280TIP3    H146035   6.061   3.176   8.584  0.1319 -0.4282  0.1145
 7280TIP3    H246036   5.973   3.289   8.537 -0.8119  0.2562  3.2505
 7281TIP3   OH246037   4.047   5.296   9.922 -0.7431 -0.0808  0.7023
 7281TIP3    H146038   4.100   5.373   9.902  0.3387 -0.9397  0.2006
 7281TIP3    H246039   4.079   5.266  10.008 -0.4230 -0.5872  0.4108
 7282TIP3   OH246040   3.922   2.566   6.835  0.1985  0.3394 -0.4523
 7282TIP3    H146041   4.017   2.568   6.841  0.1859 -0.5376  0.6097
 7282TIP3    H246042   3.893   2.642   6.885  0.3281 -1.2578  2.2595
 7283TIP3   OH246043   6.523   5.724   9.714  0.2807 -0.2812 -0.2009
 7283TIP3    H146044   6.500   5.768   9.796 -0.9681 -0.8677 -0.2074
 7283TIP3    H246045   6.616   5.704   9.723  0.1993 -0.2036  1.0094
 7284TIP3   OH246046   0.638   0.712   7.989 -0.1574  0.2719  0.6280
 7284TIP3    H146047   0.697   0.642   7.961 -1.1162 -0.3881  0.2232
 7284TIP3    H246048   0.691   0.792   7.981  0.7902 -0.3367  0.6120
 7285TIP3   OH246049   4.781   0.824   9.563  0.5318 -0.1110 -0.5177
 7285TIP3    H146050   4.695   0.823   9.605  0.5597 -0.2659 -0.4648
 7285TIP3    H246051   4.767   0.873   9.482 -0.1305 -2.0044 -1.6118
 7286TIP3   OH246052   3.121   6.098   9.077  0.0492  0.0261  0.6739
 7286TIP3    H146053   3.065   6.031   9.116 -0.5717  0.7182  0.9936
 7286TIP3    H246054   3.089   6.107   8.987  0.9415 -0.9799  0.2434
 7287TIP3   OH246055   1.208   0.776   7.207 -0.2179 -0.3356 -0.0007
 7287TIP3    H146056   1.169   0.805   7.289  0.9152 -0.0258  0.4497
 7287TIP3    H246057   1.222   0.857   7.158 -0.4447 -0.4750 -0.2966
 7288TIP3   OH246058   3.265   1.103   7.906 -0.4602  0.2171 -0.0078
 7288TIP3    H146059   3.313   1.164   7.961 -2.8724  2.6976 -0.4821
 7288TIP3    H246060   3.208   1.157   7.852 -0.6693 -2.3033 -2.5654
 7289TIP3   OH246061   4.545   3.936   9.240 -0.6550 -0.1789  0.4209
 7289TIP3    H146062   4.515   3.951   9.150 -1.0886 -1.0286  0.4082
 7289TIP3    H246063   4.470   3.956   9.295 -0.8420 -0.9957  0.4842
 7290TIP3   OH246064   1.315   5.158   9.003  0.4521 -0.0623  0.4915
 7290TIP3    H146065   1.266   5.236   9.031  1.0329  0.2651  0.6136
 7290TIP3    H246066   1.404   5.190   8.988  0.5441 -0.5804 -0.0878
 7291TIP3   OH246067   0.459   5.351   8.550  0.0364 -0.7599 -0.3934
 7291TIP3    H146068   0.539   5.383   8.507  0.5580 -1.4943  0.0114
 7291TIP3    H246069   0.463   5.256   8.540 -0.4743 -0.8475  0.1827
 7292TIP3   OH246070   0.703   5.174   8.006  0.6551 -0.0429 -0.7272
 7292TIP3    H146071   0.697   5.227   8.086  2.3310 -0.6266 -0.1675
 7292TIP3    H246072   0.668   5.089   8.031  1.2425 -0.2466 -0.5645
 7293TIP3   OH246073   0.489   3.770   9.318 -0.2384 -0.4261 -0.1583
 7293TIP3    H146074   0.476   3.807   9.406  1.5746 -1.8237  0.7694
 7293TIP3    H246075   0.475   3.844   9.259 -1.0296  0.6728  1.3400
 7294TIP3   OH246076   2.212   3.153   7.374  0.1938  0.2386 -0.0145
 7294TIP3    H146077   2.185   3.202   7.452 -0.4925  1.8634 -1.2051
 7294TIP3    H246078   2.221   3.219   7.306  1.6695 -1.0169 -1.1257
 7295TIP3   OH246079   1.713   5.330   8.619  0.2140  0.4248  0.2025
 7295TIP3    H146080   1.732   5.406   8.674  0.6045  0.9283 -0.6144
 7295TIP3    H246081   1.797   5.286   8.607  0.3192  0.8680 -0.7885
 7296TIP3   OH246082   0.398   4.391   8.965 -0.0597  0.2292  0.2741
 7296TIP3    H146083   0.417   4.477   9.002  1.3325  1.3153 -2.6828
 7296TIP3    H246084   0.477   4.368   8.916 -0.7614 -2.3300  0.1920
 7297TIP3   OH246085   6.057   3.179   8.261 -0.0656  0.3547  0.1338
 7297TIP3    H146086   6.109   3.257   8.242  1.2974  0.0998  2.3894
 7297TIP3    H246087   5.986   3.211   8.317 -1.1207  0.3591 -1.1634
 7298TIP3   OH246088   0.506   4.473   9.444 -0.0740 -0.2202 -0.5276
 7298TIP3    H146089   0.420   4.434   9.459  0.2357 -0.5253  0.5891
 7298TIP3    H246090   0.487   4.558   9.403 -0.8689 -0.5273 -0.8106
 7299TIP3   OH246091   5.569   3.758   9.798 -0.6879 -0.1933 -0.7762
 7299TIP3    H146092   5.477   3.771   9.822 -0.1315  3.9931 -0.2174
 7299TIP3    H246093   5.572   3.777   9.704 -0.7060 -3.1431 -1.4761
 7300TIP3   OH246094   0.186   2.147   8.594 -0.6648 -0.2407  0.1034
 7300TIP3    H146095   0.181   2.148   8.499 -2.3747  0.5007  0.1632
 7300TIP3    H246096   0.279   2.148   8.614 -0.2852 -0.6173 -1.5546
 7301TIP3   OH246097   0.192   6.279   8.825 -0.2059 -0.3605  0.4673
 7301TIP3    H146098   0.244   6.358   8.843  0.3128 -0.6823  0.4132
 7301TIP3    H246099   0.230   6.212   8.882 -0.1101 -0.7724 -0.0685
 7302TIP3   OH246100   2.812   1.643   8.255 -0.0930  0.0491  0.0955
 7302TIP3    H146101   2.812   1.725   8.305 -0.0244 -0.2091  0.5172
 7302TIP3    H246102   2.746   1.589   8.297  1.3514 -0.9370  1.1787
 7303TIP3   OH246103   5.253   3.903   6.599 -0.4478 -0.2623  0.5513
 7303TIP3    H146104   5.265   3.980   6.656  1.2703  0.2843 -0.4612
 7303TIP3    H246105   5.159   3.899   6.583 -0.5590  1.8746  0.3686
 7304TIP3   OH246106   3.046   2.397   8.918  0.0167 -0.2259 -0.4926
 7304TIP3    H146107   2.988   2.386   8.994 -0.6479  1.6536 -0.6873
 7304TIP3    H246108   3.134   2.385   8.954 -0.2220  1.4050  0.7912
 7305TIP3   OH246109   4.121   3.787   8.258 -0.0836 -0.0253 -0.1925
 7305TIP3    H146110   4.111   3.874   8.296  1.1004  0.5019 -1.0400
 7305TIP3    H246111   4.031   3.755   8.248 -0.5070  0.7525  0.8669
 7306TIP3   OH246112   3.523   6.633   7.248  0.3657  0.2924 -0.0015
 7306TIP3    H146113   3.569   6.551   7.230  0.0082  0.0456  0.1943
 7306TIP3    H246114   3.435   6.619   7.214  0.2184  0.4906  0.2894
 7307TIP3   OH246115   6.586   5.559   7.739 -0.0883  0.0680 -0.4956
 7307TIP3    H146116   6.611   5.652   7.738  0.8469 -0.1722 -0.7907
 7307TIP3    H246117   6.659   5.514   7.696 -0.4369 -0.8271 -0.1812
 7308TIP3   OH246118   6.444   6.255   8.901 -0.3139  0.2722 -0.3639
 7308TIP3    H146119   6.437   6.282   8.993 -1.0187 -1.3070  0.0861
 7308TIP3    H246120   6.538   6.248   8.885 -0.1828 -0.4213  0.5785
 7309TIP3   OH246121   3.134   2.358   8.515  0.6593  0.8745 -0.1686
 7309TIP3    H146122   3.125   2.385   8.424 -0.2084  0.8064 -0.1118
 7309TIP3    H246123   3.127   2.440   8.565 -3.7390  0.5663  0.1229
 7310TIP3   OH246124   4.229   2.855   9.571 -0.4563 -1.3186  0.2382
 7310TIP3    H146125   4.315   2.890   9.596 -0.9057  1.2291 -1.3967
 7310TIP3    H246126   4.178   2.933   9.547 -2.1834 -2.9666 -1.8376
 7311TIP3   OH246127   6.597   0.958   8.818 -0.0506 -0.1894  0.0741
 7311TIP3    H146128   6.624   0.985   8.731 -0.5896  0.7837  0.1980
 7311TIP3    H246129   6.576   1.040   8.863  0.1760 -0.6807  1.1022
 7312TIP3   OH246130   0.735   6.480   7.889 -0.0408 -0.1381  0.3480
 7312TIP3    H146131   0.648   6.460   7.854  0.3907 -1.7677  0.1304
 7312TIP3    H246132   0.719   6.497   7.982 -0.3735 -2.7330  0.8513
 7313TIP3   OH246133   1.568   5.316   7.281  0.4119  0.1146 -0.0053
 7313TIP3    H146134   1.631   5.277   7.341 -0.0023 -1.6477 -0.6429
 7313TIP3    H246135   1.608   5.308   7.194 -0.5098 -0.7559 -0.3799
 7314TIP3   OH246136   6.481   5.984   9.141  0.5380 -0.0911 -0.0493
 7314TIP3    H146137   6.563   6.019   9.105  1.5407  1.1818  3.1343
 7314TIP3    H246138   6.507   5.941   9.222 -1.8984 -0.0089  0.8470
 7315TIP3   OH246139   0.179   0.924   8.764 -0.4632 -0.3983 -0.6882
 7315TIP3    H146140   0.273   0.916   8.748 -0.3566  0.4600 -0.5328
 7315TIP3    H246141   0.149   0.991   8.702 -0.9407 -0.5480 -0.6270
 7316TIP3   OH246142   1.709   3.793   6.829 -0.4424 -0.2226  0.3073
 7316TIP3    H146143   1.701   3.712   6.880 -1.8972 -0.0154  0.4607
 7316TIP3    H246144   1.624   3.835   6.839  0.1112  1.0626 -0.2313
 7317TIP3   OH246145   2.308   1.030   7.653  0.2406  0.3094  0.0466
 7317TIP3    H146146   2.376   1.096   7.660 -0.9825  1.8596 -1.7301
 7317TIP3    H246147   2.352   0.953   7.617  1.0914  1.2605 -1.0148
 7318TIP3   OH246148   4.016   3.143   8.792 -0.1077 -0.6855 -0.1592
 7318TIP3    H146149   3.955   3.136   8.866 -1.1777 -0.9677 -1.0473
 7318TIP3    H246150   3.985   3.078   8.729  0.7043 -0.3406 -0.9338
 7319TIP3   OH246151   4.832   4.786   7.881 -0.0059  0.0915 -0.3628
 7319TIP3    H146152   4.914   4.790   7.929 -0.2108 -1.3719  0.1452
 7319TIP3    H246153   4.856   4.762   7.792  0.4266  3.3064 -1.2524
 7320TIP3   OH246154   0.205   5.978   6.987  0.0032 -0.1158 -0.2450
 7320TIP3    H146155   0.164   5.896   6.958 -0.4356  0.1740 -0.4568
 7320TIP3    H246156   0.144   6.014   7.051  0.8474 -0.6221  0.8582
 7321TIP3   OH246157   4.523   6.122   9.975 -0.5431 -0.4629  0.3153
 7321TIP3    H146158   4.458   6.149  10.039 -0.8014 -0.2559 -0.0293
 7321TIP3    H246159   4.491   6.037   9.943 -0.1549 -0.8062  0.8109
 7322TIP3   OH246160   1.368   5.562   7.243  0.3658  0.4576 -0.1892
 7322TIP3    H146161   1.348   5.571   7.150 -1.9760  0.7759  0.2936
 7322TIP3    H246162   1.393   5.470   7.253  4.1060  1.1364 -1.6341
 7323TIP3   OH246163   2.188   3.468   6.982 -0.6218  0.3260  0.0204
 7323TIP3    H146164   2.131   3.432   6.914 -0.9637  1.7365 -0.4737
 7323TIP3    H246165   2.271   3.483   6.937  0.4155 -2.2583  0.8707
 7324TIP3   OH246166   3.157   1.750   7.843  0.3987 -0.2052 -0.3910
 7324TIP3    H146167   3.143   1.759   7.749 -3.5234 -2.4264 -0.2313
 7324TIP3    H246168   3.112   1.825   7.881  2.5951  1.0984 -0.1625
 7325TIP3   OH246169   2.143   4.701   8.150  0.4046  0.3753 -0.5265
 7325TIP3    H146170   2.091   4.781   8.146 -0.0293  0.0580 -1.4535
 7325TIP3    H246171   2.232   4.729   8.130  0.2768  0.6548 -0.7083
 7326TIP3   OH246172   5.904   3.772   6.864 -0.4765  0.0976  0.2757
 7326TIP3    H146173   5.921   3.684   6.828 -1.2623 -0.0978  0.3614
 7326TIP3    H246174   5.966   3.829   6.818  2.2756 -0.9158  2.4113
 7327TIP3   OH246175   5.789   4.651   6.333 -0.1190 -0.3551 -0.0698
 7327TIP3    H146176   5.700   4.678   6.355 -0.7457 -2.9079  0.9256
 7327TIP3    H246177   5.785   4.556   6.329  2.5797 -0.5701  0.0321
 7328TIP3   OH246178   0.657   4.157  10.108  0.2451 -0.1300  0.2456
 7328TIP3    H146179   0.595   4.222  10.076  0.3471 -0.1843 -0.0648
 7328TIP3    H246180   0.689   4.194  10.190 -0.2193 -0.1157  0.4267
 7329TIP3   OH246181   3.398   3.238   8.407 -0.4731 -0.2044 -0.0189
 7329TIP3    H146182   3.327   3.260   8.468 -0.3604 -1.3692  0.5530
 7329TIP3    H246183   3.405   3.315   8.350 -0.9712  0.6719  1.0629
 7330TIP3   OH246184   1.836   2.822   9.249  0.1079  0.7504 -0.2918
 7330TIP3    H146185   1.921   2.841   9.288  0.9036 -3.0958  0.2516
 7330TIP3    H246186   1.855   2.766   9.174 -1.8591 -2.1697  1.1669
 7331TIP3   OH246187   2.495   3.554  10.113 -0.1659  0.5250  0.0617
 7331TIP3    H146188   2.491   3.587  10.203 -0.5541 -1.2417  0.7159
 7331TIP3    H246189   2.412   3.508  10.100  0.1503  0.2200 -0.9953
 7332TIP3   OH246190   6.679   5.377   8.809 -0.6026 -0.1417  0.0260
 7332TIP3    H146191   6.591   5.412   8.799 -0.1368  1.2543  0.6155
 7332TIP3    H246192   6.734   5.453   8.829  0.5746 -1.1116  0.6737
 7333TIP3   OH246193   4.398   3.794   7.758 -0.9167  0.2512 -0.1132
 7333TIP3    H146194   4.435   3.863   7.704 -2.5621  1.0329 -0.3213
 7333TIP3    H246195   4.451   3.716   7.739  0.2450  1.1701 -0.7449
 7334TIP3   OH246196   2.034   5.318   7.811  0.2965 -0.3132 -0.0997
 7334TIP3    H146197   2.033   5.235   7.763 -0.6397 -0.0929 -0.4933
 7334TIP3    H246198   2.123   5.352   7.800  0.3555 -0.7132 -0.9153
 7335TIP3   OH246199   2.254   2.080   7.768 -0.1474 -0.0706  0.5772
 7335TIP3    H146200   2.266   2.160   7.717  0.6021  0.0438  0.9156
 7335TIP3    H246201   2.284   2.103   7.856  1.7414 -1.2139  0.2705
 7336TIP3   OH246202   2.379   2.204   9.247 -0.2190 -0.2868  0.0959
 7336TIP3    H146203   2.296   2.247   9.225  0.2591  0.2684 -0.6861
 7336TIP3    H246204   2.357   2.144   9.319 -1.7646 -1.8361 -1.5844
 7337TIP3   OH246205   3.518   4.289   9.063  0.0369 -0.1352  0.0322
 7337TIP3    H146206   3.503   4.212   9.008  2.5062 -1.4245  1.0037
 7337TIP3    H246207   3.504   4.257   9.152  1.9543  0.2469  0.5102
 7338TIP3   OH246208   5.121   4.623   8.567  0.3062 -0.0283 -0.4523
 7338TIP3    H146209   5.179   4.675   8.512 -1.0470  0.2939 -1.6439
 7338TIP3    H246210   5.148   4.532   8.552  3.1829  0.2394  2.2189
 7339TIP3   OH246211   6.369   3.414   7.612  0.2339 -0.2888  0.0082
 7339TIP3    H146212   6.421   3.487   7.576 -0.9703  0.1811 -0.8109
 7339TIP3    H246213   6.432   3.366   7.666  1.2236  0.9900  0.0663
 7340TIP3   OH246214   5.567   2.280   8.660 -0.1164  0.0466 -0.7116
 7340TIP3    H146215   5.538   2.311   8.746  0.6374 -0.4633 -0.2624
 7340TIP3    H246216   5.663   2.284   8.664  0.0264  4.0031 -2.9826
 7341TIP3   OH246217   0.531   3.399   7.882  0.0735  0.0306  0.0671
 7341TIP3    H146218   0.616   3.439   7.865  0.3505 -0.6088 -0.0973
 7341TIP3    H246219   0.528   3.324   7.822 -0.8530  0.3873 -0.3551
 7342TIP3   OH246220   5.405   3.589   8.305 -0.4494 -0.2618  0.6438
 7342TIP3    H146221   5.349   3.533   8.251 -0.5702 -0.7294  1.2519
 7342TIP3    H246222   5.415   3.541   8.387 -0.2608  0.4451  1.0386
 7343TIP3   OH246223   4.771   6.123   6.960  0.6113  0.1349 -0.2358
 7343TIP3    H146224   4.793   6.089   6.873 -0.7655 -1.3786 -0.0370
 7343TIP3    H246225   4.717   6.200   6.942 -0.5019 -0.7493 -0.7475
 7344TIP3   OH246226   4.478   3.477   8.384 -0.1228 -0.1858 -0.0036
 7344TIP3    H146227   4.439   3.473   8.471 -1.7533 -0.4642 -0.7259
 7344TIP3    H246228   4.411   3.516   8.328  1.3534  1.2040 -0.9147
 7345TIP3   OH246229   0.762   3.363   8.878  0.3355  0.2695  0.3529
 7345TIP3    H146230   0.730   3.322   8.958  1.4407 -0.0855  0.6406
 7345TIP3    H246231   0.684   3.382   8.827 -0.5086  1.8803  2.1449
 7346TIP3   OH246232   5.585   5.888   7.688 -0.4358  0.6395 -0.1588
 7346TIP3    H146233   5.565   5.930   7.605 -1.8622  1.7312  0.6866
 7346TIP3    H246234   5.567   5.955   7.754 -0.5411 -0.5880  1.1045
 7347TIP3   OH246235   0.438   4.952   7.992 -0.1808  0.1344 -0.0309
 7347TIP3    H146236   0.483   4.930   8.074 -0.8770  0.7273  0.5238
 7347TIP3    H246237   0.400   4.870   7.962  1.2386 -0.3782 -0.5066
 7348TIP3   OH246238   2.268   1.944   6.646  0.1646 -0.2592 -0.1816
 7348TIP3    H146239   2.176   1.966   6.629 -0.5183 -2.5965  0.1942
 7348TIP3    H246240   2.266   1.895   6.728  1.7224 -0.5179 -0.2750
 7349TIP3   OH246241   5.343   0.110   9.022 -0.1606  0.5226  0.1287
 7349TIP3    H146242   5.316   0.069   9.105 -1.1537 -0.7048 -0.7526
 7349TIP3    H246243   5.307   0.198   9.026  0.0820  0.5861  1.1464
 7350TIP3   OH246244   5.996   5.526   8.756 -0.7491 -0.4247  0.2680
 7350TIP3    H146245   6.026   5.511   8.846 -0.4127  0.0562  0.2377
 7350TIP3    H246246   6.001   5.621   8.744  0.0927 -0.5570 -0.5534
 7351TIP3   OH246247   3.039   1.430   7.133  0.1089  0.6843  0.5076
 7351TIP3    H146248   3.122   1.383   7.122 -0.4768 -0.2562 -0.0322
 7351TIP3    H246249   3.030   1.481   7.052 -0.3264 -0.0166  0.1041
 7352TIP3   OH246250   1.403   5.916   7.537 -0.5205 -0.4839  0.4768
 7352TIP3    H146251   1.365   5.963   7.611  0.4891 -1.8791  1.9465
 7352TIP3    H246252   1.486   5.960   7.520 -0.2950 -0.7566  0.8446
 7353TIP3   OH246253   5.727   3.829   7.088  0.2716  0.3337  0.6293
 7353TIP3    H146254   5.643   3.785   7.078 -0.0579  0.3855  2.7039
 7353TIP3    H246255   5.766   3.827   7.001 -1.5726 -0.2963 -0.2285
 7354TIP3   OH246256   3.767   3.750   9.382  0.0742 -0.2873 -0.1468
 7354TIP3    H146257   3.676   3.723   9.374 -0.1962  0.9481 -1.8051
 7354TIP3    H246258   3.765   3.845   9.373  1.3480  0.0087  1.9093
 7355TIP3   OH246259   3.799   1.363   6.641 -0.2676  0.1891 -0.2060
 7355TIP3    H146260   3.781   1.279   6.684  0.5798 -0.5189 -1.1865
 7355TIP3    H246261   3.885   1.352   6.601 -1.1326  0.6753 -2.3677
 7356TIP3   OH246262   1.596   5.650   9.788 -0.1142  0.1865  0.2026
 7356TIP3    H146263   1.607   5.576   9.847 -1.4406  0.1290  0.4016
 7356TIP3    H246264   1.651   5.719   9.826  0.5570 -0.4451  0.4141
 7357TIP3   OH246265   1.689   3.506   7.633 -0.4925  0.3209  0.0268
 7357TIP3    H146266   1.657   3.433   7.579  0.5862 -2.0350  2.3810
 7357TIP3    H246267   1.701   3.469   7.720  0.4294  3.2858  1.3023
 7358TIP3   OH246268   1.364   1.129   6.882  1.2093  0.1672  0.2404
 7358TIP3    H146269   1.360   1.052   6.825  1.6102 -0.8196  1.4697
 7358TIP3    H246270   1.449   1.168   6.863  1.2395 -0.0185 -0.0115
 7359TIP3   OH246271   1.376   3.669   8.618 -0.9240  0.4244 -0.1876
 7359TIP3    H146272   1.440   3.717   8.670 -1.7970 -0.5701  1.9698
 7359TIP3    H246273   1.407   3.674   8.528  1.3349  1.2385  0.5932
 7360TIP3   OH246274   2.581   0.120   9.516  0.1157  0.2194 -0.0457
 7360TIP3    H146275   2.663   0.154   9.552 -0.4789  0.9283  0.6948
 7360TIP3    H246276   2.519   0.193   9.524 -0.1903  0.2222 -2.0653
 7361TIP3   OH246277   6.436   5.822   7.632  0.2541  1.1519  0.0545
 7361TIP3    H146278   6.501   5.873   7.679 -0.4460  2.3049 -0.1779
 7361TIP3    H246279   6.392   5.770   7.699  2.4482 -0.9420  0.0328
 7362TIP3   OH246280   3.407   3.825   9.573  0.0146 -0.5052 -0.0473
 7362TIP3    H146281   3.362   3.777   9.503  0.2323  0.3747 -0.8244
 7362TIP3    H246282   3.423   3.760   9.641 -0.5136 -1.3134 -0.6773
 7363TIP3   OH246283   3.347   2.402   7.634 -0.2572  0.1103  0.1392
 7363TIP3    H146284   3.398   2.393   7.553 -1.3894 -1.1130 -0.4720
 7363TIP3    H246285   3.338   2.313   7.666 -1.1816  0.4223  0.7707
 7364TIP3   OH246286   0.583   5.861   6.830  0.3741  0.0049 -0.6131
 7364TIP3    H146287   0.549   5.937   6.876  1.5232 -0.4290  1.0531
 7364TIP3    H246288   0.506   5.818   6.794 -0.6271  0.2195  1.1784
 7365TIP3   OH246289   4.330   1.208   6.564  0.2607 -0.1834  0.1795
 7365TIP3    H146290   4.325   1.130   6.509 -2.3419  0.9665 -1.4394
 7365TIP3    H246291   4.409   1.196   6.617  0.5077 -3.3765 -0.7335
 7366TIP3   OH246292   2.064   0.527   9.667 -0.0408 -0.0048  0.2433
 7366TIP3    H146293   2.036   0.537   9.576  0.8840 -1.4977 -0.2507
 7366TIP3    H246294   2.153   0.492   9.661 -0.0490 -0.3502  1.7189
 7367TIP3   OH246295   2.343   1.211   8.765 -0.7594  0.7068  0.3137
 7367TIP3    H146296   2.363   1.217   8.672  0.1582  1.5461  0.5441
 7367TIP3    H246297   2.383   1.129   8.793 -1.3405  0.2794 -0.0988
 7368TIP3   OH246298   2.179   1.401   8.323 -0.1396 -0.4504  0.5336
 7368TIP3    H146299   2.216   1.320   8.288 -0.3470 -1.0244  1.6157
 7368TIP3    H246300   2.108   1.423   8.263  1.4565  0.2981 -1.1856
 7369TIP3   OH246301   5.543   2.581   9.154  0.6206 -0.1228  0.3631
 7369TIP3    H146302   5.626   2.554   9.116  1.4314 -0.2019  2.0915
 7369TIP3    H246303   5.532   2.524   9.231  0.1897  1.5085  1.5575
 7370TIP3   OH246304   3.648   3.886   9.768  0.0496 -0.8868 -0.0898
 7370TIP3    H146305   3.679   3.859   9.855  1.3676 -0.0093 -0.2529
 7370TIP3    H246306   3.580   3.822   9.746 -0.4009 -1.0590  1.6236
 7371TIP3   OH246307   3.742   2.965   6.712 -0.4704 -0.0519 -0.0187
 7371TIP3    H146308   3.710   2.907   6.644 -0.3386 -0.9881  0.6970
 7371TIP3    H246309   3.671   3.028   6.726 -0.6050 -0.0214 -0.8142
 7372TIP3   OH246310   2.150   6.219   6.617 -0.2232 -0.4261  0.7442
 7372TIP3    H146311   2.231   6.216   6.566  0.3667  0.8255  1.5409
 7372TIP3    H246312   2.173   6.179   6.701 -0.8674 -1.4239  0.4665
 7373TIP3   OH246313   3.216   6.488   8.582 -0.2491  0.0242 -0.0879
 7373TIP3    H146314   3.203   6.582   8.579 -0.0683  0.1095  1.1940
 7373TIP3    H246315   3.163   6.454   8.510 -1.9037  0.9376  0.6547
 7374TIP3   OH246316   1.664   1.142   7.651  0.4907  0.3669  0.2222
 7374TIP3    H146317   1.726   1.076   7.619  1.1873  0.9699  0.2894
 7374TIP3    H246318   1.695   1.161   7.740 -1.0013 -0.7899  1.0269
 7375TIP3   OH246319   3.116   1.343   8.672  0.4633  0.7530 -0.0059
 7375TIP3    H146320   3.162   1.427   8.669  0.7050  0.6394  0.3942
 7375TIP3    H246321   3.023   1.366   8.674  0.5392  1.1298  2.8220
 7376TIP3   OH246322   0.835   4.265   8.645  0.0652  0.5382 -0.1775
 7376TIP3    H146323   0.906   4.322   8.618  1.5047 -1.1350 -0.0712
 7376TIP3    H246324   0.829   4.199   8.576  0.2462 -0.7152  0.9609
 7377TIP3   OH246325   1.232   2.033   6.505  0.1112  0.0331 -0.1165
 7377TIP3    H146326   1.157   2.088   6.527  0.5508  0.4759  0.2871
 7377TIP3    H246327   1.301   2.060   6.566  0.7426 -0.0584 -0.7792
 7378TIP3   OH246328   5.006   0.469   7.527 -0.2051  0.3108  0.5170
 7378TIP3    H146329   4.934   0.412   7.500 -1.1128  1.2641  0.8478
 7378TIP3    H246330   5.053   0.419   7.593  0.0395 -0.7123 -0.3967
 7379TIP3   OH246331   1.325   3.511   8.203  0.7022  0.1270  0.0736
 7379TIP3    H146332   1.354   3.596   8.236  1.5920  0.1626 -0.7680
 7379TIP3    H246333   1.233   3.524   8.181  0.6623  0.6855  0.5417
 7380TIP3   OH246334   1.343   0.121   8.112 -0.3679 -0.3349  0.2200
 7380TIP3    H146335   1.399   0.059   8.160  0.1320  1.4284  2.0674
 7380TIP3    H246336   1.259   0.116   8.156 -0.3668  0.1836  0.2807
 7381TIP3   OH246337   4.473   5.598   7.105 -0.1506 -0.5516 -0.9109
 7381TIP3    H146338   4.541   5.543   7.143 -0.9867  0.2461  2.0682
 7381TIP3    H246339   4.520   5.671   7.064  0.8865  0.2481  1.5053
 7382TIP3   OH246340   5.325   5.682   7.879 -0.0087 -0.5484 -0.1593
 7382TIP3    H146341   5.319   5.689   7.784  3.0262  0.1071 -0.4082
 7382TIP3    H246342   5.272   5.754   7.913 -0.1466 -0.0451 -1.4088
 7383TIP3   OH246343   6.327   6.049   7.249 -0.6664  0.7767  0.8591
 7383TIP3    H146344   6.329   6.090   7.335  0.9462  1.4385  0.5488
 7383TIP3    H246345   6.290   5.962   7.264  4.2872 -1.2864  3.2674
 7384TIP3   OH246346   5.532   5.184   6.938 -0.9289 -0.0478 -0.2125
 7384TIP3    H146347   5.533   5.167   6.844 -0.8868 -0.9629 -0.0482
 7384TIP3    H246348   5.511   5.100   6.978  0.1807  0.0673  0.6556
 7385TIP3   OH246349   2.231   5.801   7.494 -0.6944 -0.4159 -0.7026
 7385TIP3    H146350   2.213   5.837   7.582  1.1090  1.0418 -0.8623
 7385TIP3    H246351   2.191   5.714   7.495 -0.3322 -0.6301  1.7408
 7386TIP3   OH246352   2.771   1.348   8.729  0.6989 -0.0957 -0.4072
 7386TIP3    H146353   2.786   1.438   8.758  0.4089 -0.3855  0.6831
 7386TIP3    H246354   2.688   1.353   8.681 -0.0895 -0.0252  0.9175
 7387TIP3   OH246355   4.079   1.289   6.648  0.2353 -0.1255 -0.3818
 7387TIP3    H146356   4.121   1.320   6.729  0.8333  0.1145 -0.7741
 7387TIP3    H246357   4.149   1.244   6.601  0.2408  0.8359 -1.3446
 7388TIP3   OH246358   1.663   3.799   7.783  0.4629 -0.0330  0.2066
 7388TIP3    H146359   1.730   3.830   7.722 -0.0280 -0.1678 -0.4118
 7388TIP3    H246360   1.594   3.865   7.779  0.0474 -0.4725 -0.0354
 7389TIP3   OH246361   3.299   0.711   8.041 -0.1840  0.1485 -0.0066
 7389TIP3    H146362   3.360   0.691   7.970 -0.0392  0.6719 -0.0300
 7389TIP3    H246363   3.231   0.764   7.999 -0.4873 -0.1613  0.0887
 7390TIP3   OH246364   4.396   4.002   8.992  0.3003  0.2310 -0.0048
 7390TIP3    H146365   4.329   4.070   9.004  1.3489  1.4427 -0.7230
 7390TIP3    H246366   4.380   3.967   8.904  0.5726  0.5064 -0.1683
 7391TIP3   OH246367   1.549   5.423   7.977  0.8177  0.3989 -0.4229
 7391TIP3    H146368   1.530   5.516   7.991  0.5862  0.2198  0.4794
 7391TIP3    H246369   1.637   5.423   7.938  1.8383  0.8921  1.7558
 7392TIP3   OH246370   5.745   4.383   6.358  0.1298  0.3949  0.2666
 7392TIP3    H146371   5.677   4.386   6.424 -2.1574 -1.1389 -1.8416
 7392TIP3    H246372   5.823   4.352   6.404 -0.2128  3.0104  2.9302
 7393TIP3   OH246373   3.227   5.244   8.265  0.2144  0.1210  0.1794
 7393TIP3    H146374   3.267   5.174   8.213  0.0045 -1.2881  1.8430
 7393TIP3    H246375   3.219   5.208   8.353  0.9712  2.5897  1.3668
 7394TIP3   OH246376   3.359   2.397   7.901 -0.0634  0.2623 -0.0048
 7394TIP3    H146377   3.379   2.305   7.917  0.7111  0.3141 -0.5836
 7394TIP3    H246378   3.401   2.416   7.816 -0.0688  1.1798  0.1886
 7395TIP3   OH246379   0.044   1.525   7.586  0.3680 -0.2612  0.2808
 7395TIP3    H146380   0.067   1.495   7.673 -0.6353  0.9570  1.0126
 7395TIP3    H246381   0.030   1.445   7.535 -0.4902 -1.0282  1.6564
 7396TIP3   OH246382   3.624   1.637   9.042  0.3639  0.6025  0.3792
 7396TIP3    H146383   3.699   1.589   9.006  0.5403  1.6939 -0.7855
 7396TIP3    H246384   3.582   1.575   9.101 -0.2469 -1.5167 -2.1039
 7397TIP3   OH246385   6.291   6.232   8.197  0.1152 -0.3310  0.3970
 7397TIP3    H146386   6.303   6.238   8.292 -1.7417  0.4629  0.6160
 7397TIP3    H246387   6.304   6.139   8.177 -0.4776 -0.6904  1.5877
 7398TIP3   OH246388   5.516   4.640   6.439  0.0672 -0.2476  0.2618
 7398TIP3    H146389   5.465   4.700   6.493  0.5279  0.5728 -0.1938
 7398TIP3    H246390   5.453   4.602   6.378  0.0784  1.2436 -0.7260
 7399TIP3   OH246391   4.428   3.480   9.432 -0.2926  0.0877  0.2741
 7399TIP3    H146392   4.410   3.573   9.419 -0.2084 -0.0626 -1.0993
 7399TIP3    H246393   4.382   3.437   9.360 -0.9494 -1.0168  1.3235
 7400TIP3   OH246394   3.532   0.010   9.266 -0.2215  0.4325  0.3459
 7400TIP3    H146395   3.604   0.070   9.284 -1.5849  2.3863 -0.2471
 7400TIP3    H246396   3.548  -0.065   9.322  1.8071  1.1593  0.8284
 7401TIP3   OH246397   0.373   6.730   8.955 -0.2896  0.4322  0.4801
 7401TIP3    H146398   0.297   6.747   9.012  0.2777  0.5359  1.2286
 7401TIP3    H246399   0.442   6.704   9.016  0.0142 -0.5951 -0.2716
 7402TIP3   OH246400   4.338   2.081   9.784  0.4693  0.2521 -0.5108
 7402TIP3    H146401   4.421   2.128   9.778  0.5341  0.2508  0.2546
 7402TIP3    H246402   4.354   1.998   9.740  1.7519 -0.9044  1.9413
 7403TIP3   OH246403   5.006   4.836   8.074 -0.0995 -0.1832  0.4574
 7403TIP3    H146404   5.090   4.879   8.093 -0.9089  1.4137  0.5262
 7403TIP3    H246405   4.940   4.894   8.111 -1.4191 -0.0395 -1.9511
 7404TIP3   OH246406   4.992   2.726   6.778  0.2604  0.2224 -0.6264
 7404TIP3    H146407   4.932   2.704   6.707  0.3297 -0.1371 -0.5743
 7404TIP3    H246408   4.951   2.801   6.821 -0.5136 -0.4616 -0.1493
 7405TIP3   OH246409   2.384   6.262   8.977 -0.7148 -0.2080 -0.0730
 7405TIP3    H146410   2.475   6.261   9.008  0.0597 -2.0956 -2.1304
 7405TIP3    H246411   2.338   6.202   9.034 -0.4145 -0.1005  0.2848
 7406TIP3   OH246412   1.386   3.752   8.334  0.1498  0.2182  0.7148
 7406TIP3    H146413   1.311   3.812   8.328  0.9298  1.1697 -4.3835
 7406TIP3    H246414   1.463   3.809   8.326  1.3292 -1.0162  2.6380
 7407TIP3   OH246415   0.134   1.161   7.887 -0.4839  0.0595  0.1317
 7407TIP3    H146416   0.114   1.068   7.873 -2.2577  0.6129 -1.2039
 7407TIP3    H246417   0.230   1.164   7.891 -0.3040 -1.5851 -1.6714
 7408TIP3   OH246418   0.879   4.100   8.931 -0.1482 -0.2595 -0.2367
 7408TIP3    H146419   0.904   4.050   9.008 -0.4384  1.5814  1.1151
 7408TIP3    H246420   0.790   4.130   8.949  0.4012  1.6726 -0.4291
 7409TIP3   OH246421   1.255   1.665   7.869 -0.2953  0.0882  0.8154
 7409TIP3    H146422   1.197   1.702   7.803  0.3548 -0.8228 -0.3051
 7409TIP3    H246423   1.256   1.571   7.850  1.0533  0.0099  1.2029
 7410TIP3   OH246424   0.784   3.866   8.800 -0.2400  0.2003 -0.2789
 7410TIP3    H146425   0.847   3.927   8.839  0.0472  0.2299 -0.7786
 7410TIP3    H246426   0.786   3.887   8.706  0.4591 -1.1158 -0.5799
 7411TIP3   OH246427   4.981   6.279   8.980  0.9222  0.0666  0.2259
 7411TIP3    H146428   5.035   6.314   8.909  2.7162 -0.7828  1.0787
 7411TIP3    H246429   4.956   6.355   9.032  1.7004  0.4651  0.0373
 7412TIP3   OH246430   2.952   1.646   9.134  0.5476  0.1544  0.2266
 7412TIP3    H146431   3.017   1.699   9.088  0.8284 -0.4731 -0.1061
 7412TIP3    H246432   2.999   1.567   9.162 -0.2162 -0.6115 -0.5874
 7413TIP3   OH246433   3.525   5.897   9.803  0.0110  0.3153  0.6252
 7413TIP3    H146434   3.436   5.925   9.780 -0.0044 -0.6586 -0.6491
 7413TIP3    H246435   3.512   5.840   9.880 -0.6535 -0.7858 -0.2571
 7414TIP3   OH246436   2.228   3.138   8.073  0.1487 -0.2346  0.6460
 7414TIP3    H146437   2.253   3.051   8.103  0.0208 -0.6836 -0.4978
 7414TIP3    H246438   2.193   3.182   8.150  0.7549 -0.9963  1.3596
 7415TIP3   OH246439   0.664   6.580   8.524 -0.1779 -0.7181  0.1461
 7415TIP3    H146440   0.580   6.571   8.570 -0.3693 -1.3377 -0.3232
 7415TIP3    H246441   0.722   6.621   8.589 -1.5785  2.4038 -0.3518
 7416TIP3   OH246442   1.538   2.762   7.817  0.0389 -0.0820 -0.6897
 7416TIP3    H146443   1.456   2.803   7.789 -0.6458 -1.1421 -0.3037
 7416TIP3    H246444   1.512   2.674   7.845  1.1858 -0.1309  0.2661
 7417TIP3   OH246445   6.476   2.981   8.202 -0.1630  0.1171 -0.2557
 7417TIP3    H146446   6.479   2.963   8.108 -0.8372 -2.5242  0.1453
 7417TIP3    H246447   6.383   2.988   8.223  0.0059  1.4157  0.1102
 7418TIP3   OH246448   4.162   0.827   7.323  0.4498 -0.7785  0.0489
 7418TIP3    H146449   4.139   0.736   7.304  0.8344 -1.1113  1.1167
 7418TIP3    H246450   4.082   0.865   7.357  0.6966 -1.1655  1.1006
 7419TIP3   OH246451   2.277   2.679   8.432 -0.3613 -0.0186 -0.2451
 7419TIP3    H146452   2.294   2.738   8.359 -0.0244  0.6160  0.3325
 7419TIP3    H246453   2.217   2.728   8.489 -0.7351 -0.5614 -0.1651
 7420TIP3   OH246454   5.509   2.512   6.952  0.4329 -0.6185  0.0620
 7420TIP3    H146455   5.535   2.430   6.911 -0.2618 -0.0469 -1.5751
 7420TIP3    H246456   5.436   2.543   6.900 -0.4404  0.1977  1.7055
 7421TIP3   OH246457   2.584   3.388   8.152 -0.2341  0.3009  0.1987
 7421TIP3    H146458   2.635   3.461   8.116  0.8524 -1.2781 -1.7045
 7421TIP3    H246459   2.644   3.344   8.213  0.1461 -0.5817 -0.7753
 7422TIP3   OH246460   1.530   2.531   6.851  0.1763  0.1497  0.2198
 7422TIP3    H146461   1.496   2.593   6.787  0.9536 -1.0023 -1.4035
 7422TIP3    H246462   1.611   2.570   6.882  0.2827  0.2987 -0.2356
 7423TIP3   OH246463   6.377   3.942   6.879 -0.2736 -0.6714  0.3986
 7423TIP3    H146464   6.397   3.984   6.962 -1.7722  1.6708 -0.3503
 7423TIP3    H246465   6.427   3.991   6.814 -0.3626 -1.4363 -0.2661
 7424TIP3   OH246466   0.913   2.374   9.556  0.0808 -0.4157  0.3844
 7424TIP3    H146467   0.923   2.465   9.583  0.1971  0.4390 -2.2865
 7424TIP3    H246468   0.995   2.353   9.512 -0.5374 -1.2751 -0.4071
 7425TIP3   OH246469   5.601   0.887   8.613  0.1174  0.2884 -0.4323
 7425TIP3    H146470   5.621   0.876   8.520  0.1600  0.7975 -0.4847
 7425TIP3    H246471   5.666   0.949   8.645  3.2174 -3.3302  1.0476
 7426TIP3   OH246472   6.189   4.139   9.380  0.0404  0.1052 -0.7750
 7426TIP3    H146473   6.204   4.094   9.297  0.0665 -0.0669 -0.6760
 7426TIP3    H246474   6.254   4.102   9.440  1.4582  1.7240 -1.2334
 7427TIP3   OH246475   2.806   4.932   8.616 -0.5119  0.3258 -0.0450
 7427TIP3    H146476   2.716   4.907   8.637 -0.4829  0.2660  0.0068
 7427TIP3    H246477   2.860   4.865   8.657 -0.5136 -0.8077 -1.7776
 7428TIP3   OH246478   1.272   1.864   8.571 -0.0981 -0.0624 -0.0076
 7428TIP3    H146479   1.227   1.816   8.502  1.1054 -0.0696 -0.8052
 7428TIP3    H246480   1.271   1.805   8.646 -0.6037 -0.4192 -0.2917
 7429TIP3   OH246481   1.833   0.385   7.338 -0.0845  0.0980 -0.1441
 7429TIP3    H146482   1.866   0.461   7.290 -2.2520  1.1807 -0.0750
 7429TIP3    H246483   1.860   0.399   7.428 -1.6958  1.6501  0.1646
 7430TIP3   OH246484   2.025   1.538   7.813 -0.1058  0.4691  0.3618
 7430TIP3    H146485   1.952   1.494   7.770 -0.5837  0.7246  0.8916
 7430TIP3    H246486   1.995   1.628   7.826 -0.0079  0.3809  1.2843
 7431TIP3   OH246487   1.039   1.490   7.119  0.2769  0.3739  0.1450
 7431TIP3    H146488   1.041   1.416   7.180 -0.8898  1.2920  1.3642
 7431TIP3    H246489   0.948   1.519   7.119  0.4810  1.1043 -1.2068
 7432TIP3   OH246490   4.850   0.874   7.180  0.8669  0.2286 -0.4273
 7432TIP3    H146491   4.941   0.887   7.151  0.4115 -1.2469 -2.8277
 7432TIP3    H246492   4.798   0.907   7.107 -0.4380 -1.6438 -0.4011
 7433TIP3   OH246493   3.914   6.156   7.588  0.3989  0.0410  0.4583
 7433TIP3    H146494   3.960   6.073   7.577  0.0483 -0.1555  0.4716
 7433TIP3    H246495   3.877   6.151   7.676 -0.8856 -0.4273 -0.0769
 7434TIP3   OH246496   1.002   2.901   9.210  0.1336 -0.2453  0.2768
 7434TIP3    H146497   1.068   2.833   9.220 -1.4711 -1.6843  1.8637
 7434TIP3    H246498   0.931   2.858   9.161 -1.3089 -0.1019  2.1315
 7435TIP3   OH246499   5.044   6.607   8.085  0.3693  0.4517 -0.4213
 7435TIP3    H146500   4.965   6.660   8.070 -0.0508 -0.5844 -2.1730
 7435TIP3    H246501   5.117   6.668   8.074 -0.1066  1.5950  1.9181
 7436TIP3   OH246502   5.322   1.266   7.425  0.2594 -0.2449 -0.4425
 7436TIP3    H146503   5.272   1.242   7.347 -0.9201 -0.5607  0.3782
 7436TIP3    H246504   5.389   1.199   7.434 -0.3893 -0.9038 -0.4953
 7437TIP3   OH246505   0.257   0.931   9.218 -0.7340  0.1562 -0.3472
 7437TIP3    H146506   0.268   0.916   9.124  0.9331  1.5948 -0.4409
 7437TIP3    H246507   0.251   0.843   9.256  1.5192 -0.6014 -1.5404
 7438TIP3   OH246508   4.339   3.822   6.903  0.2973  0.1181  0.3168
 7438TIP3    H146509   4.258   3.770   6.910  0.0289  0.0450 -2.2647
 7438TIP3    H246510   4.319   3.888   6.837  1.9362  1.0011  0.6577
 7439TIP3   OH246511   5.171   0.716   7.919  0.1792 -0.0502  0.3244
 7439TIP3    H146512   5.137   0.628   7.903 -0.4142 -0.0226  1.3149
 7439TIP3    H246513   5.261   0.702   7.947  0.2579 -0.3012 -0.0490
 7440TIP3   OH246514   4.971   2.171   7.807  0.5161 -0.4533  0.0654
 7440TIP3    H146515   4.935   2.095   7.853 -3.7838  1.9453  1.2146
 7440TIP3    H246516   5.025   2.215   7.873  0.4750 -0.8952  0.3993
 7441TIP3   OH246517   2.737   6.033   7.541  0.4569 -1.0871 -0.0080
 7441TIP3    H146518   2.657   6.086   7.546  0.9782 -0.4292  2.1703
 7441TIP3    H246519   2.705   5.943   7.532 -0.6790 -1.1036  3.1136
 7442TIP3   OH246520   4.582   4.423   6.749  0.2248 -0.1784  0.2668
 7442TIP3    H146521   4.538   4.389   6.827 -0.4881 -0.7027 -0.3474
 7442TIP3    H246522   4.529   4.498   6.722  0.4951  0.0289  0.3117
 7443TIP3   OH246523   5.105   1.324   7.242 -0.3064  0.3155 -0.1078
 7443TIP3    H146524   5.050   1.253   7.208  0.2978 -0.3426  0.2805
 7443TIP3    H246525   5.056   1.358   7.317 -0.0846 -0.4345  0.3919
 7444TIP3   OH246526   4.836   2.964   6.784 -0.1298 -0.5865 -0.4988
 7444TIP3    H146527   4.767   3.016   6.743 -0.1891  0.0952  0.4390
 7444TIP3    H246528   4.901   3.028   6.813  0.0796 -1.0860  0.1582
 7445TIP3   OH246529   0.456   1.490   6.522  0.2805 -0.6449 -0.7403
 7445TIP3    H146530   0.410   1.515   6.442  0.3622  0.3093 -0.5079
 7445TIP3    H246531   0.451   1.568   6.577  1.6073 -0.7423 -0.4536
 7446TIP3   OH246532   5.646   3.319   8.340 -0.1205 -0.6504  0.4239
 7446TIP3    H146533   5.687   3.374   8.407  0.0752 -1.5720  1.0762
 7446TIP3    H246534   5.628   3.379   8.268 -0.1326  0.3216  1.2099
 7447TIP3   OH246535   5.410   4.628   6.791  0.5305  0.1378  0.3243
 7447TIP3    H146536   5.423   4.547   6.741 -0.4851  1.6592 -2.6706
 7447TIP3    H246537   5.330   4.613   6.841 -0.1209 -0.4624 -0.8473
 7448TIP3   OH246538   5.945   1.619   8.841 -0.4821 -0.4954  0.1263
 7448TIP3    H146539   6.028   1.600   8.798  0.4429 -0.2516  1.7541
 7448TIP3    H246540   5.923   1.539   8.889  0.0699  0.2367  1.6564
 7449TIP3   OH246541   3.194   2.778   6.572 -0.3951 -0.0120  0.1007
 7449TIP3    H146542   3.280   2.799   6.537 -1.3281 -0.1616 -2.5205
 7449TIP3    H246543   3.187   2.683   6.564 -1.3161  0.1335 -1.1092
 7450TIP3   OH246544   4.855   3.568   9.182 -0.0145 -0.1281  0.0851
 7450TIP3    H146545   4.770   3.555   9.223 -0.5098 -0.1230 -0.9292
 7450TIP3    H246546   4.855   3.659   9.153  0.4208 -0.0678  0.2545
 7451TIP3   OH246547   4.776   2.654   7.617 -0.5658  0.1152  0.4020
 7451TIP3    H146548   4.720   2.632   7.691 -0.7095  1.2851  0.6576
 7451TIP3    H246549   4.865   2.637   7.648 -0.6495  0.2896  0.7429
 7452TIP3   OH246550   1.240   2.141   7.977  0.3616  0.1856 -0.4321
 7452TIP3    H146551   1.287   2.060   7.957 -0.2039  0.3157 -2.5130
 7452TIP3    H246552   1.295   2.211   7.939  0.3202  0.6930  0.4131
 7453TIP3   OH246553   6.122   5.529   8.150  0.1982  0.6157  0.0038
 7453TIP3    H146554   6.207   5.521   8.193 -0.5733 -2.0315  1.2388
 7453TIP3    H246555   6.069   5.580   8.211  0.5439  1.3142 -0.2609
 7454TIP3   OH246556   2.037   4.939   7.504 -0.3015  0.5033 -0.1750
 7454TIP3    H146557   1.960   4.931   7.560 -0.2093 -2.4380 -0.3070
 7454TIP3    H246558   2.008   4.993   7.430 -1.9335  0.2920  0.2765
 7455TIP3   OH246559   1.767   6.504   8.850  0.3492 -0.1344 -0.4795
 7455TIP3    H146560   1.782   6.471   8.939 -2.1661  1.4077  0.6498
 7455TIP3    H246561   1.850   6.543   8.825  1.2383 -0.9353  1.0608
 7456TIP3   OH246562   0.914   3.087  10.249 -0.2447  0.2214 -0.6774
 7456TIP3    H146563   0.929   3.166  10.301  2.1401 -0.6705  0.1116
 7456TIP3    H246564   0.845   3.111  10.188  2.4364  3.9368 -2.5948
 7457TIP3   OH246565   2.326   6.510   9.134  0.1465  0.3227  0.7570
 7457TIP3    H146566   2.388   6.579   9.157  0.6284 -0.2490  1.1955
 7457TIP3    H246567   2.374   6.454   9.073 -0.7614  1.2329 -0.8633
 7458TIP3   OH246568   2.576   4.413   9.887 -0.7944 -0.0714 -0.0961
 7458TIP3    H146569   2.593   4.478   9.955 -0.3564  0.7283 -0.9498
 7458TIP3    H246570   2.522   4.347   9.931 -2.0203  1.3069  0.5681
 7459TIP3   OH246571   4.631   3.199   9.454 -0.3450 -0.3019 -0.2583
 7459TIP3    H146572   4.711   3.166   9.414  0.6628 -0.9986  2.1179
 7459TIP3    H246573   4.661   3.269   9.512 -1.6077  0.1315 -0.1037
 7460TIP3   OH246574   1.216   4.775   6.840  0.2318 -0.1656 -0.6661
 7460TIP3    H146575   1.140   4.833   6.837  0.6636  0.3941 -0.7562
 7460TIP3    H246576   1.263   4.800   6.920 -0.6132 -1.7093  0.3731
 7461TIP3   OH246577   3.227   5.291   7.006 -0.0343 -0.2630  0.0844
 7461TIP3    H146578   3.170   5.368   7.001 -0.2249 -0.2451  1.9148
 7461TIP3    H246579   3.305   5.322   7.051 -0.0503 -1.0952  0.6967
 7462TIP3   OH246580   1.802   3.319   7.236  0.1506 -0.3753  0.2916
 7462TIP3    H146581   1.724   3.374   7.236  1.3862  1.4712  0.7861
 7462TIP3    H246582   1.778   3.243   7.290 -0.9493  0.6732  1.3387
 7463TIP3   OH246583   4.404   0.853   7.199 -0.2164 -0.9020  0.3488
 7463TIP3    H146584   4.424   0.765   7.232 -1.8728 -0.1674  3.8524
 7463TIP3    H246585   4.315   0.871   7.230 -0.0772  1.8785 -0.5563
 7464TIP3   OH246586   0.889   4.793   9.074 -0.0223 -0.2929 -0.3689
 7464TIP3    H146587   0.955   4.755   9.016 -0.2529 -1.6401  0.2111
 7464TIP3    H246588   0.938   4.820   9.151  0.0969  0.3167 -0.6546
 7465TIP3   OH246589   3.249   5.083   8.506 -0.9654  0.0143  0.2590
 7465TIP3    H146590   3.231   4.989   8.509  0.2102 -0.3637 -2.2662
 7465TIP3    H246591   3.314   5.098   8.575  0.3319 -1.4275 -0.6092
 7466TIP3   OH246592   6.231   1.986   6.668 -0.3582 -0.1402 -0.2727
 7466TIP3    H146593   6.236   2.008   6.761  1.4257 -0.2382 -0.3134
 7466TIP3    H246594   6.159   2.039   6.634 -1.1262 -0.2206  1.1896
 7467TIP3   OH246595   5.797   6.100   8.952  0.0258  0.0683  0.0339
 7467TIP3    H146596   5.715   6.087   8.906  0.0630 -0.5537  0.1238
 7467TIP3    H246597   5.776   6.158   9.025 -0.4255 -0.4068  0.2887
 7468TIP3   OH246598   4.052   0.039   8.364  0.5727  0.0394  0.0399
 7468TIP3    H146599   4.147   0.050   8.358  0.3523  1.7532 -1.6334
 7468TIP3    H246600   4.024   0.030   8.273 -0.8642 -0.7222  0.5312
 7469TIP3   OH246601   5.226   3.207  10.247  0.2655  0.6184 -0.5053
 7469TIP3    H146602   5.132   3.221  10.256  0.4217  0.9321  0.8743
 7469TIP3    H246603   5.234   3.135  10.185 -1.0620 -2.1891  2.3086
 7470TIP3   OH246604   4.874   4.990   9.171  0.4596 -0.0625  0.1907
 7470TIP3    H146605   4.889   5.059   9.235 -1.6744 -0.0982  0.7997
 7470TIP3    H246606   4.919   5.021   9.092  1.7088  0.7743  1.1794
 7471TIP3   OH246607   5.854   6.738   6.978  0.5749 -0.4399 -0.0520
 7471TIP3    H146608   5.909   6.803   6.934  2.7267 -0.7059  2.0464
 7471TIP3    H246609   5.785   6.790   7.019  0.2402  0.1026 -1.2417
 7472TIP3   OH246610   2.417   3.036   7.003 -0.3579  0.2196  0.1068
 7472TIP3    H146611   2.353   3.098   6.969 -0.7096 -0.2897 -0.1759
 7472TIP3    H246612   2.399   2.955   6.955 -0.5089 -0.3593  1.1092
 7473TIP3   OH246613   5.924   2.256   8.927  0.1973 -0.1207  0.1072
 7473TIP3    H146614   5.892   2.341   8.957  1.3861  0.8051 -1.1411
 7473TIP3    H246615   5.850   2.197   8.942 -1.0111  1.3213  0.1218
 7474TIP3   OH246616   4.911   0.710   7.741  0.4653 -0.0041  0.3212
 7474TIP3    H146617   4.937   0.633   7.690 -1.5368  0.0945 -0.9109
 7474TIP3    H246618   4.922   0.784   7.681 -0.5927  0.2862  0.4775
 7475TIP3   OH246619   3.425   6.097   9.486 -0.3841 -0.2766 -0.0870
 7475TIP3    H146620   3.346   6.095   9.539 -0.4265  0.8423 -0.0892
 7475TIP3    H246621   3.497   6.098   9.549 -0.4421  1.6666  0.0188
 7476TIP3   OH246622   4.643   4.505   7.127 -0.0794 -0.0420 -0.2717
 7476TIP3    H146623   4.649   4.470   7.216 -0.6331  2.5867  0.9111
 7476TIP3    H246624   4.679   4.593   7.133  0.3125  0.0496 -2.7974
 7477TIP3   OH246625   2.302   3.008   8.423 -0.4784  0.2212 -0.0936
 7477TIP3    H146626   2.266   2.962   8.347 -0.1400 -1.2087  0.5857
 7477TIP3    H246627   2.391   2.974   8.432  0.5794  2.5273 -0.7810
 7478TIP3   OH246628   2.046   3.815   8.964  0.5686 -0.3961 -0.3604
 7478TIP3    H146629   2.119   3.770   8.920  0.2052 -0.5800 -0.7910
 7478TIP3    H246630   2.086   3.859   9.038  1.5482  1.5155 -1.9397
 7479TIP3   OH246631   6.051   4.809  17.186  0.4248  0.7220 -0.0978
 7479TIP3    H146632   5.970   4.758  17.185  0.7611  0.1418  0.9008
 7479TIP3    H246633   6.106   4.766  17.252  1.3588  1.3953 -0.4139
 7480TIP3   OH246634   5.783   3.960   8.404  0.3038 -0.4712  0.8670
 7480TIP3    H146635   5.743   4.016   8.337 -0.3034 -1.3920  0.4489
 7480TIP3    H246636   5.728   3.971   8.481 -0.1138 -0.8672  0.6320
 7481TIP3   OH246637   4.093   1.745   7.170 -0.1654  0.1996 -0.2666
 7481TIP3    H146638   4.172   1.725   7.120  0.1980 -0.2629  0.4705
 7481TIP3    H246639   4.089   1.840   7.173  0.8516  0.2426  0.4201
 7482TIP3   OH246640   0.574   3.760   7.671 -0.2045 -0.2936 -0.3957
 7482TIP3    H146641   0.552   3.845   7.633 -0.3549  0.4181  1.1949
 7482TIP3    H246642   0.627   3.717   7.604  0.9057  1.5569 -0.7837
 7483TIP3   OH246643   6.017   3.158   9.670 -0.2403  0.0021  0.6576
 7483TIP3    H146644   6.020   3.196   9.582  1.1233 -2.4259 -0.4505
 7483TIP3    H246645   5.947   3.093   9.665 -0.5299  0.2296  1.5753
 7484TIP3   OH246646   3.290   3.033   7.762 -0.4108  0.3300  0.1173
 7484TIP3    H146647   3.321   3.031   7.672 -0.9541 -2.3468 -0.0853
 7484TIP3    H246648   3.197   3.012   7.756 -0.1949 -1.1802  1.3319
 7485TIP3   OH246649   4.175   1.902   9.625 -0.4577  0.0001 -0.1271
 7485TIP3    H146650   4.264   1.892   9.660 -0.5007  0.1171  0.0162
 7485TIP3    H246651   4.121   1.845   9.679 -0.4901  0.0215 -0.1371
 7486TIP3   OH246652   5.307   1.097   6.971 -0.7673 -1.3494  0.1508
 7486TIP3    H146653   5.320   1.011   6.931  1.0927  0.1423 -2.8330
 7486TIP3    H246654   5.295   1.156   6.896 -2.1613  1.0170  2.0840
 7487TIP3   OH246655   4.004   5.907   7.671  0.2583 -0.0070 -0.0288
 7487TIP3    H146656   4.091   5.916   7.633  0.2205  0.7912  0.0568
 7487TIP3    H246657   4.015   5.845   7.744  0.4580 -1.0285 -0.9093
 7488TIP3   OH246658   0.768   0.362   7.172 -0.0842 -0.0129 -0.1598
 7488TIP3    H146659   0.793   0.311   7.094  1.0831  1.3367 -0.7203
 7488TIP3    H246660   0.842   0.422   7.186 -1.5108  1.7247  0.2947
 7489TIP3   OH246661   6.513   4.375   8.506 -0.0028  0.0288  0.2953
 7489TIP3    H146662   6.419   4.355   8.504  0.3592 -1.8793 -0.3438
 7489TIP3    H246663   6.555   4.290   8.522  1.6887  0.4864 -1.3637
 7490TIP3   OH246664   4.143   5.830   7.356  0.2574 -0.4040  0.7181
 7490TIP3    H146665   4.111   5.741   7.341 -1.8554  0.5652 -1.1218
 7490TIP3    H246666   4.183   5.856   7.273 -3.1380  1.7847 -0.4615
 7491TIP3   OH246667   0.742   5.352   7.314 -0.3261  0.0555  0.2103
 7491TIP3    H146668   0.793   5.290   7.366  1.4336  0.4695 -0.9514
 7491TIP3    H246669   0.764   5.438   7.350  1.4313  0.4126 -1.5130
 7492TIP3   OH246670   0.524   1.367   7.104  0.4074  0.6886  0.7410
 7492TIP3    H146671   0.596   1.313   7.073 -1.9430 -2.6287  0.4947
 7492TIP3    H246672   0.471   1.384   7.026  0.4065  2.3311  1.0575
 7493TIP3   OH246673   2.753   1.881  10.099 -0.0148 -0.9803  0.4546
 7493TIP3    H146674   2.800   1.828  10.163 -0.9519 -1.4516  0.7654
 7493TIP3    H246675   2.799   1.965  10.100  0.8225 -1.4235  0.7396
 7494TIP3   OH246676   3.495   5.832   7.324 -0.4135  0.6582  0.3978
 7494TIP3    H146677   3.567   5.768   7.327 -0.5126  0.5377  3.3551
 7494TIP3    H246678   3.419   5.781   7.295 -0.0398 -0.0757  0.6634
 7495TIP3   OH246679   3.282   1.259   9.054 -0.4749  0.4977 -0.2229
 7495TIP3    H146680   3.299   1.200   8.980  0.1911 -0.6117  0.7855
 7495TIP3    H246681   3.367   1.297   9.074 -1.0371  2.5756 -1.4315
 7496TIP3   OH246682   2.955   5.011   6.878  0.1834  0.2245  0.2830
 7496TIP3    H146683   2.927   5.091   6.921 -1.1163 -0.4407  0.7153
 7496TIP3    H246684   2.913   4.941   6.927 -1.8854 -0.5488 -2.3441
 7497TIP3   OH246685   0.079   3.616   9.598  0.3216 -0.2321  0.1679
 7497TIP3    H146686   0.108   3.543   9.543 -1.5696 -0.9603  0.0530
 7497TIP3    H246687   0.041   3.679   9.537 -0.7903 -0.5467  0.5108
 7498TIP3   OH246688   6.535   4.394   6.545  0.3707  0.1599 -0.0392
 7498TIP3    H146689   6.510   4.487   6.547 -0.4365 -0.0631  0.9119
 7498TIP3    H246690   6.516   4.367   6.455  1.4515  1.1179 -0.5880
 7499TIP3   OH246691   2.115   0.851   8.809 -0.1054  0.0223 -0.6375
 7499TIP3    H146692   2.035   0.799   8.812  0.6454 -1.1094  1.5772
 7499TIP3    H246693   2.178   0.794   8.764 -0.2643  0.5684 -1.5912
 7500TIP3   OH246694   1.631   2.529   8.990  0.0338 -0.1265 -0.1062
 7500TIP3    H146695   1.580   2.549   9.069 -1.2864  0.0203 -0.9679
 7500TIP3    H246696   1.638   2.434   8.989  0.3016 -0.1162  0.3214
 7501TIP3   OH246697   0.074   6.007   9.302  0.4505  0.4717  0.3216
 7501TIP3    H146698   0.006   6.052   9.253  0.3734 -0.3872 -0.3834
 7501TIP3    H246699   0.155   6.051   9.278  0.3218  0.5364  0.0074
 7502TIP3   OH246700   3.335   3.792   7.492  0.0313  0.7593 -0.1627
 7502TIP3    H146701   3.419   3.747   7.477  0.0738  0.6516  0.3987
 7502TIP3    H246702   3.290   3.738   7.557  0.1693  1.6338  0.6836
 7503TIP3   OH246703   0.048   2.722  10.020  0.2181 -0.5634  0.3988
 7503TIP3    H146704   0.140   2.710  10.043  0.7616 -0.0858 -1.3787
 7503TIP3    H246705   0.049   2.766   9.935 -1.6624  1.4057  1.2965
 7504TIP3   OH246706   1.468   0.503   7.859  0.4762 -0.2159  0.5957
 7504TIP3    H146707   1.386   0.491   7.811  0.8030  1.7695 -0.5692
 7504TIP3    H246708   1.456   0.584   7.907  1.9046  0.3811  0.0063
 7505TIP3   OH246709   0.445   2.610   8.689 -0.0336 -0.2123 -0.0909
 7505TIP3    H146710   0.464   2.614   8.596 -0.5301 -0.0152 -0.1852
 7505TIP3    H246711   0.438   2.516   8.708 -2.0012 -0.2376 -0.6957
 7506TIP3   OH246712   5.633   3.776   7.420 -0.1818 -0.8330  0.2152
 7506TIP3    H146713   5.643   3.853   7.364  0.8270 -0.8110  0.4178
 7506TIP3    H246714   5.538   3.771   7.436 -0.1941  0.9894  1.0605
 7507TIP3   OH246715   6.200   1.706   6.655  0.0384 -0.1053 -0.2426
 7507TIP3    H146716   6.254   1.671   6.584 -1.1387 -1.0139 -0.7261
 7507TIP3    H246717   6.213   1.800   6.651 -0.3066 -0.1100 -1.9299
 7508TIP3   OH246718   2.463   2.557  10.559  0.4157 -0.4241  0.3807
 7508TIP3    H146719   2.369   2.542  10.547  0.4180 -0.1199 -0.0283
 7508TIP3    H246720   2.493   2.589  10.474  0.4494  1.7218  1.1583
 7509TIP3   OH246721   0.835   6.308   8.668 -0.6403 -0.4078  0.1478
 7509TIP3    H146722   0.868   6.252   8.738  0.8178  0.0856 -0.1144
 7509TIP3    H246723   0.800   6.385   8.713 -0.9475 -0.6905  0.3982
 7510TIP3   OH246724   1.362   0.088   7.689  0.4878  0.0724 -0.0385
 7510TIP3    H146725   1.334  -0.001   7.673  0.2749  0.1105  0.1291
 7510TIP3    H246726   1.366   0.128   7.602  2.4112 -0.6355 -0.3255
 7511TIP3   OH246727   5.360   0.091   6.923 -0.6116  0.0937  0.2306
 7511TIP3    H146728   5.293   0.077   6.856 -0.6696  0.0015  0.3071
 7511TIP3    H246729   5.430   0.030   6.901 -1.6395 -1.6718  1.6028
 7512TIP3   OH246730   1.029   3.356  10.061 -0.1682  0.0517  0.4243
 7512TIP3    H146731   0.952   3.388  10.015  0.5947  2.5309  0.7477
 7512TIP3    H246732   1.013   3.376  10.153  0.9742  0.9463  0.4518
 7513TIP3   OH246733   5.731   2.199   6.993  0.7316 -0.2352  0.1308
 7513TIP3    H146734   5.748   2.107   6.972 -0.7176 -0.1107 -1.8993
 7513TIP3    H246735   5.651   2.197   7.045  1.2457 -0.1490  0.9523
 7514TIP3   OH246736   3.758   1.181   8.212  0.9820  0.3548 -0.0936
 7514TIP3    H146737   3.779   1.240   8.139  1.8845  0.1184 -0.0415
 7514TIP3    H246738   3.834   1.123   8.218  0.9968  0.4772  1.1397
 7515TIP3   OH246739   6.185   6.658   9.211  0.1931 -0.5924 -0.4467
 7515TIP3    H146740   6.125   6.612   9.270  1.3777 -0.3022  1.0621
 7515TIP3    H246741   6.131   6.723   9.167 -1.1721 -2.2599 -1.3532
 7516TIP3   OH246742   6.429   1.689   9.114 -0.6798 -0.0606 -0.2336
 7516TIP3    H146743   6.439   1.760   9.050 -2.1739  0.8932  0.5314
 7516TIP3    H246744   6.499   1.704   9.178 -0.1612 -0.0784 -0.7878
 7517TIP3   OH246745   4.222   1.931   9.359 -0.5675 -0.3620  0.1865
 7517TIP3    H146746   4.194   1.918   9.450  0.1796 -0.8263  0.3654
 7517TIP3    H246747   4.165   1.874   9.308  0.1961 -1.5169  0.5752
 7518TIP3   OH246748   3.003   3.958   7.352 -0.2301 -0.0099 -0.4391
 7518TIP3    H146749   2.996   4.007   7.434  0.2280 -0.4666 -0.1179
 7518TIP3    H246750   3.093   3.975   7.322 -0.3194 -0.0360 -0.7277
 7519TIP3   OH246751   4.338   1.507   6.662 -0.1073 -0.6640 -0.2429
 7519TIP3    H146752   4.311   1.431   6.611  0.0213 -0.2099 -0.9919
 7519TIP3    H246753   4.262   1.528   6.716 -0.0836 -1.4273  0.1033
 7520TIP3   OH246754   6.518   0.630   7.594 -0.1962  0.3241  0.3898
 7520TIP3    H146755   6.571   0.695   7.547  3.4550 -1.2538  1.9178
 7520TIP3    H246756   6.520   0.658   7.685  1.1130 -1.5786  1.0224
 7521TIP3   OH246757   4.601   6.752   8.374 -0.4087  0.0720 -0.1355
 7521TIP3    H146758   4.653   6.680   8.341  0.4395  1.2107 -1.3795
 7521TIP3    H246759   4.645   6.779   8.455  0.2921  0.3022 -0.5887
 7522TIP3   OH246760   0.502   6.427   7.762 -0.1994 -0.4863  0.0115
 7522TIP3    H146761   0.508   6.505   7.707  0.2923 -0.5840 -0.0833
 7522TIP3    H246762   0.428   6.444   7.820  0.2808  0.3194  0.4068
 7523TIP3   OH246763   0.689   3.786   9.806 -0.2498 -0.2365  0.6136
 7523TIP3    H146764   0.692   3.878   9.835  0.2041 -0.2505  0.6112
 7523TIP3    H246765   0.595   3.764   9.807 -0.3358  0.1305  0.9158
 7524TIP3   OH246766   3.895   4.970   7.458  0.0984  0.2627  0.6412
 7524TIP3    H146767   3.868   4.884   7.425  0.1624 -0.3196  2.0248
 7524TIP3    H246768   3.815   5.008   7.495  0.4068  0.0580  1.5500
 7525TIP3   OH246769   4.120   1.847   8.447  0.4032 -0.0059 -0.1461
 7525TIP3    H146770   4.029   1.834   8.472 -0.1300  1.1733 -1.3179
 7525TIP3    H246771   4.134   1.787   8.374  1.0850 -1.3547  1.0447
 7526TIP3   OH246772   3.347   6.009   8.127 -0.8001 -0.6495 -0.7740
 7526TIP3    H146773   3.351   6.082   8.065 -1.7438 -0.7637 -0.9886
 7526TIP3    H246774   3.384   6.044   8.207  1.8853 -0.9528 -1.7962
 7527TIP3   OH246775   4.330   5.152   8.358 -0.1102 -0.0873 -0.5878
 7527TIP3    H146776   4.264   5.201   8.310  1.3296  1.4441 -1.1178
 7527TIP3    H246777   4.313   5.061   8.337 -0.1610  0.4553 -3.2775
 7528TIP3   OH246778   4.867   4.249   7.049 -0.5130  0.0011 -0.7958
 7528TIP3    H146779   4.781   4.234   7.010 -0.4754 -2.0439 -0.1973
 7528TIP3    H246780   4.922   4.180   7.013  0.4408  0.2602  0.1173
 7529TIP3   OH246781   0.511   4.935  10.156 -0.1664  0.2145  0.2655
 7529TIP3    H146782   0.426   4.977  10.174  0.4079  1.5123  0.0942
 7529TIP3    H246783   0.528   4.955  10.064 -0.2482 -1.1489 -0.0700
 7530TIP3   OH246784   2.967   5.714   8.582  0.2427  0.3687  0.2867
 7530TIP3    H146785   2.943   5.755   8.500  0.6004  0.3889  0.1896
 7530TIP3    H246786   3.046   5.663   8.561  0.6818  0.8481  0.7505
 7531TIP3   OH246787   5.007   1.993   7.461 -0.4134 -0.0916 -0.1809
 7531TIP3    H146788   4.995   2.029   7.549  1.1165  1.7869 -0.6811
 7531TIP3    H246789   4.950   2.047   7.406 -1.5179 -1.3868 -0.3689
 7532TIP3   OH246790   2.186   6.443   8.883  0.1713  0.0695 -0.9109
 7532TIP3    H146791   2.112   6.448   8.944  1.4753  0.3077  0.7176
 7532TIP3    H246792   2.240   6.372   8.917 -1.0384 -2.6960 -4.1976
 7533TIP3   OH246793   0.834   6.528   8.204  0.5378  0.6592  0.3610
 7533TIP3    H146794   0.885   6.537   8.285  1.0275  2.1343 -0.0800
 7533TIP3    H246795   0.886   6.575   8.138  0.0930 -0.4159 -0.8018
 7534TIP3   OH246796   2.459   2.198   8.551  0.0303 -0.3630  0.3937
 7534TIP3    H146797   2.466   2.259   8.624 -0.8546 -0.2961  0.4400
 7534TIP3    H246798   2.382   2.229   8.502 -0.3298 -1.3444  0.3281
 7535TIP3   OH246799   0.685   0.049   8.181 -0.2128 -0.0108  0.0497
 7535TIP3    H146800   0.766   0.100   8.178  0.1844 -0.6743 -1.3794
 7535TIP3    H246801   0.631   0.094   8.247  1.3967  0.2908  1.2376
 7536TIP3   OH246802   6.267   0.621   8.617  0.0415  0.3898  0.2561
 7536TIP3    H146803   6.267   0.695   8.678 -0.1616 -0.9858  2.0011
 7536TIP3    H246804   6.175   0.597   8.608  0.2157 -0.7355  1.1463
 7537TIP3   OH246805   1.750   2.637   6.919 -0.5153 -0.2834 -0.0155
 7537TIP3    H146806   1.755   2.607   7.010 -0.0858 -1.0755 -0.2847
 7537TIP3    H246807   1.838   2.619   6.884 -0.3248  1.0584 -0.2808
 7538TIP3   OH246808   6.563   4.322   8.944 -0.1041  0.3951  0.3337
 7538TIP3    H146809   6.556   4.416   8.956 -1.1913  0.4191 -0.4335
 7538TIP3    H246810   6.554   4.308   8.850 -3.5248 -0.7222  0.6863
 7539TIP3   OH246811   2.682   3.566   8.754  0.0596  0.4714  0.5179
 7539TIP3    H146812   2.633   3.494   8.713 -0.0493  1.6193 -1.4736
 7539TIP3    H246813   2.640   3.577   8.840 -0.2650 -1.4595  0.6650
 7540TIP3   OH246814   6.213   4.987   9.654 -1.1037  0.0395  0.1962
 7540TIP3    H146815   6.286   5.032   9.697 -1.4603  0.1446  0.6934
 7540TIP3    H246816   6.185   5.048   9.585 -0.2982 -0.2864 -0.4310
 7541TIP3   OH246817   0.772   1.501   9.103  0.0465 -0.4067  0.6355
 7541TIP3    H146818   0.714   1.560   9.151 -0.9881 -1.7094  1.0411
 7541TIP3    H246819   0.822   1.456   9.171  0.7852 -0.0573  0.3328
 7542TIP3   OH246820   6.310   6.572   8.755 -0.1350  0.4192  0.0570
 7542TIP3    H146821   6.244   6.616   8.701 -1.6199 -1.6987  0.0090
 7542TIP3    H246822   6.380   6.550   8.693  0.4194  2.2138  0.0000
 7543TIP3   OH246823   4.413   3.517   8.657  0.3676  0.0582 -0.3722
 7543TIP3    H146824   4.496   3.560   8.675  0.9207 -1.3383  0.6233
 7543TIP3    H246825   4.426   3.427   8.686 -1.1622 -0.4560 -1.1642
 7544TIP3   OH246826   5.024   5.150   9.809 -0.0218  0.1694 -0.6247
 7544TIP3    H146827   4.940   5.197   9.807 -1.0742 -1.5618  0.4077
 7544TIP3    H246828   5.060   5.162   9.722  0.5027  4.0595 -0.0647
 7545TIP3   OH246829   0.242   3.600   8.767  0.3110  0.6284 -0.0832
 7545TIP3    H146830   0.155   3.604   8.806  0.5205 -0.8999  0.6417
 7545TIP3    H246831   0.290   3.537   8.821  1.6753  0.9732 -0.8296
 7546TIP3   OH246832   2.311   2.349   9.578 -0.4778  0.0930 -0.0795
 7546TIP3    H146833   2.217   2.348   9.563 -0.3589 -0.4910 -0.8455
 7546TIP3    H246834   2.342   2.429   9.535 -0.3709 -0.7145 -1.5581
 7547TIP3   OH246835   3.853   0.526   8.094  0.1360  0.3380 -0.0986
 7547TIP3    H146836   3.819   0.472   8.166 -1.3382  1.6657  0.2668
 7547TIP3    H246837   3.895   0.463   8.035  0.4083 -0.9278  1.3640
 7548TIP3   OH246838   5.919   6.179   9.408  0.3273  0.1594  0.6037
 7548TIP3    H146839   5.902   6.114   9.477 -1.7195  0.8842  0.8442
 7548TIP3    H246840   5.957   6.254   9.454 -0.3370  0.3545  0.8467
 7549TIP3   OH246841   3.794   6.399   8.252 -0.3533 -0.0901  0.0170
 7549TIP3    H146842   3.831   6.432   8.334  3.0505 -2.4050 -0.3763
 7549TIP3    H246843   3.816   6.466   8.188  2.1284 -0.7637  0.0725
 7550TIP3   OH246844   4.529   4.450   9.136  0.5697  0.5575  0.2324
 7550TIP3    H146845   4.508   4.502   9.058 -0.8936  0.3980  0.4925
 7550TIP3    H246846   4.491   4.500   9.209  1.5780  0.5036  0.8199
 7551TIP3   OH246847   2.138   6.707   8.405 -0.7307 -0.0782  0.4101
 7551TIP3    H146848   2.142   6.616   8.434  0.2402 -0.3939 -0.6645
 7551TIP3    H246849   2.102   6.754   8.480  1.3917 -0.9156  2.0531
 7552TIP3   OH246850   4.529   1.290   7.167 -0.3542 -0.2979 -0.3218
 7552TIP3    H146851   4.596   1.280   7.099  0.7397 -1.3070  0.8261
 7552TIP3    H246852   4.530   1.383   7.189 -0.1275 -0.1107 -1.0923
 7553TIP3   OH246853   2.942   3.542   8.787  0.1037  0.0813  0.6499
 7553TIP3    H146854   2.851   3.563   8.769 -0.2557  0.4439  2.7152
 7553TIP3    H246855   2.950   3.449   8.764 -0.9393 -0.1081  1.0214
 7554TIP3   OH246856   4.723   3.869   7.445 -0.0689  0.1880  0.6649
 7554TIP3    H146857   4.672   3.922   7.506  1.0994 -0.3401  2.1615
 7554TIP3    H246858   4.728   3.922   7.366 -0.4411  1.5225  1.5069
 7555TIP3   OH246859   0.793   4.231   7.415 -0.1999  0.0814 -0.3235
 7555TIP3    H146860   0.797   4.144   7.455  0.5892  0.3523  0.2068
 7555TIP3    H246861   0.873   4.275   7.444 -0.5535  0.9652 -0.6435
 7556TIP3   OH246862   3.388   1.111   9.658 -0.6146  0.1189  0.2601
 7556TIP3    H146863   3.455   1.142   9.719  1.5101 -0.2151 -1.7316
 7556TIP3    H246864   3.337   1.189   9.636  0.5763  0.8961  0.1546
 7557TIP3   OH246865   3.126   2.728   9.763 -0.0899 -0.1973  0.0316
 7557TIP3    H146866   3.131   2.777   9.845 -3.3231  0.6740 -0.1808
 7557TIP3    H246867   3.069   2.780   9.707 -0.5319 -2.3320 -1.6240
 7558TIP3   OH246868   1.413   3.022   6.489  0.5847 -0.7995 -0.4859
 7558TIP3    H146869   1.414   3.113   6.516  1.8564 -1.4122  1.7535
 7558TIP3    H246870   1.331   2.987   6.523  1.5444 -1.2190  1.5517
 7559TIP3   OH246871   5.659   5.620   8.952 -0.2886  0.0750  0.1662
 7559TIP3    H146872   5.638   5.554   9.017 -0.6308 -0.4994 -0.5222
 7559TIP3    H246873   5.715   5.682   8.999 -1.6617  0.4403  1.4112
 7560TIP3   OH246874   3.703   2.919   7.285 -0.1882 -0.1695  0.3324
 7560TIP3    H146875   3.769   2.922   7.216  0.5334  1.6752  1.0580
 7560TIP3    H246876   3.679   2.826   7.290  2.4743 -0.9533  0.1935
 7561TIP3   OH246877   3.995   1.807   9.141  0.1905  0.2222 -0.2790
 7561TIP3    H146878   4.017   1.714   9.136 -1.9790 -0.3280 -0.3593
 7561TIP3    H246879   3.993   1.837   9.051  2.2930  0.7705 -0.2117
 7562TIP3   OH246880   4.280   3.991  10.761 -0.3835  0.0261  0.4213
 7562TIP3    H146881   4.340   3.951  10.824 -0.6353  1.0921  1.3760
 7562TIP3    H246882   4.332   4.000  10.681  0.7714  0.9549  1.2290
 7563TIP3   OH246883   5.162   3.709   9.416  0.3265  0.0094  0.7051
 7563TIP3    H146884   5.175   3.758   9.335 -0.9364 -0.0240  0.4661
 7563TIP3    H246885   5.151   3.618   9.388 -1.1996  0.1425  0.7858
 7564TIP3   OH246886   5.422   2.028   9.289 -0.0931  0.0921 -0.0416
 7564TIP3    H146887   5.466   1.944   9.289  0.0319  0.1527 -0.9334
 7564TIP3    H246888   5.479   2.085   9.341  0.3070 -0.1173 -0.2512
 7565TIP3   OH246889   1.353   4.534   7.550 -0.0521  0.5794 -0.0617
 7565TIP3    H146890   1.260   4.541   7.573 -0.1163  0.9089 -0.4067
 7565TIP3    H246891   1.364   4.442   7.525  0.1733  0.0379  1.8633
 7566TIP3   OH246892   4.262   0.639   8.167 -0.3161  0.2415  0.2656
 7566TIP3    H146893   4.343   0.602   8.133  0.6150  2.1458  0.2675
 7566TIP3    H246894   4.234   0.578   8.235 -0.8826 -2.3475 -2.1268
 7567TIP3   OH246895   2.697   0.313   6.937 -0.0277 -0.5188 -0.4878
 7567TIP3    H146896   2.789   0.287   6.929 -0.2563 -2.1222  1.3623
 7567TIP3    H246897   2.673   0.287   7.026 -2.0183  0.7532 -0.6072
 7568TIP3   OH246898   0.291   3.231   9.094  0.0209  0.3534 -0.2187
 7568TIP3    H146899   0.267   3.153   9.043  0.2159  0.1144  0.0524
 7568TIP3    H246900   0.271   3.207   9.184  0.3712  0.5089 -0.0989
 7569TIP3   OH246901   5.092   4.677   9.157 -0.0057 -0.1663 -0.6280
 7569TIP3    H146902   5.034   4.625   9.101 -0.4778  1.1953 -1.4755
 7569TIP3    H246903   5.055   4.668   9.245 -1.1979  0.2355 -1.0668
 7570TIP3   OH246904   5.570   0.888   7.208  0.0350 -0.7582  0.2509
 7570TIP3    H146905   5.584   0.916   7.118 -1.4878  0.1004  0.2566
 7570TIP3    H246906   5.587   0.794   7.207  2.7008 -0.3641 -0.3257
 7571TIP3   OH246907   2.260   3.694   9.155  0.3336 -0.1061  0.1555
 7571TIP3    H146908   2.298   3.782   9.164 -1.7075  0.6679  2.3206
 7571TIP3    H246909   2.315   3.638   9.209  1.1581 -0.0142 -0.5665
 7572TIP3   OH246910   4.926   3.871   7.666 -0.4056 -0.0268  0.6702
 7572TIP3    H146911   4.935   3.811   7.740 -1.9987  0.1668  1.0689
 7572TIP3    H246912   4.843   3.846   7.625 -0.4672  1.0885  0.0816
 7573TIP3   OH246913   2.211   6.298   7.132 -0.2244 -0.1617 -0.1317
 7573TIP3    H146914   2.233   6.285   7.224 -0.4639 -0.0054 -0.0513
 7573TIP3    H246915   2.139   6.361   7.133 -2.6561 -2.7333 -0.1812
 7574TIP3   OH246916   1.071   5.474   9.512 -0.0355 -0.0218 -0.6118
 7574TIP3    H146917   1.161   5.444   9.523 -0.2676 -0.1335  1.2951
 7574TIP3    H246918   1.072   5.565   9.540 -0.3842  0.1779 -1.2418
 7575TIP3   OH246919   6.162   3.444   7.218  0.1646  0.7468 -0.3293
 7575TIP3    H146920   6.172   3.498   7.140  3.0206  1.3612  0.3408
 7575TIP3    H246921   6.136   3.506   7.286 -1.1209  0.4153 -0.4876
 7576TIP3   OH246922   5.256   4.711   8.331  0.3015  0.2229 -0.6554
 7576TIP3    H146923   5.238   4.636   8.274 -2.1163  0.5330 -0.4012
 7576TIP3    H246924   5.283   4.781   8.272 -0.7527  0.1169 -1.2726
 7577TIP3   OH246925   6.109   6.235   7.287 -0.5424 -0.3648  0.3700
 7577TIP3    H146926   6.111   6.167   7.220 -2.9526  0.6501 -0.8704
 7577TIP3    H246927   6.030   6.215   7.338 -0.3570  0.5446  1.0289
 7578TIP3   OH246928   4.980   5.516   9.030 -0.1447 -0.3792  0.1038
 7578TIP3    H146929   4.886   5.499   9.036 -0.2355  0.4125  1.5020
 7578TIP3    H246930   5.014   5.494   9.117  1.3694 -2.6823 -0.9743
 7579TIP3   OH246931   1.032   2.619   7.218 -0.0150  0.5487  0.1088
 7579TIP3    H146932   1.000   2.679   7.151  0.4054  0.1443 -0.4564
 7579TIP3    H246933   0.985   2.537   7.201 -0.1374  0.5343  0.5027
 7580TIP3   OH246934   5.242   3.650   9.016 -0.1860  0.2334 -0.4784
 7580TIP3    H146935   5.259   3.734   9.058 -0.3978  0.9622 -1.8052
 7580TIP3    H246936   5.180   3.605   9.074 -0.5704  1.2659 -0.0805
 7581TIP3   OH246937   2.038   3.557   8.172 -0.3106 -0.8346 -0.2925
 7581TIP3    H146938   2.130   3.550   8.198 -0.1143 -0.7358 -0.9436
 7581TIP3    H246939   2.007   3.466   8.169  0.2572 -0.9981 -1.7772
 7582TIP3   OH246940   5.816   1.389   8.017 -0.4600 -0.0280  0.1237
 7582TIP3    H146941   5.756   1.425   8.082 -1.5576  0.1372 -0.9316
 7582TIP3    H246942   5.772   1.405   7.933  0.4329 -1.1328 -0.5858
 7583TIP3   OH246943   3.871   2.345   9.515 -0.0265 -0.1832 -0.0188
 7583TIP3    H146944   3.896   2.253   9.510  0.6825 -0.0255  0.3931
 7583TIP3    H246945   3.879   2.367   9.608 -1.1125  0.0562  0.0320
 7584TIP3   OH246946   4.964   5.871   7.093 -0.5735 -0.3623 -0.2774
 7584TIP3    H146947   4.918   5.859   7.010 -0.2757 -1.7897 -0.2490
 7584TIP3    H246948   5.042   5.922   7.071 -0.7220 -0.3561 -0.7921
 7585TIP3   OH246949   6.137   3.209   9.208 -0.6565  0.2844 -0.0396
 7585TIP3    H146950   6.198   3.247   9.145  1.8380 -1.2278  1.3104
 7585TIP3    H246951   6.144   3.115   9.195 -3.0676  0.0457 -0.0752
 7586TIP3   OH246952   2.806   2.075  10.443 -0.2746  0.2454 -0.6357
 7586TIP3    H146953   2.732   2.135  10.454  0.4830  1.2365 -0.8715
 7586TIP3    H246954   2.838   2.091  10.354  0.1529 -0.2646 -0.5822
 7587TIP3   OH246955   6.455   4.248   7.851 -0.4131  0.1068 -0.3283
 7587TIP3    H146956   6.419   4.236   7.938  1.5997  0.0336  0.5488
 7587TIP3    H246957   6.550   4.240   7.862 -0.0251  1.1080 -2.3502
 7588TIP3   OH246958   1.678   6.368   8.615  0.2660 -0.3941  0.4468
 7588TIP3    H146959   1.619   6.292   8.619  2.1631 -1.9587  0.2330
 7588TIP3    H246960   1.695   6.390   8.707  1.5924 -1.8353  0.5930
 7589TIP3   OH246961   6.538   0.498   6.802  0.1087  0.4430 -0.2011
 7589TIP3    H146962   6.578   0.411   6.805  0.3440  0.5578  0.0732
 7589TIP3    H246963   6.472   0.492   6.733 -1.9833 -0.8711  1.7658
 7590TIP3   OH246964   5.251   4.916   7.024 -0.0249  0.5792 -0.0123
 7590TIP3    H146965   5.235   4.928   6.931 -0.6310 -1.6389 -0.2540
 7590TIP3    H246966   5.168   4.939   7.066 -0.3716 -0.2823 -0.2164
 7591TIP3   OH246967   5.742   3.535   9.078 -0.3239 -0.0822 -0.1046
 7591TIP3    H146968   5.764   3.442   9.064 -0.7264 -0.1158 -0.5199
 7591TIP3    H246969   5.732   3.571   8.990  2.4513  1.0085 -0.0698
 7592TIP3   OH246970   1.368   3.159   9.180  0.2431  0.3466  0.8110
 7592TIP3    H146971   1.344   3.218   9.108  0.6376  0.3482  0.6785
 7592TIP3    H246972   1.329   3.199   9.258 -0.8711 -0.0735  0.4923
 7593TIP3   OH246973   3.025   1.021   8.887 -0.0118  0.2848  0.6478
 7593TIP3    H146974   2.970   1.097   8.907  0.1619  0.1791  1.5705
 7593TIP3    H246975   2.964   0.947   8.890 -0.1559  0.3557 -0.1268
 7594TIP3   OH246976   4.679   3.175   6.959 -0.2645  0.5321  0.8193
 7594TIP3    H146977   4.768   3.208   6.971 -1.3826  3.1055  3.0339
 7594TIP3    H246978   4.663   3.121   7.037 -1.8423  3.3668  2.6557
 7595TIP3   OH246979   5.934   2.774   9.282  0.6059  0.1243 -0.1007
 7595TIP3    H146980   5.932   2.708   9.351 -1.0627  0.4856  0.2393
 7595TIP3    H246981   5.845   2.806   9.277  0.7289  0.2961 -2.2730
 7596TIP3   OH246982   0.023   0.819   8.953  0.1986  0.2037  0.9049
 7596TIP3    H146983  -0.067   0.851   8.942  0.1592  1.4624  3.8857
 7596TIP3    H246984   0.074   0.868   8.889 -1.2315 -0.9695 -1.2744
 7597TIP3   OH246985   5.694   5.483   6.760 -0.5005 -0.4744  0.0740
 7597TIP3    H146986   5.750   5.544   6.809  0.3633 -0.4403 -0.9136
 7597TIP3    H246987   5.756   5.430   6.710 -1.2744 -1.7249  0.3923
 7598TIP3   OH246988   1.251   1.734   8.800  0.0704 -0.4344 -0.1501
 7598TIP3    H146989   1.226   1.796   8.869 -0.4561 -1.3434  0.5033
 7598TIP3    H246990   1.320   1.680   8.840  0.6587 -0.1607 -0.7781
 7599TIP3   OH246991   6.507   5.197   7.015  0.2993 -0.6517 -0.1785
 7599TIP3    H146992   6.596   5.183   6.983  0.2887 -0.3069 -0.3631
 7599TIP3    H246993   6.482   5.282   6.979  0.1597 -0.4172  0.4691
 7600TIP3   OH246994   0.327   4.166   7.247 -0.1200 -0.4355 -0.0823
 7600TIP3    H146995   0.267   4.102   7.284 -0.2644 -1.3332 -1.7639
 7600TIP3    H246996   0.275   4.246   7.239  0.6288  0.6970  3.9959
 7601TIP3   OH246997   4.188   2.726   6.886 -0.4893 -0.7547  0.5800
 7601TIP3    H146998   4.138   2.800   6.920  0.7923  0.2885  0.2786
 7601TIP3    H246999   4.211   2.751   6.797 -1.0615 -2.0627  0.0344
 7602TIP3   OH247000   5.632   5.232   8.847 -0.3640 -0.1485 -0.0798
 7602TIP3    H147001   5.657   5.230   8.939  2.6582 -3.3839 -0.7555
 7602TIP3    H247002   5.680   5.306   8.810  1.0838 -0.8122  0.4074
 7603TIP3   OH247003   4.827   4.193   8.729 -1.2601  0.6507 -0.4970
 7603TIP3    H147004   4.878   4.204   8.810 -0.6086 -0.8249 -0.6614
 7603TIP3    H247005   4.894   4.188   8.660 -1.8400  2.6072 -1.2476
 7604TIP3   OH247006   6.736   3.941   6.849 -0.5987 -0.0604  0.3124
 7604TIP3    H147007   6.831   3.933   6.835 -0.6428  0.2034 -0.1772
 7604TIP3    H247008   6.724   4.033   6.874 -1.0027  0.6775 -2.2524
 7605TIP3   OH247009   0.451   6.098   7.287 -0.5897  0.3673 -0.2410
 7605TIP3    H147010   0.469   6.192   7.279  0.1785  0.1544 -1.3732
 7605TIP3    H247011   0.470   6.078   7.378  0.9971  0.9904 -0.3945
 7606TIP3   OH247012   0.394   0.558   8.804 -0.4024 -0.5718  0.1447
 7606TIP3    H147013   0.410   0.464   8.816  0.5860 -0.3713  0.5045
 7606TIP3    H247014   0.328   0.562   8.735 -1.0412 -1.5501  0.6707
 7607TIP3   OH247015   0.799   4.006   9.410  0.2476  0.3196 -0.4488
 7607TIP3    H147016   0.791   3.915   9.439 -0.7991  0.5085 -0.0876
 7607TIP3    H247017   0.719   4.048   9.442  0.3906  1.2050 -1.2150
 7608TIP3   OH247018   2.123   6.245   8.105  0.3173 -0.0717 -0.1788
 7608TIP3    H147019   2.055   6.218   8.043  1.3385  1.2493 -1.9626
 7608TIP3    H247020   2.157   6.163   8.141 -0.3145 -0.8817 -1.3695
 7609TIP3   OH247021   0.898   0.202   8.294 -0.5513  0.4566 -0.1464
 7609TIP3    H147022   0.965   0.164   8.236 -1.8631  2.0593 -2.9584
 7609TIP3    H247023   0.948   0.244   8.364  1.3617  0.6235 -1.5181
 7610TIP3   OH247024   1.174   4.094   7.968  0.3203 -0.3335  0.0306
 7610TIP3    H147025   1.148   4.161   8.031 -1.0077  0.0490 -0.8788
 7610TIP3    H247026   1.243   4.044   8.013  2.5038  2.5631  0.1506
 7611TIP3   OH247027   5.278   4.840   9.431 -0.3347  0.7182  0.4868
 7611TIP3    H147028   5.190   4.802   9.429 -0.3477  0.7389  0.6430
 7611TIP3    H247029   5.283   4.883   9.516 -0.2040  0.7918  0.4407
 7612TIP3   OH247030   0.922   3.590   8.947  0.6300 -1.2141  0.2184
 7612TIP3    H147031   0.895   3.618   9.034 -0.2753  1.6381 -0.9034
 7612TIP3    H247032   0.864   3.517   8.926 -2.2071  0.8450  0.3361
 7613TIP3   OH247033   1.909   6.759   9.793 -0.4318 -0.5081 -0.0644
 7613TIP3    H147034   1.835   6.699   9.798 -1.1312  0.3726  0.6419
 7613TIP3    H247035   1.869   6.846   9.785  0.5109 -0.0096  0.4248
 7614TIP3   OH247036   0.408   6.264   8.267 -0.3648  0.0527  0.3167
 7614TIP3    H147037   0.367   6.319   8.334  0.4945 -1.5933  2.3197
 7614TIP3    H247038   0.463   6.324   8.217 -1.8431  1.5244  0.3695
 7615TIP3   OH247039   0.597   4.385   7.165  0.5785 -0.3425  0.4903
 7615TIP3    H147040   0.644   4.303   7.153 -0.6359 -0.8791 -0.7368
 7615TIP3    H247041   0.621   4.438   7.089 -1.4727 -0.9861 -0.6758
 7616TIP3   OH247042   3.993   5.883   8.869 -0.3970  0.0093  0.1377
 7616TIP3    H147043   4.039   5.913   8.791 -0.1281 -1.3860 -0.2671
 7616TIP3    H247044   4.000   5.787   8.867  1.2390 -0.0492  2.8459
 7617TIP3   OH247045   1.244   3.443   8.717  0.0231  0.1746 -0.0611
 7617TIP3    H147046   1.175   3.485   8.768 -0.1415 -1.7189  1.4156
 7617TIP3    H247047   1.295   3.515   8.680 -1.7550  1.6170  0.1574
 7618TIP3   OH247048   1.325   4.351   6.521 -0.1559  0.2162  0.1468
 7618TIP3    H147049   1.343   4.442   6.546  0.7613  0.0640  0.0807
 7618TIP3    H247050   1.251   4.357   6.460  1.0692  1.1152 -1.3283
 7619TIP3   OH247051   6.494   2.581   9.121  0.1695  0.4011 -0.7221
 7619TIP3    H147052   6.516   2.545   9.207 -1.9673  0.5288 -0.0691
 7619TIP3    H247053   6.458   2.507   9.073 -0.4477  0.7546 -0.8126
 7620TIP3   OH247054   6.386   6.570   7.922  0.6230  0.0808  0.5025
 7620TIP3    H147055   6.427   6.550   8.006 -0.4720 -0.2502  0.9779
 7620TIP3    H247056   6.455   6.610   7.870  2.0952 -2.1672  0.5791
 7621TIP3   OH247057   1.585   4.584   9.251  0.1558 -0.5418 -0.1413
 7621TIP3    H147058   1.525   4.536   9.307  1.5247 -1.7361  0.3607
 7621TIP3    H247059   1.645   4.518   9.217  1.9700  0.7409  0.3903
 7622TIP3   OH247060   3.403   0.856   8.980 -0.0006 -0.3381  0.2782
 7622TIP3    H147061   3.442   0.929   8.931 -0.2944 -1.0557 -1.0826
 7622TIP3    H247062   3.435   0.867   9.069  0.9578  0.7480 -0.1713
 7623TIP3   OH247063   1.627   4.709   8.352  0.4688 -0.1169 -0.3426
 7623TIP3    H147064   1.545   4.673   8.386 -0.0919  0.8107 -0.6645
 7623TIP3    H247065   1.601   4.761   8.276  1.1744  1.2416  0.3032
 7624TIP3   OH247066   6.377   0.943   8.480  0.8000 -0.1692 -0.5008
 7624TIP3    H147067   6.310   0.963   8.415  0.4508 -0.1099 -0.1249
 7624TIP3    H247068   6.328   0.917   8.558  1.2206 -0.7219 -0.4104
 7625TIP3   OH247069   5.783   6.497   6.629 -0.0561 -0.0676 -0.2066
 7625TIP3    H147070   5.816   6.515   6.717 -0.2857  0.9636 -0.3186
 7625TIP3    H247071   5.772   6.402   6.626  1.5213 -0.2908  0.3149
 7626TIP3   OH247072   0.814   1.969   9.386 -0.2382  0.1756  0.5044
 7626TIP3    H147073   0.887   2.026   9.362  0.8588 -1.8791 -1.3589
 7626TIP3    H247074   0.834   1.942   9.476  1.6526 -0.7697 -0.1406
 7627TIP3   OH247075   5.016   2.283   7.187 -0.2080  0.0254  0.0508
 7627TIP3    H147076   4.941   2.289   7.246 -0.1773  1.7119 -0.0548
 7627TIP3    H247077   5.043   2.373   7.173  0.8427 -0.4588 -1.2014
 7628TIP3   OH247078   4.938   1.072   8.277  0.4640 -0.1414  0.0043
 7628TIP3    H147079   4.852   1.086   8.237  0.6874  3.1964  0.3627
 7628TIP3    H247080   4.994   1.045   8.205  0.0517  2.2398 -1.3309
 7629TIP3   OH247081   0.165   3.440   7.020 -0.6200 -0.1973 -0.2805
 7629TIP3    H147082   0.128   3.479   7.099 -0.3097 -2.4024  1.0574
 7629TIP3    H247083   0.094   3.387   6.984 -1.3557  2.1507 -2.6120
 7630TIP3   OH247084   5.777   0.763   7.428 -0.1092 -0.3462 -0.3053
 7630TIP3    H147085   5.795   0.838   7.371 -1.5879 -0.0148 -0.3542
 7630TIP3    H247086   5.846   0.767   7.494 -0.3436  1.2388 -0.1246
 7631TIP3   OH247087   4.394   2.210   7.489  0.4124  0.1713 -0.4218
 7631TIP3    H147088   4.412   2.167   7.405  0.8146 -0.4200 -0.0396
 7631TIP3    H247089   4.472   2.193   7.542 -0.1775 -0.1535  0.3547
 7632TIP3   OH247090   2.974   2.130   8.603 -0.3117 -0.0792 -0.1573
 7632TIP3    H147091   2.907   2.164   8.545 -1.0461  1.3264  1.4318
 7632TIP3    H247092   3.046   2.193   8.597 -1.1172  1.1022  1.7467
 7633TIP3   OH247093   0.975   1.641   8.621  0.1054 -0.3646 -0.0947
 7633TIP3    H147094   1.039   1.586   8.667  0.5372 -0.2418 -0.5515
 7633TIP3    H247095   0.900   1.645   8.681  0.9339  0.3729  0.9204
 7634TIP3   OH247096   1.842   3.981   8.233 -0.0938 -0.0154  0.1985
 7634TIP3    H147097   1.891   4.020   8.160  1.7010 -1.8297  0.3666
 7634TIP3    H247098   1.816   4.056   8.286  3.4833  1.0805  0.6890
 7635TIP3   OH247099   5.195   3.740   7.060 -0.3090 -0.0145  1.2396
 7635TIP3    H147100   5.248   3.678   7.111 -0.4061 -0.2557  1.0477
 7635TIP3    H247101   5.105   3.711   7.074 -0.2976 -0.4389  0.4570
 7636TIP3   OH247102   1.776   1.882   9.550  0.9356 -0.5810 -0.6249
 7636TIP3    H147103   1.845   1.917   9.606 -1.0592  2.8819 -0.0807
 7636TIP3    H247104   1.701   1.871   9.608 -0.1604 -0.3101 -1.9394
 7637TIP3   OH247105   1.583   6.714   8.778  0.4884  0.0843  0.0758
 7637TIP3    H147106   1.511   6.655   8.755 -0.7429  1.3147  0.6594
 7637TIP3    H247107   1.661   6.672   8.742 -0.6162 -0.8918 -1.2489
 7638TIP3   OH247108   3.163   3.488  10.102  0.1870  0.0715  0.5256
 7638TIP3    H147109   3.199   3.552  10.163 -0.6410  2.0593 -0.9464
 7638TIP3    H247110   3.226   3.487  10.029  0.8076 -1.7452  1.0326
 7639TIP3   OH247111   5.812   4.498   7.025 -0.0831 -0.2383  0.6389
 7639TIP3    H147112   5.784   4.406   7.021  0.4921 -0.4051  0.3431
 7639TIP3    H247113   5.820   4.524   6.933 -1.0321  0.3569  0.7137
 7640TIP3   OH247114   6.672   3.419   7.758  0.3460  0.0116  0.2224
 7640TIP3    H147115   6.677   3.499   7.705 -0.6268  0.0397  0.1490
 7640TIP3    H247116   6.746   3.425   7.818  0.7807  0.5512 -0.3518
 7641TIP3   OH247117   4.683   2.767   8.836  0.1311  0.7959 -0.0143
 7641TIP3    H147118   4.711   2.837   8.777  1.6956 -0.0388 -0.3356
 7641TIP3    H247119   4.712   2.796   8.923  1.1040  0.4262 -0.1957
 7642TIP3   OH247120   4.092   3.752   9.147  0.8092 -0.7457  0.4487
 7642TIP3    H147121   4.178   3.780   9.115  1.4931 -1.0250  1.9302
 7642TIP3    H247122   4.078   3.666   9.107  0.7883 -0.2999 -0.5203
 7643TIP3   OH247123   1.619   5.264   7.005  0.1744 -0.5401 -0.4800
 7643TIP3    H147124   1.600   5.174   6.977  3.9506 -2.2372  1.6365
 7643TIP3    H247125   1.707   5.281   6.974 -0.2667  2.3611 -0.4373
 7644TIP3   OH247126   1.894   1.995   7.448  0.3404  0.7285  0.0869
 7644TIP3    H147127   1.867   1.904   7.452  0.7258  0.4236 -2.7071
 7644TIP3    H247128   1.983   1.993   7.414  0.2991  2.1471 -0.1872
 7645TIP3   OH247129   6.525   5.803   7.922 -0.1282 -0.3350 -0.2434
 7645TIP3    H147130   6.610   5.820   7.881 -1.3786  0.0566 -2.9419
 7645TIP3    H247131   6.526   5.710   7.941  1.4897 -0.0428  1.3860
 7646TIP3   OH247132   0.237   5.843   9.882 -0.4817  0.1692 -0.2905
 7646TIP3    H147133   0.220   5.928   9.923 -1.8110  0.1076 -0.6676
 7646TIP3    H247134   0.262   5.865   9.792  3.1932  0.3519  0.6281
 7647TIP3   OH247135   5.776   2.548   8.737 -0.1772  0.6738  0.4969
 7647TIP3    H147136   5.813   2.468   8.699  3.1060  2.3602 -0.2320
 7647TIP3    H247137   5.738   2.594   8.662  0.7722  1.1933  0.3203
 7648TIP3   OH247138   1.067   5.256  10.051 -0.7849 -0.3526  0.2120
 7648TIP3    H147139   0.989   5.223  10.097  0.1671 -0.2747  1.9899
 7648TIP3    H247140   1.139   5.203  10.085  0.0141 -0.1111 -1.0442
 7649TIP3   OH247141   5.540   3.372   7.335 -0.3165 -0.2442  0.5775
 7649TIP3    H147142   5.621   3.415   7.359 -0.6433  2.1856 -2.0789
 7649TIP3    H247143   5.567   3.289   7.296  1.1282  1.0735 -1.4401
 7650TIP3   OH247144   1.955   0.498   9.921  0.2436 -0.3583 -0.3932
 7650TIP3    H147145   1.995   0.494   9.835 -0.3231 -0.6112 -0.6497
 7650TIP3    H247146   1.915   0.585   9.926 -0.2650 -0.5779 -0.6311
 7651TIP3   OH247147   3.617   1.504   8.581 -0.0582  0.7554  0.1247
 7651TIP3    H147148   3.691   1.516   8.521  1.2765  1.0795  1.7376
 7651TIP3    H247149   3.564   1.583   8.570 -0.2628  0.4661 -1.1417
 7652TIP3   OH247150   0.400   2.464   7.404 -0.2444 -0.2123  0.2384
 7652TIP3    H147151   0.485   2.421   7.411 -0.3533 -0.5544 -0.3777
 7652TIP3    H247152   0.349   2.405   7.348 -0.4292  0.6684 -0.5394
 7653TIP3   OH247153   3.539   6.516   9.444 -0.3359 -0.2459  0.1311
 7653TIP3    H147154   3.632   6.534   9.433 -0.7240  0.4383 -2.8758
 7653TIP3    H247155   3.514   6.566   9.522  1.6582  0.0312  0.6562
 7654TIP3   OH247156   0.886   5.050   7.333 -0.3250  0.4887  0.4012
 7654TIP3    H147157   0.883   5.133   7.381 -0.7366 -0.0631  1.3702
 7654TIP3    H247158   0.815   4.998   7.370  1.8863 -1.5383  2.1997
 7655TIP3   OH247159   2.183   2.036   7.149 -0.1200 -0.3495  0.1784
 7655TIP3    H147160   2.104   2.090   7.149 -0.2644 -0.5592  0.0545
 7655TIP3    H247161   2.191   2.006   7.240  0.1948  0.2182  0.3398
 7656TIP3   OH247162   5.144   3.130   8.280  0.2020 -0.2630 -0.1516
 7656TIP3    H147163   5.225   3.166   8.243  1.6928 -0.4602  2.6260
 7656TIP3    H247164   5.154   3.036   8.270  0.1452 -0.2686 -0.1505
 7657TIP3   OH247165   4.778   4.782   8.784  0.4241  0.0615 -0.0690
 7657TIP3    H147166   4.841   4.710   8.790  0.1596 -0.1078  0.8109
 7657TIP3    H247167   4.737   4.785   8.870 -0.9275  0.0352 -0.6838
 7658TIP3   OH247168   4.674   2.801   8.032 -0.1000  0.5630  0.4925
 7658TIP3    H147169   4.757   2.833   8.068 -0.0426  2.1716 -0.9442
 7658TIP3    H247170   4.699   2.729   7.974  0.4537  1.6617 -0.6901
 7659TIP3   OH247171   6.348   4.910   9.132 -0.0957 -0.0741  0.5108
 7659TIP3    H147172   6.314   4.820   9.136 -0.2754 -0.0447 -0.3141
 7659TIP3    H247173   6.317   4.944   9.049  0.2554  0.6472  0.6702
 7660TIP3   OH247174   2.187   1.127   6.624 -0.6907  0.1908 -0.0680
 7660TIP3    H147175   2.202   1.220   6.644 -0.1323  0.5962 -2.1409
 7660TIP3    H247176   2.265   1.083   6.657  0.1778  0.8279 -1.1809
 7661TIP3   OH247177   5.329   4.363   9.535  1.0042  0.4127 -0.1137
 7661TIP3    H147178   5.237   4.347   9.557  1.1322  0.6109  0.6053
 7661TIP3    H247179   5.330   4.371   9.440  0.0916  1.5681 -0.0459
 7662TIP3   OH247180   6.307   4.073   9.684 -0.0092 -0.7428  0.1223
 7662TIP3    H147181   6.275   4.151   9.730 -0.9414 -1.1719  0.2009
 7662TIP3    H247182   6.277   3.999   9.737 -0.4741 -1.2148 -0.7868
 7663TIP3   OH247183   6.335   1.400   7.722  0.0735  0.1991  0.0811
 7663TIP3    H147184   6.333   1.479   7.669 -0.0131 -1.3876 -2.4212
 7663TIP3    H247185   6.425   1.368   7.715  0.0325 -0.0974  0.8112
 7664TIP3   OH247186   5.381   4.844   6.631 -0.2539 -0.2557 -0.4921
 7664TIP3    H147187   5.378   4.777   6.699 -2.0825 -0.6879 -0.9446
 7664TIP3    H247188   5.302   4.897   6.647  1.7035  2.5693  0.5845
 7665TIP3   OH247189   0.039   6.726   7.210 -0.2351  0.3425 -0.1510
 7665TIP3    H147190   0.065   6.818   7.214 -1.2535  0.5952  0.9904
 7665TIP3    H247191   0.121   6.677   7.222  0.3345  1.0850 -0.9293
 7666TIP3   OH247192   0.711   5.347   7.013  0.4690 -0.1705 -0.0962
 7666TIP3    H147193   0.622   5.327   6.985  1.0103 -2.8331 -0.1738
 7666TIP3    H247194   0.719   5.307   7.099  1.5497  0.1786 -0.0149
 7667TIP3   OH247195   1.569   1.522   9.929 -0.0873  0.0761 -0.2420
 7667TIP3    H147196   1.661   1.545   9.915  0.3701 -1.5231 -0.0587
 7667TIP3    H247197   1.571   1.451   9.993 -1.5658  1.0678  0.9932
 7668TIP3   OH247198   0.138   2.130   7.505 -0.5562 -0.2032  0.2688
 7668TIP3    H147199   0.186   2.177   7.573 -1.4637  0.3814  0.5237
 7668TIP3    H247200   0.182   2.156   7.423 -0.4398  0.3310  0.4951
 7669TIP3   OH247201   6.504   2.506   6.984 -0.0087 -0.6072  0.0910
 7669TIP3    H147202   6.593   2.540   6.994 -0.5227  0.3980  1.6043
 7669TIP3    H247203   6.511   2.414   7.008  0.5241 -0.4068  0.7231
 7670TIP3   OH247204   2.864   2.219   9.724  0.3167 -0.5978  0.0630
 7670TIP3    H147205   2.775   2.251   9.738  0.1376  0.4900 -3.0116
 7670TIP3    H247206   2.867   2.136   9.773 -1.6444  0.3294  1.9391
 7671TIP3   OH247207   5.672   2.964   6.850  0.1143  0.1176 -0.4455
 7671TIP3    H147208   5.728   2.974   6.926  0.9808  0.2170 -1.0755
 7671TIP3    H247209   5.711   3.021   6.783 -0.4248 -0.2174 -1.0629
 7672TIP3   OH247210   4.471   3.344   9.657  0.6233  0.4221  0.4518
 7672TIP3    H147211   4.381   3.325   9.683  1.2507 -2.7222  0.6916
 7672TIP3    H247212   4.465   3.370   9.565 -0.5185  0.0839  0.4185
 7673TIP3   OH247213   3.045   5.092   8.014  0.0706  0.4970 -0.2676
 7673TIP3    H147214   2.973   5.060   8.069  0.6769  0.8099  0.7422
 7673TIP3    H247215   3.086   5.161   8.067  0.8427  0.6283 -1.0163
 7674TIP3   OH247216   6.170   2.132   8.545  0.8416 -0.1424  0.4232
 7674TIP3    H147217   6.200   2.041   8.547 -0.1409 -0.4761  0.9509
 7674TIP3    H247218   6.136   2.144   8.457 -0.3545 -0.7592  0.7789
 7675TIP3   OH247219   6.401   2.651   8.733  0.1781 -0.0607  0.2441
 7675TIP3    H147220   6.342   2.575   8.739  0.8229 -0.7249 -1.2774
 7675TIP3    H247221   6.455   2.632   8.657  1.3726  1.2426  0.7447
 7676TIP3   OH247222   1.657   5.789   7.062 -0.2105  0.1234  0.0335
 7676TIP3    H147223   1.703   5.808   7.144  1.9095  1.4032 -1.3414
 7676TIP3    H247224   1.717   5.818   6.994 -1.7286 -1.2704 -2.0166
 7677TIP3   OH247225   0.327   2.984   7.335  0.0548  0.1746 -0.1216
 7677TIP3    H147226   0.366   3.068   7.362  3.6961 -1.2017 -0.4951
 7677TIP3    H247227   0.290   2.947   7.415 -3.0836  2.6629 -0.2223
 7678TIP3   OH247228   0.239   0.157   7.495  0.2220 -0.1876  0.1333
 7678TIP3    H147229   0.313   0.207   7.529 -0.7584  1.4799 -0.0404
 7678TIP3    H247230   0.250   0.069   7.531  1.9472  0.1703  0.5722
 7679TIP3   OH247231   0.875   5.764   6.807 -0.2910 -0.3595  0.0214
 7679TIP3    H147232   0.785   5.795   6.798 -0.2779 -0.4434 -0.4458
 7679TIP3    H247233   0.876   5.713   6.887 -0.4298  0.4443  0.5443
 7680TIP3   OH247234   3.719   0.262   9.639 -0.0993 -0.3906  0.1731
 7680TIP3    H147235   3.715   0.261   9.735 -1.5836 -1.2749  0.1411
 7680TIP3    H247236   3.670   0.341   9.614  0.8249  0.1892  0.1277
 7681TIP3   OH247237   0.338   1.409   6.884 -0.3365  0.6013  0.0581
 7681TIP3    H147238   0.284   1.378   6.811 -1.5792  0.9292  0.7976
 7681TIP3    H247239   0.287   1.480   6.923 -0.6829 -0.8165  2.4145
 7682TIP3   OH247240   1.657   1.666   7.856 -0.0781 -0.1506  0.2868
 7682TIP3    H147241   1.685   1.737   7.915  0.9477 -1.2788  1.2262
 7682TIP3    H247242   1.724   1.664   7.788 -0.1849 -0.1127  0.1819
 7683TIP3   OH247243   6.038   5.383   9.497 -0.2487 -0.0581 -0.5260
 7683TIP3    H147244   6.053   5.466   9.543  3.5326 -1.5403  1.3313
 7683TIP3    H247245   5.962   5.345   9.541 -0.7385  1.4654  0.0170
 7684TIP3   OH247246   3.396   6.464   9.072 -0.9220  0.5694  0.0446
 7684TIP3    H147247   3.393   6.375   9.037  2.7682  0.4458 -0.4010
 7684TIP3    H247248   3.389   6.454   9.167 -0.5675 -0.1953 -0.0089
 7685TIP3   OH247249   6.298   1.364   9.888 -0.6338  0.3770 -0.0017
 7685TIP3    H147250   6.306   1.454   9.857 -0.4187  0.6702  0.8749
 7685TIP3    H247251   6.217   1.364   9.941  0.3185  0.5260  1.5113
 7686TIP3   OH247252   1.877   4.041   6.958 -0.4122 -0.1077 -0.7361
 7686TIP3    H147253   1.788   4.040   6.923 -0.9662 -1.1857  0.6088
 7686TIP3    H247254   1.875   3.979   7.031  1.1487  0.7183  0.0603
 7687TIP3   OH247255   4.629   6.368   6.691  0.1929  0.7440 -0.1407
 7687TIP3    H147256   4.700   6.331   6.638 -0.3160 -0.2572 -0.1517
 7687TIP3    H247257   4.673   6.401   6.769  0.6936  0.2112 -0.1816
 7688TIP3   OH247258   4.946   2.695   8.410  0.1149  0.2738 -0.4857
 7688TIP3    H147259   4.975   2.626   8.470  0.2905 -0.5376 -1.4778
 7688TIP3    H247260   4.974   2.664   8.324 -2.2819  0.2352 -1.3035
 7689TIP3   OH247261   2.814   1.312   7.254 -0.3149 -0.3028 -0.1300
 7689TIP3    H147262   2.901   1.349   7.236 -1.5521  1.0607 -4.5494
 7689TIP3    H247263   2.754   1.385   7.244 -2.3047 -2.0515 -1.8037
 7690TIP3   OH247264   6.335   4.740   7.578 -0.0129  0.4755 -0.0227
 7690TIP3    H147265   6.291   4.719   7.496 -1.3511 -0.6635  0.9552
 7690TIP3    H247266   6.349   4.655   7.620  0.2284  1.0775  1.1452
 7691TIP3   OH247267   6.436   4.870   7.785 -0.2480  0.3227 -0.4181
 7691TIP3    H147268   6.390   4.831   7.711  0.5967  0.2101 -0.8995
 7691TIP3    H247269   6.522   4.828   7.785  0.3205  1.4309 -0.3287
 7692TIP3   OH247270   3.237   0.388   8.609  0.4717 -0.0209 -0.2704
 7692TIP3    H147271   3.239   0.344   8.524 -0.4746  0.6225 -0.6366
 7692TIP3    H247272   3.326   0.420   8.622  0.5665  0.0610 -1.1187
 7693TIP3   OH247273   2.342   3.264  15.926 -0.0295 -0.5936  0.6060
 7693TIP3    H147274   2.319   3.221  16.008 -0.6918 -0.4291  0.5122
 7693TIP3    H247275   2.361   3.192  15.866 -0.5290 -0.7392  0.6237
 7694TIP3   OH247276   4.504   2.922   7.400 -0.2279  0.2593 -0.1330
 7694TIP3    H147277   4.452   3.002   7.395 -0.1239  0.3166 -0.3078
 7694TIP3    H247278   4.442   2.855   7.429 -0.9580 -0.1700 -2.4987
 7695TIP3   OH247279   5.974   1.698   8.272  0.7778  0.4782 -0.1079
 7695TIP3    H147280   5.923   1.716   8.193  0.6941  1.0694  0.0724
 7695TIP3    H247281   6.001   1.607   8.264 -0.7454 -0.0179  0.0260
 7696TIP3   OH247282   0.081   4.691   7.493 -0.4761  0.7727  0.3187
 7696TIP3    H147283   0.013   4.637   7.532 -0.9299  0.4019 -0.9402
 7696TIP3    H247284   0.069   4.778   7.531 -0.2058  0.1876  1.8037
 7697TIP3   OH247285   3.651   4.204   7.898  0.2335  0.4726 -0.0090
 7697TIP3    H147286   3.741   4.180   7.918  0.2480  0.4800 -0.0658
 7697TIP3    H247287   3.658   4.265   7.824  0.2007  0.6857  0.1640
 7698TIP3   OH247288   1.647   4.616   7.592  0.9467 -0.3353 -0.5165
 7698TIP3    H147289   1.596   4.692   7.619  0.7719 -0.0390 -1.6535
 7698TIP3    H247290   1.581   4.550   7.568  1.0969 -0.4276 -0.6785
 7699TIP3   OH247291   6.607   3.564   7.248  0.2991 -0.7670 -0.1648
 7699TIP3    H147292   6.636   3.615   7.172 -0.1952 -0.4890 -0.1691
 7699TIP3    H247293   6.544   3.502   7.212  0.5397 -1.0672 -0.0800
 7700TIP3   OH247294   0.511   2.574   9.176 -0.1353 -0.2433 -0.4604
 7700TIP3    H147295   0.588   2.605   9.129  0.8943  0.0225  1.3028
 7700TIP3    H247296   0.520   2.479   9.179  0.9672 -0.1216  1.0403
 7701TIP3   OH247297   6.320   1.772   7.144 -0.0306  0.0383  0.6109
 7701TIP3    H147298   6.259   1.797   7.213 -1.0410 -1.4483  0.3025
 7701TIP3    H247299   6.265   1.736   7.075  0.8724  2.1420 -1.3602
 7702TIP3   OH247300   5.965   4.289   8.105 -0.3433 -0.3716  0.6456
 7702TIP3    H147301   5.914   4.311   8.183 -0.3721  2.3620 -0.0268
 7702TIP3    H247302   5.902   4.290   8.033  0.0446 -0.6703  0.2905
 7703TIP3   OH247303   5.837   2.877   8.255  0.2122 -0.2367 -0.0451
 7703TIP3    H147304   5.885   2.816   8.199  0.1452  0.1827 -0.5733
 7703TIP3    H247305   5.905   2.927   8.301  0.2796  0.0445 -0.4472
 7704TIP3   OH247306   2.995   3.772  10.245  0.4646  0.1007 -0.1298
 7704TIP3    H147307   2.932   3.722  10.192 -0.8853 -0.2006  1.6690
 7704TIP3    H247308   2.964   3.762  10.335 -0.0538  4.3373  0.3627
 7705TIP3   OH247309   5.136   2.168   8.848 -0.1438 -0.4139 -0.2256
 7705TIP3    H147310   5.182   2.245   8.814 -0.6793 -1.1824 -3.0041
 7705TIP3    H247311   5.203   2.100   8.852 -0.4040 -0.7887 -1.5831
 7706TIP3   OH247312   1.268   0.383   6.801  0.0309  0.3397 -0.2052
 7706TIP3    H147313   1.252   0.433   6.720 -2.2225 -0.6508 -0.4517
 7706TIP3    H247314   1.221   0.432   6.869 -1.3053 -0.8113 -0.2548
 7707TIP3   OH247315   5.474   5.060   7.690 -0.0692  0.4473  0.1877
 7707TIP3    H147316   5.487   5.152   7.667 -0.7897  0.5109  0.0247
 7707TIP3    H247317   5.385   5.056   7.724 -0.0837 -0.2136  0.0798
 7708TIP3   OH247318   1.431   5.714   7.731 -0.3001  0.0114  0.0811
 7708TIP3    H147319   1.366   5.689   7.797 -0.2244  1.7995  0.9019
 7708TIP3    H247320   1.390   5.787   7.684 -0.2489 -1.0688 -1.7348
 7709TIP3   OH247321   6.162   3.417   8.162  0.0104  0.1368 -0.2693
 7709TIP3    H147322   6.210   3.455   8.088  0.5525 -0.0829 -0.0342
 7709TIP3    H247323   6.083   3.471   8.170 -0.1424  0.0594 -1.1184
 7710TIP3   OH247324   1.935   2.161   7.115  0.4629  0.2152 -0.4188
 7710TIP3    H147325   1.900   2.199   7.196  0.3959  0.5687 -0.6163
 7710TIP3    H247326   1.880   2.196   7.046  0.6212  0.0345 -0.6372
 7711TIP3   OH247327   4.493   3.071   8.499  0.1988 -0.2613 -0.3323
 7711TIP3    H147328   4.426   3.021   8.546  0.2456  0.2182  0.2535
 7711TIP3    H247329   4.497   3.030   8.413 -0.3159 -0.7729 -0.1197
 7712TIP3   OH247330   3.999   2.919   6.773 -0.1810 -0.2530 -0.2281
 7712TIP3    H147331   4.021   3.001   6.729 -0.0526  0.2788  0.8161
 7712TIP3    H247332   3.904   2.922   6.782 -0.0796  0.2941  0.7791
 7713TIP3   OH247333   1.988   2.929   7.074  0.1384 -0.3194  0.3610
 7713TIP3    H147334   2.061   2.875   7.104 -0.1621 -1.5758 -1.0264
 7713TIP3    H247335   2.017   3.019   7.087  2.2625 -0.7578 -0.8627
 7714TIP3   OH247336   2.061   1.010   8.286  0.1796 -0.4367 -0.3772
 7714TIP3    H147337   2.081   0.994   8.379 -1.5460  0.1153  0.1272
 7714TIP3    H247338   1.985   1.068   8.288  1.1723  1.0243 -2.1595
 7715TIP3   OH247339   3.402   0.898   9.505 -0.7276  0.4061  0.1695
 7715TIP3    H147340   3.465   0.837   9.545 -1.2175  0.5119  1.1113
 7715TIP3    H247341   3.405   0.976   9.561 -3.6206 -0.5604  1.8606
 7716TIP3   OH247342   1.649   5.489   9.231 -0.0383  0.5932 -0.1050
 7716TIP3    H147343   1.661   5.521   9.321 -0.6450 -1.1836  0.6376
 7716TIP3    H247344   1.737   5.469   9.201  0.2275  1.7180 -0.1478
 7717TIP3   OH247345   6.727   6.578   8.481 -0.1030 -0.2557  0.6715
 7717TIP3    H147346   6.780   6.527   8.419  1.8720  2.7624 -0.3752
 7717TIP3    H247347   6.733   6.668   8.448 -2.2526  0.9016  3.1317
 7718TIP3   OH247348   0.749   6.228   9.363  0.5841  0.3149 -0.1258
 7718TIP3    H147349   0.757   6.179   9.444  0.9078 -1.4341 -1.1606
 7718TIP3    H247350   0.840   6.249   9.338  0.5366  0.2188 -0.3884
 7719TIP3   OH247351   0.997   1.573   6.853  0.1744  0.6794 -0.2332
 7719TIP3    H147352   1.067   1.515   6.883 -0.1200  0.1755 -0.5157
 7719TIP3    H247353   1.035   1.661   6.859  0.1761  0.5933  1.4745
 7720TIP3   OH247354   5.047   4.671   7.421  0.1097 -0.1223  0.4170
 7720TIP3    H147355   5.119   4.609   7.416 -0.2912 -0.6500  1.0387
 7720TIP3    H247356   5.031   4.697   7.330  2.3026  1.4420  0.3918
 7721TIP3   OH247357   1.135   3.934   7.558  0.0314 -0.2849  0.3220
 7721TIP3    H147358   1.137   4.020   7.516  0.1560 -0.3240  0.2478
 7721TIP3    H247359   1.187   3.878   7.501  0.6309 -0.2184  0.7852
 7722TIP3   OH247360   4.524   0.781   8.696 -0.7990 -0.0523 -0.1772
 7722TIP3    H147361   4.589   0.793   8.766 -0.6721 -0.2464 -0.2587
 7722TIP3    H247362   4.495   0.869   8.675 -0.8511  0.0075  0.1349
 7723TIP3   OH247363   5.238   1.068   8.871  0.4576  0.1045 -0.1601
 7723TIP3    H147364   5.241   1.162   8.852  1.6330  0.6563  2.3947
 7723TIP3    H247365   5.209   1.028   8.789 -1.4317  2.7927 -0.9201
 7724TIP3   OH247366   5.665   4.869   7.785 -0.2249 -0.0845  0.7033
 7724TIP3    H147367   5.618   4.874   7.869  0.5999  1.5499  1.1018
 7724TIP3    H247368   5.603   4.906   7.722 -0.4841 -0.4479  0.7348
 7725TIP3   OH247369   4.488   0.535   8.062  0.4997 -0.3124 -0.0012
 7725TIP3    H147370   4.488   0.444   8.031  1.1846 -0.0826 -0.7014
 7725TIP3    H247371   4.574   0.569   8.038  0.0738  0.6762 -0.1814
 7726TIP3   OH247372   0.745   2.357   6.795  0.6655 -0.0090 -0.0347
 7726TIP3    H147373   0.656   2.323   6.786  0.9026 -1.0287  1.1527
 7726TIP3    H247374   0.758   2.367   6.889  2.3684 -1.5848 -0.0283
 7727TIP3   OH247375   4.669   4.384   8.107 -0.0515 -0.2249  0.5399
 7727TIP3    H147376   4.703   4.471   8.085 -0.5324  0.0936  1.0197
 7727TIP3    H247377   4.574   4.395   8.109 -0.1034 -0.6950  0.8828
 7728TIP3   OH247378   4.413   2.561   8.128  0.6613 -0.3786  0.4962
 7728TIP3    H147379   4.414   2.627   8.058  1.3454  0.4319  1.2416
 7728TIP3    H247380   4.437   2.479   8.084 -0.1624 -0.1333 -0.4431
 7729TIP3   OH247381   6.216   1.889   8.417  0.3834 -0.1899  0.0647
 7729TIP3    H147382   6.242   1.874   8.326 -0.7188  0.6077 -0.4090
 7729TIP3    H247383   6.298   1.912   8.461  0.8529  0.0004 -0.8610
 7730TIP3   OH247384   1.125   5.838   7.717  0.0081  0.3840  0.1250
 7730TIP3    H147385   1.066   5.766   7.696  1.1999 -0.7760  0.5519
 7730TIP3    H247386   1.162   5.815   7.802  1.3801  0.8310 -0.3141
 7731TIP3   OH247387   5.290   3.280   7.704 -0.6938  0.0924 -0.4205
 7731TIP3    H147388   5.320   3.368   7.679  0.6052  0.4717  2.1597
 7731TIP3    H247389   5.275   3.236   7.620  0.8547  2.0299 -1.8296
 7732TIP3   OH247390   6.072   6.371   8.163  0.1206  0.3378  0.1347
 7732TIP3    H147391   6.156   6.330   8.182  0.9850  1.6685 -0.6506
 7732TIP3    H247392   6.033   6.388   8.248  0.1069 -1.3086  0.4918
 7733TIP3   OH247393   5.010   4.195   8.960  0.3563  0.0654  0.9829
 7733TIP3    H147394   4.985   4.288   8.952 -0.1325 -0.1086  0.4305
 7733TIP3    H247395   5.016   4.180   9.054  1.1506  0.8430  1.0774
 7734TIP3   OH247396   0.227   0.390   9.160 -0.3151  0.0473 -0.0613
 7734TIP3    H147397   0.136   0.371   9.183 -0.1095 -0.7860  0.1140
 7734TIP3    H247398   0.238   0.354   9.072  0.2330 -1.2296  0.4903
 7735TIP3   OH247399   4.718   1.863   7.230  0.1378 -0.0902  0.0942
 7735TIP3    H147400   4.692   1.950   7.259  2.2019  1.3138 -1.9064
 7735TIP3    H247401   4.777   1.832   7.298 -0.2440  0.2543  0.5939
 7736TIP3   OH247402   5.873   0.899   9.023  0.2961  0.3890  0.0434
 7736TIP3    H147403   5.826   0.926   9.101 -0.5773 -0.8090 -0.0487
 7736TIP3    H247404   5.895   0.981   8.979 -2.6984  1.0061 -0.4838
 7737TIP3   OH247405   4.204   4.265   7.515 -0.0922 -0.1704 -0.0860
 7737TIP3    H147406   4.155   4.246   7.595 -0.4887  0.9027 -0.0575
 7737TIP3    H247407   4.251   4.346   7.535  1.7048 -1.1591 -0.1240
 7738TIP3   OH247408   2.088   0.112   6.929 -0.6267  0.1131 -0.3360
 7738TIP3    H147409   2.029   0.038   6.942  0.3089 -0.6527 -0.4136
 7738TIP3    H247410   2.174   0.081   6.957 -0.4749  1.6428  1.0748
 7739TIP3   OH247411   0.795   5.128   6.858 -0.5983  0.0027  0.2445
 7739TIP3    H147412   0.718   5.145   6.803 -0.4865  0.4507  0.2174
 7739TIP3    H247413   0.809   5.210   6.905 -0.0610 -0.0365  0.1559
 7740TIP3   OH247414   6.768   4.969   6.951  0.0378  0.0396  0.1808
 7740TIP3    H147415   6.789   4.889   6.903 -1.1530 -0.7924  0.9819
 7740TIP3    H247416   6.762   5.037   6.884  2.0985 -0.2906 -0.4089
 7741TIP3   OH247417   2.723   0.247   8.687  0.4561  0.4247 -0.3258
 7741TIP3    H147418   2.769   0.327   8.664 -1.3448  1.4873 -0.4313
 7741TIP3    H247419   2.770   0.178   8.640  2.5984  1.2456  0.5020
 7742TIP3   OH247420   4.981   6.083   8.040  0.1804  0.1127  0.5204
 7742TIP3    H147421   4.921   6.108   8.112  0.2139 -2.0288  1.3551
 7742TIP3    H247422   5.067   6.113   8.070  0.2374 -0.9823  1.5382
 7743TIP3   OH247423   2.634   5.663   7.734  0.3392  0.1042 -0.6799
 7743TIP3    H147424   2.634   5.589   7.673  1.8500  0.4865 -1.1900
 7743TIP3    H247425   2.608   5.738   7.681 -1.3881 -0.0726 -0.1168
 7744TIP3   OH247426   4.844   5.782   6.832  0.3055 -0.1673 -0.4566
 7744TIP3    H147427   4.830   5.872   6.804  0.3605  0.0265  0.1193
 7744TIP3    H247428   4.864   5.734   6.752 -0.2331  0.2285 -0.8344
 7745TIP3   OH247429   0.399   5.429   7.023 -0.6219  0.2341 -0.3227
 7745TIP3    H147430   0.357   5.356   7.069  1.6284 -0.2406  1.1273
 7745TIP3    H247431   0.424   5.490   7.093  0.4997  0.7787 -1.1771
 7746TIP3   OH247432   2.479   0.590   8.835 -0.1956  0.4334 -0.4275
 7746TIP3    H147433   2.459   0.674   8.877 -0.4394  0.1738 -0.0177
 7746TIP3    H247434   2.563   0.604   8.792 -0.2687  0.9109 -0.4215
 7747TIP3   OH247435   2.591   4.328   7.766  0.5985  0.3625 -0.4710
 7747TIP3    H147436   2.506   4.370   7.757  1.0894  1.1688 -1.7512
 7747TIP3    H247437   2.579   4.241   7.727 -0.1719 -0.3864  1.3258
 7748TIP3   OH247438   4.516   0.525   8.869  0.7205  0.1722 -0.0056
 7748TIP3    H147439   4.550   0.575   8.943 -0.0303  1.4932 -0.5039
 7748TIP3    H247440   4.490   0.592   8.805  0.6325 -0.9086 -1.1356
 7749TIP3   OH247441   4.207   6.411   8.417 -0.4973  0.2829  0.1199
 7749TIP3    H147442   4.290   6.423   8.371 -0.5851  0.7445  0.0785
 7749TIP3    H247443   4.142   6.402   8.347 -0.5390  0.3255  0.1535
 7750TIP3   OH247444   0.305   2.506   6.962 -0.6902  0.7008 -0.0526
 7750TIP3    H147445   0.317   2.552   6.879  1.3188  0.0497 -0.1808
 7750TIP3    H247446   0.274   2.419   6.937  0.0207  0.4689 -0.1328
 7751TIP3   OH247447   1.713   5.693   9.058 -0.1043 -0.4745  0.1072
 7751TIP3    H147448   1.694   5.641   9.136 -2.3733 -1.0041 -0.7036
 7751TIP3    H247449   1.657   5.655   8.990 -0.8372  2.1363 -0.8654
 7752TIP3   OH247450   0.366   1.934   9.167 -0.3760 -0.0762  0.7068
 7752TIP3    H147451   0.447   1.978   9.194  0.6958 -1.8608  0.5945
 7752TIP3    H247452   0.303   2.005   9.156  0.8568  1.2832  1.8687
 7753TIP3   OH247453   0.429   0.832   8.733 -0.2241 -0.0323  0.4313
 7753TIP3    H147454   0.440   0.762   8.797 -1.3600 -1.2636 -0.6533
 7753TIP3    H247455   0.513   0.839   8.689  0.4508  0.5707  1.7535
 7754TIP3   OH247456   1.542   1.427   6.616  0.3609  0.1830 -0.0596
 7754TIP3    H147457   1.481   1.489   6.575  0.1806  0.8397  1.1741
 7754TIP3    H247458   1.539   1.350   6.559 -1.8070  0.1006  0.1071
 7755TIP3   OH247459   6.092   1.448   7.863 -0.1788  0.0195 -1.0321
 7755TIP3    H147460   6.058   1.365   7.897  0.4531  0.3911  0.6099
 7755TIP3    H247461   6.171   1.424   7.814 -0.1538 -0.3759 -0.8018
 7756TIP3   OH247462   0.472   0.749  10.277  0.7128  0.4029  0.2768
 7756TIP3    H147463   0.380   0.721  10.281  1.3703 -1.8781  1.5466
 7756TIP3    H247464   0.502   0.717  10.192  0.8462 -0.8169  0.7562
 7757TIP3   OH247465   6.111   5.201   8.177 -0.7193  0.4489  0.1814
 7757TIP3    H147466   6.178   5.233   8.237 -0.8412  0.6891  0.1867
 7757TIP3    H247467   6.035   5.256   8.193 -0.2729  1.5623 -1.2900
 7758TIP3   OH247468   1.710   4.312   9.286 -0.0889 -0.9632  0.1271
 7758TIP3    H147469   1.786   4.335   9.339  0.0122  1.3556 -0.8755
 7758TIP3    H247470   1.650   4.269   9.347  0.7765 -0.0712  1.6733
 7759TIP3   OH247471   2.048   5.492   6.716  0.3546 -0.1221  0.0109
 7759TIP3    H147472   1.976   5.505   6.776 -0.7434 -0.4004 -1.2008
 7759TIP3    H247473   2.032   5.555   6.645  0.3979 -1.2667 -1.0544
 7760TIP3   OH247474   4.961   1.563   9.110  0.0115 -0.0997  0.2588
 7760TIP3    H147475   5.039   1.590   9.158  0.7001  2.2326 -1.9784
 7760TIP3    H247476   4.976   1.471   9.091  0.1136 -0.9122  3.5521
 7761TIP3   OH247477   4.153   5.200  10.158 -0.7921  0.0035  0.0294
 7761TIP3    H147478   4.226   5.188  10.098  0.1731 -0.1199  1.1750
 7761TIP3    H247479   4.193   5.238  10.237 -1.1559 -3.5945  2.2102
 7762TIP3   OH247480   5.661   6.213   7.481 -0.3359 -0.0882  0.1688
 7762TIP3    H147481   5.648   6.283   7.545 -0.4297  2.7002 -2.6479
 7762TIP3    H247482   5.756   6.207   7.471 -0.2302 -1.6541  1.5698
 7763TIP3   OH247483   3.503   4.219   8.626  0.0921  0.0080  0.0196
 7763TIP3    H147484   3.418   4.235   8.667  0.3758 -0.9491  1.0278
 7763TIP3    H247485   3.520   4.298   8.574 -0.5085  1.0618  1.3716
 7764TIP3   OH247486   5.635   6.270   8.293 -0.4566 -0.1581  0.1327
 7764TIP3    H147487   5.699   6.199   8.294  0.2874  0.3483 -2.3261
 7764TIP3    H247488   5.685   6.345   8.258 -1.7318  1.0033  0.7275
 7765TIP3   OH247489   3.253   1.570   8.629  0.2733 -0.1930  0.2309
 7765TIP3    H147490   3.307   1.578   8.708 -1.4122  1.6252  1.2988
 7765TIP3    H247491   3.278   1.646   8.575  1.0622 -1.1529 -0.7998
 7766TIP3   OH247492   6.352   3.847   9.373 -0.0481  0.2001  0.2298
 7766TIP3    H147493   6.430   3.883   9.331  0.0578 -1.1642 -0.8012
 7766TIP3    H247494   6.370   3.754   9.382 -0.1357  0.3872  3.2564
 7767TIP3   OH247495   1.118   2.800   8.044  0.1838 -0.5268  0.5808
 7767TIP3    H147496   1.099   2.804   8.137  2.2174  3.0825  1.0547
 7767TIP3    H247497   1.212   2.785   8.039  0.2331  0.0336 -0.8101
 7768TIP3   OH247498   6.322   4.619   8.574  0.1479  0.0065  0.2229
 7768TIP3    H147499   6.407   4.648   8.608 -0.7020  0.0482  2.5167
 7768TIP3    H247500   6.340   4.593   8.484  2.4738  0.5367  0.4562
 7769TIP3   OH247501   5.554   4.408   6.620  0.5062 -0.0021  0.1763
 7769TIP3    H147502   5.567   4.444   6.532  0.4873 -2.9968 -1.1821
 7769TIP3    H247503   5.642   4.404   6.657  0.8619 -0.9972 -0.7244
 7770TIP3   OH247504   3.872   3.288  10.045 -0.0807 -0.5740  0.3291
 7770TIP3    H147505   3.947   3.257  10.096 -0.5282 -1.5503  0.4162
 7770TIP3    H247506   3.835   3.209  10.007 -1.4829 -0.2010  0.8510
 7771TIP3   OH247507   2.083   4.414   7.818 -0.2202  0.0090 -0.6303
 7771TIP3    H147508   2.056   4.492   7.866 -0.1906  0.0687 -0.7128
 7771TIP3    H247509   2.038   4.420   7.734 -1.9302 -1.1095  0.1216
 7772TIP3   OH247510   0.987   1.784   7.653 -0.1374  0.3163  0.2387
 7772TIP3    H147511   1.007   1.746   7.567  2.3447  0.1875  0.7985
 7772TIP3    H247512   0.950   1.870   7.633  0.2991  0.2510 -0.9665
 7773TIP3   OH247513   0.686   1.832   7.172  0.2387 -0.3622  0.0652
 7773TIP3    H147514   0.696   1.847   7.078 -0.4772  1.8085  0.2761
 7773TIP3    H247515   0.725   1.746   7.188  0.5810 -0.6572 -2.1649
 7774TIP3   OH247516   6.528   0.169   7.089  0.2330 -0.1564 -0.2918
 7774TIP3    H147517   6.499   0.244   7.141 -0.8941 -1.0516  0.4355
 7774TIP3    H247518   6.452   0.146   7.036  1.7722  1.6036 -3.5340
 7775TIP3   OH247519   5.839   5.245   9.990  0.2227  0.0993  0.0829
 7775TIP3    H147520   5.903   5.300   9.946  0.8725  0.8219  1.8750
 7775TIP3    H247521   5.865   5.156   9.968  0.1207  0.4262 -1.5136
 7776TIP3   OH247522   5.436   2.498   8.343 -0.2947  0.8143 -1.0048
 7776TIP3    H147523   5.469   2.539   8.423 -1.8237  1.3610 -0.6175
 7776TIP3    H247524   5.451   2.404   8.357 -0.3314  0.9216 -0.1585
 7777TIP3   OH247525   3.744   6.103   8.308  0.1866  0.4453  0.5573
 7777TIP3    H147526   3.774   6.188   8.341 -0.4854  0.7542  0.3877
 7777TIP3    H247527   3.744   6.047   8.385 -1.8535  1.2958  1.2612
 7778TIP3   OH247528   1.847   2.613   9.680  0.8040 -0.0197 -0.4675
 7778TIP3    H147529   1.819   2.611   9.588  1.1852  1.4292 -0.6432
 7778TIP3    H247530   1.863   2.522   9.703 -1.2096 -0.6047 -1.2406
 7779TIP3   OH247531   4.441   4.007   7.121 -0.3909 -0.4219  0.9189
 7779TIP3    H147532   4.430   3.944   7.050 -0.4597  2.3642 -1.7950
 7779TIP3    H247533   4.359   4.057   7.121  0.4351  0.9846  1.4805
 7780TIP3   OH247534   4.284   5.118   8.746  0.2472 -0.7433  0.1109
 7780TIP3    H147535   4.261   5.046   8.805  0.6002 -2.1867 -1.4440
 7780TIP3    H247536   4.278   5.080   8.658  1.5778  0.8138 -0.7046
 7781TIP3   OH247537   1.907   0.257   8.175 -0.8198 -0.3578  0.4995
 7781TIP3    H147538   1.942   0.342   8.148  0.1104 -1.0566 -0.5753
 7781TIP3    H247539   1.921   0.255   8.270  1.5867 -0.3617  0.2021
 7782TIP3   OH247540   6.762   2.288   8.794 -0.6784 -0.3510 -0.1743
 7782TIP3    H147541   6.681   2.239   8.781 -0.5993 -0.4118 -0.4533
 7782TIP3    H247542   6.828   2.238   8.747 -0.7752  0.5141 -1.2768
 7783TIP3   OH247543   4.052   0.361   8.540  0.2424 -0.0847  0.0542
 7783TIP3    H147544   4.144   0.354   8.514  0.5474  0.6165  0.9087
 7783TIP3    H247545   4.055   0.392   8.631 -0.8298 -0.4505  0.2269
 7784TIP3   OH247546   3.782   4.590   6.766  0.1144  0.1244 -0.1949
 7784TIP3    H147547   3.828   4.597   6.850 -0.6350  0.5089  0.1988
 7784TIP3    H247548   3.735   4.674   6.758  2.7771  1.5670 -2.5995
 7785TIP3   OH247549   4.055   0.409   7.905 -0.8614  0.1545 -0.8192
 7785TIP3    H147550   4.099   0.386   7.986 -1.1560  0.2166 -0.6384
 7785TIP3    H247551   4.082   0.499   7.888  0.7363 -0.4785 -1.8249
 7786TIP3   OH247552   5.058   0.324   8.250 -0.0459  0.1225  0.6019
 7786TIP3    H147553   5.006   0.308   8.171  0.4984 -0.1054  0.2876
 7786TIP3    H247554   5.076   0.237   8.286  0.4341  0.1743  0.4995
 7787TIP3   OH247555   1.374   4.227   7.198  0.5542 -0.0519  0.2964
 7787TIP3    H147556   1.467   4.212   7.215  0.9053  1.1426 -0.5114
 7787TIP3    H247557   1.351   4.160   7.133  1.1365  0.3877 -0.3679
 7788TIP3   OH247558   6.491   4.278   6.974  0.2746  0.1989  0.1731
 7788TIP3    H147559   6.499   4.208   7.039  0.8812 -0.0277 -0.1361
 7788TIP3    H247560   6.418   4.331   7.005  0.0553 -0.3490  0.6219
 7789TIP3   OH247561   6.528   3.665   8.509 -0.0719 -0.0331  0.5262
 7789TIP3    H147562   6.595   3.608   8.546 -1.0766 -1.3685  0.3810
 7789TIP3    H247563   6.479   3.608   8.449  1.4786  2.0144 -2.9480
 7790TIP3   OH247564   2.682   3.237   7.392 -0.2605 -0.4524  0.3868
 7790TIP3    H147565   2.722   3.231   7.305  1.1669 -0.6508  1.0282
 7790TIP3    H247566   2.647   3.326   7.396  1.1839  0.1541  0.2156
 7791TIP3   OH247567   4.063   1.700   9.788  0.4566  0.1023  0.1926
 7791TIP3    H147568   4.099   1.664   9.869 -0.4941  0.5546  0.8230
 7791TIP3    H247569   3.969   1.687   9.795  0.2085  1.5095 -0.1534
 7792TIP3   OH247570   3.059   0.059   8.365  0.0706  0.3004  0.3085
 7792TIP3    H147571   3.049   0.011   8.283 -1.5551  0.6785  0.2380
 7792TIP3    H247572   2.987   0.122   8.364  0.4238  0.7619  1.7275
 7793TIP3   OH247573   2.600   5.348   7.072  0.6290 -0.3141 -0.1299
 7793TIP3    H147574   2.689   5.378   7.052  0.7628 -0.0992  0.7458
 7793TIP3    H247575   2.575   5.398   7.150 -0.5679  0.2094 -0.8221
 7794TIP3   OH247576   2.654   3.508   7.470 -0.5465  0.0855  0.6850
 7794TIP3    H147577   2.596   3.572   7.427  0.3235 -0.5592 -1.6092
 7794TIP3    H247578   2.729   3.500   7.411  0.4254 -1.4199  2.0316
 7795TIP3   OH247579   4.928   3.218  10.256 -0.6074  0.0773  0.5248
 7795TIP3    H147580   4.901   3.249  10.342  0.4700  1.6945  0.3226
 7795TIP3    H247581   4.890   3.130  10.249 -0.7866 -0.0602  2.5990
 7796TIP3   OH247582   3.842   3.886   7.079  0.1619 -0.1504  0.1567
 7796TIP3    H147583   3.901   3.824   7.122 -1.4416 -1.7925  0.1082
 7796TIP3    H247584   3.889   3.970   7.082  2.0865 -1.1941  0.8807
 7797TIP3   OH247585   2.720   6.470   8.434 -0.5965  0.7309  0.5128
 7797TIP3    H147586   2.801   6.509   8.469 -1.3265  1.8565  1.0077
 7797TIP3    H247587   2.650   6.522   8.474 -1.6717 -1.5353  1.7565
 7798TIP3   OH247588   2.757   0.809   8.317  0.1410 -0.8046  0.3627
 7798TIP3    H147589   2.852   0.817   8.316  0.1723 -1.1535 -0.5045
 7798TIP3    H247590   2.730   0.844   8.232 -0.7112  1.5405  1.5240
 7799TIP3   OH247591   3.365   4.583   7.195 -0.7411 -0.4655 -0.4948
 7799TIP3    H147592   3.356   4.678   7.191 -0.5974 -0.3331  1.5181
 7799TIP3    H247593   3.369   4.563   7.288 -1.4586 -2.5196 -0.8513
 7800TIP3   OH247594   0.916   0.729   8.149  0.9632  0.0410 -0.1451
 7800TIP3    H147595   0.887   0.684   8.069  1.0010 -0.3927  0.0841
 7800TIP3    H247596   0.872   0.814   8.146  0.7640 -0.0723 -0.4995
 7801TIP3   OH247597   5.017   3.436   8.721 -0.7222 -0.1793 -0.1602
 7801TIP3    H147598   5.035   3.406   8.810  1.0630  2.1910  0.3803
 7801TIP3    H247599   5.087   3.398   8.668  1.0431  2.1381  0.3755
 7802TIP3   OH247600   3.816   6.765   7.722 -0.3644 -0.0215 -0.0468
 7802TIP3    H147601   3.776   6.709   7.788 -3.4251  0.6819 -1.1220
 7802TIP3    H247602   3.762   6.752   7.644  1.5412  1.1248 -1.6448
 7803TIP3   OH247603   1.852   5.519   6.912  0.6408  0.1860 -0.2476
 7803TIP3    H147604   1.829   5.559   6.996  0.6811 -1.1115  0.4031
 7803TIP3    H247605   1.853   5.425   6.930  3.4616 -0.0095 -0.9733
 7804TIP3   OH247606   3.208   1.146   7.324  0.2313  0.2435 -0.1128
 7804TIP3    H147607   3.238   1.212   7.263  0.7035  1.7469  1.6453
 7804TIP3    H247608   3.123   1.117   7.289 -0.4187  2.4268 -0.4976
 7805TIP3   OH247609   0.842   1.670   8.135  0.3372  0.3809  0.4187
 7805TIP3    H147610   0.862   1.751   8.182  1.1348 -0.1228  0.9749
 7805TIP3    H247611   0.818   1.608   8.204 -1.1835  0.3789 -0.0750
 7806TIP3   OH247612   2.311   5.795   7.939  0.2438  0.3215  0.0933
 7806TIP3    H147613   2.253   5.733   7.896  1.6213 -0.9877  0.0281
 7806TIP3    H247614   2.370   5.825   7.870  0.6901  0.3618  0.4842
 7807TIP3   OH247615   1.284   4.250   9.622  0.4407 -0.4871 -0.2131
 7807TIP3    H147616   1.348   4.240   9.694  0.4094 -0.8291 -0.2314
 7807TIP3    H247617   1.200   4.225   9.661  0.2358  0.3920 -0.0635
 7808TIP3   OH247618   4.132   0.682   7.918 -0.4108 -0.0913 -0.4630
 7808TIP3    H147619   4.173   0.688   8.004  0.9951 -1.1187 -1.0169
 7808TIP3    H247620   4.077   0.761   7.912  0.8329  0.9122  0.6640
 7809TIP3   OH247621   6.325   0.132   6.877  0.0133 -0.5052 -0.2561
 7809TIP3    H147622   6.343   0.187   6.801  0.3402 -1.1202 -0.6225
 7809TIP3    H247623   6.290   0.051   6.841 -0.8046 -0.4165  0.3037
 7810TIP3   OH247624   4.032   4.685   7.833 -0.0549  0.1751  0.3535
 7810TIP3    H147625   4.048   4.610   7.891  1.5653  0.0296 -0.2377
 7810TIP3    H247626   3.969   4.652   7.768 -2.2341  0.4665  2.1913
 7811TIP3   OH247627   0.621   4.072   9.828  0.0771  0.0626 -0.2126
 7811TIP3    H147628   0.688   4.139   9.817 -1.4327  1.3722 -2.3945
 7811TIP3    H247629   0.595   4.078   9.920  2.7561 -0.4110  0.6582
 7812TIP3   OH247630   1.243   2.929   6.805  0.3492  0.0122  0.1719
 7812TIP3    H147631   1.321   2.903   6.854  2.7983 -0.1324 -3.4493
 7812TIP3    H247632   1.238   3.024   6.816  1.1102  0.0371  0.3235
 7813TIP3   OH247633   4.883   0.531   9.334  0.5993 -0.1923 -0.1659
 7813TIP3    H147634   4.915   0.580   9.410  2.6525  0.4705 -1.3656
 7813TIP3    H247635   4.815   0.474   9.369  1.7765 -0.2387  2.2605
 7814TIP3   OH247636   1.748   2.372  10.287  0.3334  0.2599 -0.1751
 7814TIP3    H147637   1.740   2.317  10.365 -2.2743 -0.5328 -0.9020
 7814TIP3    H247638   1.753   2.461  10.321 -1.2651 -0.0308  0.9468
 7815TIP3   OH247639   2.827   3.768   8.283  0.0803  0.4392 -0.4614
 7815TIP3    H147640   2.887   3.837   8.255  0.5222  1.1640  2.0138
 7815TIP3    H247641   2.766   3.813   8.342 -0.3760 -1.0817  0.2531
 7816TIP3   OH247642   6.457   6.363   9.163  0.1614  0.3247 -0.2924
 7816TIP3    H147643   6.456   6.439   9.106 -0.1400  0.0849 -0.6150
 7816TIP3    H247644   6.379   6.374   9.218  0.0061  0.1457 -0.4774
 7817TIP3   OH247645   3.759   6.769   8.918 -0.4682 -0.1568  0.3863
 7817TIP3    H147646   3.679   6.726   8.950 -1.5725  2.9382  2.2733
 7817TIP3    H247647   3.733   6.860   8.904  2.3797  0.6221 -0.5273
 7818TIP3   OH247648   0.582   0.646   8.255 -0.1997 -0.2103  0.2071
 7818TIP3    H147649   0.589   0.685   8.167 -0.3024  1.8244  1.0298
 7818TIP3    H247650   0.550   0.557   8.240  1.3540 -0.4804 -1.9038
 7819TIP3   OH247651   1.394   4.123   7.641  0.3643 -0.2848 -0.0025
 7819TIP3    H147652   1.349   4.131   7.556  0.7151  0.4192 -0.1312
 7819TIP3    H247653   1.377   4.033   7.668  0.3121 -0.5486 -0.8580
 7820TIP3   OH247654   3.692   4.239   9.396  0.9340  0.0727  0.1125
 7820TIP3    H147655   3.610   4.266   9.355  0.3875  1.1893  1.8036
 7820TIP3    H247656   3.744   4.320   9.401  2.2313 -0.6371 -1.0531
 7821TIP3   OH247657   5.285   5.106   9.957 -0.2039  0.4123  0.6275
 7821TIP3    H147658   5.270   5.199   9.974 -1.7692  0.2329  0.3543
 7821TIP3    H247659   5.217   5.061  10.006 -2.1614 -0.3260 -2.4955
 7822TIP3   OH247660   6.494   1.896   6.600 -0.3588 -0.5070  0.0345
 7822TIP3    H147661   6.534   1.945   6.528  0.9654  0.5349  1.4100
 7822TIP3    H247662   6.414   1.944   6.621  0.7930  1.0308  1.1972
 7823TIP3   OH247663   4.776   1.157   9.688  0.0673 -0.6415 -0.1018
 7823TIP3    H147664   4.850   1.100   9.706 -0.3756 -1.1785  0.0187
 7823TIP3    H247665   4.801   1.204   9.608  1.1156  0.1820  0.6636
 7824TIP3   OH247666   4.137   2.309   8.244 -0.1463  0.3482  0.0801
 7824TIP3    H147667   4.199   2.253   8.291  1.1381  1.2418 -0.4752
 7824TIP3    H247668   4.060   2.255   8.232  0.2747 -0.5906  1.3760
 7825TIP3   OH247669   0.514   5.226   7.625 -1.3393 -0.3085 -0.0790
 7825TIP3    H147670   0.457   5.156   7.657  0.3657 -3.0300 -2.6072
 7825TIP3    H247671   0.454   5.287   7.582 -2.5981 -2.0190 -0.8638
 7826TIP3   OH247672   5.393   3.343  10.415 -0.4421  0.3751 -0.1581
 7826TIP3    H147673   5.454   3.361  10.343 -0.6185 -0.6686 -0.5861
 7826TIP3    H247674   5.307   3.338  10.373 -0.6761  0.6862  0.2758
 7827TIP3   OH247675   4.433   1.617   6.891  0.4587  0.0649  0.2313
 7827TIP3    H147676   4.439   1.565   6.811 -1.6188 -0.9991  0.6789
 7827TIP3    H247677   4.516   1.603   6.936  0.5768 -1.6107 -0.4330
 7828TIP3   OH247678   0.703   3.000   7.026  0.1192  0.4890 -0.0838
 7828TIP3    H147679   0.763   2.945   7.076 -1.7099 -0.3059  1.3566
 7828TIP3    H247680   0.620   2.953   7.027 -0.9834  2.3046 -0.5648
 7829TIP3   OH247681   4.841   1.435   7.109 -0.0661 -0.2887  0.3594
 7829TIP3    H147682   4.815   1.354   7.152 -0.7505  0.9326  2.3841
 7829TIP3    H247683   4.911   1.470   7.163 -0.1028  0.7137 -0.2099
 7830TIP3   OH247684   1.589   4.667   6.764 -0.1137 -0.2109 -0.0984
 7830TIP3    H147685   1.653   4.601   6.737 -0.0093 -0.0622 -0.2115
 7830TIP3    H247686   1.549   4.630   6.842 -0.9604 -1.0034 -0.8812
 7831TIP3   OH247687   1.990   6.235   7.812 -0.0924  0.1389 -0.2603
 7831TIP3    H147688   1.898   6.231   7.840 -0.0967 -0.9593 -0.3776
 7831TIP3    H247689   2.025   6.148   7.833  0.1804 -0.4144 -2.6386
 7832TIP3   OH247690   2.601   1.450   9.377  0.1638  0.1367 -0.4020
 7832TIP3    H147691   2.586   1.530   9.428 -4.1137  0.2636 -1.5244
 7832TIP3    H247692   2.607   1.381   9.443  0.6909  0.9815  0.4606
 7833TIP3   OH247693   1.927   1.917   8.887  0.5623 -0.3258  0.5553
 7833TIP3    H147694   1.911   2.003   8.850 -1.8814 -0.5710  0.8879
 7833TIP3    H247695   1.860   1.861   8.848  0.6551 -1.5436  2.0403
 7834TIP3   OH247696   0.525   3.486   7.349 -0.0645 -0.4233  0.4327
 7834TIP3    H147697   0.493   3.418   7.289 -0.6980 -0.2819  0.6035
 7834TIP3    H247698   0.454   3.498   7.412  0.2764 -0.0065  0.7448
 7835TIP3   OH247699   4.613   3.513   6.728 -0.6330  0.6242  0.2862
 7835TIP3    H147700   4.620   3.419   6.712  0.3440  0.7388 -0.0124
 7835TIP3    H247701   4.528   3.537   6.690 -0.1794  0.1510 -1.0782
 7836TIP3   OH247702   1.513   0.548   8.681  0.2088 -0.3819  0.5892
 7836TIP3    H147703   1.597   0.504   8.691 -0.1421 -0.6208  3.1029
 7836TIP3    H247704   1.447   0.483   8.707 -0.5917  0.3905  0.5685
 7837TIP3   OH247705   0.293   3.119   8.468 -0.2675 -0.3915  0.2693
 7837TIP3    H147706   0.358   3.089   8.405 -0.5940 -0.6789  0.0626
 7837TIP3    H247707   0.214   3.070   8.445 -0.3070 -0.7165  1.0943
 7838TIP3   OH247708   2.867   6.284   6.861  0.4247 -0.7854  0.0988
 7838TIP3    H147709   2.793   6.224   6.850  0.1240 -0.4037  0.0314
 7838TIP3    H247710   2.837   6.347   6.927  0.8921 -0.9489  0.4753
 7839TIP3   OH247711   4.970   6.551   7.645  0.0940  0.9242 -0.3400
 7839TIP3    H147712   4.880   6.520   7.637  0.2801  0.6671 -1.4843
 7839TIP3    H247713   5.007   6.500   7.717 -0.9203  1.6547  0.7366
 7840TIP3   OH247714   6.360   5.115   7.702 -0.2574 -0.4471 -0.4728
 7840TIP3    H147715   6.423   5.105   7.631 -1.4059  0.4950 -1.6845
 7840TIP3    H247716   6.379   5.042   7.761  2.1986  0.0408 -0.5526
 7841TIP3   OH247717   3.241   5.667   8.962 -0.4916  0.0210 -0.5494
 7841TIP3    H147718   3.205   5.734   8.904  0.2538 -0.9142 -2.1609
 7841TIP3    H247719   3.316   5.631   8.914 -0.4404 -1.4761  0.5794
 7842TIP3   OH247720   6.190   3.017   6.943 -0.0985  0.5947 -0.6758
 7842TIP3    H147721   6.158   2.939   6.898  2.3081 -1.6244  1.1390
 7842TIP3    H247722   6.242   3.063   6.877  0.8224 -0.9275 -1.0600
 7843TIP3   OH247723   3.018   4.231  10.074  0.1645  0.5840 -0.4390
 7843TIP3    H147724   3.076   4.246   9.999  0.4565  2.0560  0.0534
 7843TIP3    H247725   3.071   4.254  10.151 -0.4824  0.1533  0.1540
 7844TIP3   OH247726   4.827   1.414   7.630  0.5281 -0.0542 -0.2031
 7844TIP3    H147727   4.894   1.354   7.664 -0.4211 -0.9015  0.2403
 7844TIP3    H247728   4.806   1.471   7.704 -0.1573 -0.6474  0.0795
 7845TIP3   OH247729   1.077   6.723   7.777 -0.1910  0.1126  0.1607
 7845TIP3    H147730   1.140   6.650   7.777  1.0658  1.1606  0.5389
 7845TIP3    H247731   1.131   6.801   7.789 -1.1677  1.4139 -2.8904
 7846TIP3   OH247732   4.489   2.072   8.939  0.0546 -0.0768  0.2243
 7846TIP3    H147733   4.531   2.089   8.854  0.0224 -1.0696  0.0022
 7846TIP3    H247734   4.557   2.093   9.003 -0.2408  1.6590  0.0180
 7847TIP3   OH247735   1.066   5.096   7.998  1.1841 -0.2101  0.1384
 7847TIP3    H147736   1.159   5.076   7.997  1.0815 -0.7549  0.6115
 7847TIP3    H247737   1.024   5.014   7.972  0.8210 -0.1066  0.3899
 7848TIP3   OH247738   2.735   0.240   7.648 -0.3251 -0.1613  0.0169
 7848TIP3    H147739   2.817   0.288   7.637  0.8027 -2.0152 -0.2169
 7848TIP3    H247740   2.729   0.227   7.743  0.6911 -1.6358 -0.0867
 7849TIP3   OH247741   2.047   0.947   9.279 -0.1772 -0.0483  0.2611
 7849TIP3    H147742   2.072   1.035   9.250  0.4178  0.3948  1.9964
 7849TIP3    H247743   2.113   0.889   9.240 -0.0566  0.3881 -0.1879
 7850TIP3   OH247744   5.290   2.966  10.118 -0.3263 -0.1131  0.3622
 7850TIP3    H147745   5.364   2.910  10.097 -0.2043 -0.4947  1.7550
 7850TIP3    H247746   5.215   2.925  10.074 -0.2929 -1.5569  1.5933
 7851TIP3   OH247747   5.381   6.699   8.292 -0.5005 -0.2988  0.1955
 7851TIP3    H147748   5.435   6.691   8.371  0.7557 -0.7636 -0.6668
 7851TIP3    H247749   5.341   6.612   8.282  0.0919 -0.5357 -0.1807
 7852TIP3   OH247750   1.095   1.589   7.443 -0.0084  0.2330 -0.1750
 7852TIP3    H147751   1.092   1.518   7.378 -0.1563 -0.1323  0.2290
 7852TIP3    H247752   1.114   1.667   7.391 -0.8056  0.0624 -0.7495
 7853TIP3   OH247753   0.829   3.770   9.552  0.3601 -0.0612  0.6489
 7853TIP3    H147754   0.819   3.782   9.647  0.9758 -0.8342  0.8234
 7853TIP3    H247755   0.779   3.691   9.533  0.4586 -0.0559  0.3699
 7854TIP3   OH247756   5.671   2.388   7.504 -0.4223  0.1004 -0.2421
 7854TIP3    H147757   5.657   2.349   7.417 -1.5242 -0.0142 -0.0355
 7854TIP3    H247758   5.585   2.425   7.527  0.0306  0.6992  0.5209
 7855TIP3   OH247759   5.125   4.139   6.693 -0.0744 -0.3638  0.0041
 7855TIP3    H147760   5.098   4.144   6.784  0.3031  0.4966  0.0774
 7855TIP3    H247761   5.046   4.111   6.646 -0.9169  1.3695  0.3156
 7856TIP3   OH247762   2.259   3.164  10.519  0.3542  0.0314 -0.5941
 7856TIP3    H147763   2.341   3.136  10.480  0.4640 -1.5483  0.6980
 7856TIP3    H247764   2.197   3.094  10.499 -0.3191  0.5384 -0.3390
 7857TIP3   OH247765   3.252   6.237   7.803 -0.2976 -0.3503 -0.0849
 7857TIP3    H147766   3.227   6.205   7.716 -1.9027 -1.3377  0.6819
 7857TIP3    H247767   3.185   6.201   7.861  2.0291 -1.7394  1.9419
 7858TIP3   OH247768   6.042   1.843   7.237  0.1133  0.2843 -0.0336
 7858TIP3    H147769   6.021   1.762   7.190  0.4798  0.6872 -0.9064
 7858TIP3    H247770   5.959   1.870   7.276  0.4130 -1.7324  2.2665
 7859TIP3   OH247771   4.841   2.956   9.931  0.4717  0.1991 -0.5643
 7859TIP3    H147772   4.918   2.930   9.982 -0.4350 -1.2471  0.1120
 7859TIP3    H247773   4.845   3.052   9.930  2.2164  0.1712 -0.4703
 7860TIP3   OH247774   3.423   4.478   6.942 -0.2752 -0.0079  0.6125
 7860TIP3    H147775   3.430   4.509   7.032  0.8957  1.5232  0.0302
 7860TIP3    H247776   3.441   4.555   6.888  1.3098 -1.3560 -0.9126
 7861TIP3   OH247777   2.247   4.692   6.860 -0.3059 -0.7509  0.2921
 7861TIP3    H147778   2.176   4.665   6.918 -1.7554 -1.2035 -1.5903
 7861TIP3    H247779   2.234   4.786   6.849 -1.0660 -0.9312 -0.5452
 7862TIP3   OH247780   2.505   0.733   8.455  0.1797 -0.0167 -0.4266
 7862TIP3    H147781   2.524   0.808   8.398 -0.3208 -1.0879 -2.0927
 7862TIP3    H247782   2.558   0.662   8.419 -0.3088 -0.7825  0.3358
 7863TIP3   OH247783   6.676   5.805   8.798 -0.5831 -0.0882 -0.2478
 7863TIP3    H147784   6.597   5.839   8.756 -0.2706 -0.2686 -0.9887
 7863TIP3    H247785   6.749   5.847   8.751 -0.2184 -0.8130 -0.3507
 7864TIP3   OH247786   2.136   3.330   9.345  0.5752  0.2774  0.1589
 7864TIP3    H147787   2.224   3.316   9.310 -0.2315 -2.0331 -1.1706
 7864TIP3    H247788   2.094   3.387   9.280  1.1489  1.7125  0.9952
 7865TIP3   OH247789   2.319   0.113   8.636 -0.7404 -0.0786  0.0600
 7865TIP3    H147790   2.348   0.025   8.662 -0.9062 -0.4746 -1.0263
 7865TIP3    H247791   2.227   0.116   8.661 -0.8732 -0.4195 -0.3705
 7866TIP3   OH247792   3.402   3.543   7.000  0.4936 -0.0142  0.4558
 7866TIP3    H147793   3.312   3.515   7.016 -0.4657  1.0161 -2.4786
 7866TIP3    H247794   3.426   3.593   7.078 -1.8570  0.5136  0.9049
 7867TIP3   OH247795   0.336   2.573   9.948 -0.7631 -0.0891  0.0592
 7867TIP3    H147796   0.373   2.624  10.020  0.9478 -0.4568 -0.5110
 7867TIP3    H247797   0.338   2.482   9.979 -3.0849  0.0357  0.7735
 7868TIP3   OH247798   4.400   2.281  10.130 -0.6355  0.7415 -0.3046
 7868TIP3    H147799   4.445   2.338  10.067  1.2476 -0.5812 -0.2316
 7868TIP3    H247800   4.314   2.322  10.142  0.4185  3.2382 -0.6664
 7869TIP3   OH247801   4.700   5.361   9.454  0.0191 -0.0052 -0.1955
 7869TIP3    H147802   4.634   5.322   9.512 -0.0273  1.3038  0.6669
 7869TIP3    H247803   4.740   5.430   9.506  1.0060  0.2430 -1.2462
 7870TIP3   OH247804   2.026   4.169   7.887  0.1080 -0.3121 -0.2567
 7870TIP3    H147805   2.041   4.263   7.877  1.6338 -0.4459  0.4295
 7870TIP3    H247806   2.027   4.155   7.982 -1.8461 -0.7891 -0.2771
 7871TIP3   OH247807   2.062   5.633   7.183 -0.6257  0.6630  0.2856
 7871TIP3    H147808   2.150   5.668   7.168 -0.9102  1.8501  1.1903
 7871TIP3    H247809   2.064   5.601   7.273 -0.4647 -1.4753 -0.4289
 7872TIP3   OH247810   5.711   3.922  10.612 -0.0012  0.4715 -0.5079
 7872TIP3    H147811   5.639   3.864  10.637 -0.1586  1.7612  2.4553
 7872TIP3    H247812   5.786   3.863  10.601 -0.9692 -0.6465 -1.3920
 7873TIP3   OH247813   6.497   1.650   7.593 -0.2554  0.3815  0.9020
 7873TIP3    H147814   6.581   1.605   7.583 -0.6932 -0.2904  0.1352
 7873TIP3    H247815   6.497   1.680   7.684  0.6135 -0.0120  1.0466
 7874TIP3   OH247816   3.770   2.712   7.567  0.0684 -0.3499 -0.0542
 7874TIP3    H147817   3.762   2.688   7.475 -1.5271 -0.1529  0.0095
 7874TIP3    H247818   3.845   2.770   7.570  1.1023 -1.5712 -0.9723
 7875TIP3   OH247819   5.935   1.182   9.309  0.5761 -0.6973  0.3023
 7875TIP3    H147820   5.889   1.102   9.284  0.3320 -0.4174 -0.1725
 7875TIP3    H247821   5.920   1.190   9.403 -0.9156 -0.2838  0.0646
 7876TIP3   OH247822   2.509   5.694   9.017  0.3779 -0.4515  0.0905
 7876TIP3    H147823   2.441   5.640   9.058  0.1729 -1.0709 -1.0318
 7876TIP3    H247824   2.571   5.631   8.980 -0.6036 -0.0105 -2.5158
 7877TIP3   OH247825   0.357   4.483   7.050  0.3439 -0.0761 -0.0313
 7877TIP3    H147826   0.293   4.497   7.120  1.2167 -1.3983  1.0967
 7877TIP3    H247827   0.431   4.439   7.094  1.1462 -0.4522 -1.6845
 7878TIP3   OH247828   2.861   4.044  10.253 -0.5538  0.3449 -0.2572
 7878TIP3    H147829   2.781   4.026  10.302  0.0112  1.3931  1.1171
 7878TIP3    H247830   2.906   3.959  10.248 -0.2486  0.3333  1.7883
 7879TIP3   OH247831   5.452   2.935   7.959 -0.6374  0.5136 -0.0037
 7879TIP3    H147832   5.465   3.029   7.949  1.8500  0.0038 -3.3370
 7879TIP3    H247833   5.357   2.924   7.961 -1.0032  3.0538  0.5095
 7880TIP3   OH247834   4.576   3.681   6.971  0.7788 -0.3972 -0.5847
 7880TIP3    H147835   4.583   3.591   6.937  1.4147 -0.2454 -0.8796
 7880TIP3    H247836   4.485   3.706   6.956  0.7194 -0.8214 -0.9502
 7881TIP3   OH247837   1.896   4.637   7.404  0.5941  0.3660 -0.1647
 7881TIP3    H147838   1.806   4.635   7.437 -0.3856  0.3958 -2.6388
 7881TIP3    H247839   1.937   4.708   7.453 -0.9042  0.7779  0.5757
 7882TIP3   OH247840   2.099   2.832   8.589 -0.1191  0.3825 -0.0808
 7882TIP3    H147841   2.132   2.913   8.548 -1.6947  0.9672 -0.2672
 7882TIP3    H247842   2.109   2.848   8.683  3.0124 -0.7492 -0.1211
 7883TIP3   OH247843   1.051   1.734   9.261 -0.1385  1.0967  0.4240
 7883TIP3    H147844   0.970   1.714   9.308  1.2774 -0.0211  2.5542
 7883TIP3    H247845   1.045   1.827   9.240 -1.1257  1.5009  2.3493
 7884TIP3   OH247846   1.018   5.274   7.164 -0.1575  0.4388 -0.5449
 7884TIP3    H147847   0.982   5.196   7.208 -0.1796  1.7154  1.8778
 7884TIP3    H247848   1.111   5.255   7.155 -0.0830  0.2873  0.4475
 7885TIP3   OH247849   3.832   5.243   8.534 -0.5511 -0.1802 -0.1667
 7885TIP3    H147850   3.917   5.200   8.536 -0.1273  0.6124  1.9048
 7885TIP3    H247851   3.803   5.237   8.443  0.3394 -3.0534 -0.3332
 7886TIP3   OH247852   4.491   6.659   8.708 -0.3355  0.3519  0.1166
 7886TIP3    H147853   4.422   6.604   8.746 -0.6096  0.5487 -0.0910
 7886TIP3    H247854   4.444   6.733   8.670 -0.0172  0.4218 -0.1407
 7887TIP3   OH247855   2.138   5.211   8.365 -0.0256 -0.4953  0.3253
 7887TIP3    H147856   2.198   5.141   8.341 -0.3492 -0.6173 -0.1509
 7887TIP3    H247857   2.127   5.262   8.285  0.6692  0.4567  0.8172
 7888TIP3   OH247858   3.373   6.198   8.966 -0.2388  0.0095 -0.3634
 7888TIP3    H147859   3.304   6.132   8.973  0.8158 -1.1590 -0.5925
 7888TIP3    H247860   3.367   6.230   8.877  0.2413 -0.9419 -0.7530
 7889TIP3   OH247861   5.097   2.619   9.819  0.3872 -0.0797 -0.1250
 7889TIP3    H147862   5.136   2.579   9.741 -0.2611  1.1184 -1.1127
 7889TIP3    H247863   5.161   2.684   9.848  0.2636  0.0731 -0.1878
 7890TIP3   OH247864   3.937   2.398   7.622  0.1747 -0.0901  0.0110
 7890TIP3    H147865   3.906   2.322   7.671 -0.1378 -0.8273 -1.3038
 7890TIP3    H247866   4.033   2.391   7.625  0.1529 -0.3439  0.1608
 7891TIP3   OH247867   1.095   5.273   8.280 -0.2583 -0.1815 -0.6796
 7891TIP3    H147868   1.163   5.258   8.347 -0.1812  1.5298 -0.3236
 7891TIP3    H247869   1.142   5.267   8.197 -0.1003 -1.0811 -0.5354
 7892TIP3   OH247870   2.354   6.593   8.720 -0.0840 -0.2104  0.6463
 7892TIP3    H147871   2.395   6.537   8.654 -0.7647  0.4607 -0.3848
 7892TIP3    H247872   2.291   6.537   8.763 -2.0339  0.1121 -1.5704
 7893TIP3   OH247873   4.315   5.185   7.538 -0.1631 -0.5910 -0.2317
 7893TIP3    H147874   4.345   5.203   7.449  0.1795 -1.3139 -0.2686
 7893TIP3    H247875   4.372   5.237   7.593  0.3276 -0.9647 -0.3792
 7894TIP3   OH247876   1.921   2.379   6.693 -0.2481 -0.8850  0.5414
 7894TIP3    H147877   2.009   2.418   6.694 -0.7314  0.2644  0.1546
 7894TIP3    H247878   1.903   2.363   6.600  0.0797 -2.4045  0.7177
 7895TIP3   OH247879   4.773   0.053   8.589 -0.2394  0.4226 -0.0628
 7895TIP3    H147880   4.823   0.133   8.601  0.5068 -0.0382 -0.0438
 7895TIP3    H247881   4.838  -0.014   8.566 -0.6707 -0.4810  1.2126
 7896TIP3   OH247882   3.352   3.294   7.539 -0.2939 -0.0065  0.7108
 7896TIP3    H147883   3.374   3.348   7.463 -3.2854 -2.5924 -2.2834
 7896TIP3    H247884   3.431   3.244   7.557  0.5780  0.8609 -0.5387
 7897TIP3   OH247885   2.246   5.694   8.676  0.4331  0.0514  0.0081
 7897TIP3    H147886   2.224   5.707   8.584  0.1068  1.2107  0.2377
 7897TIP3    H247887   2.165   5.713   8.723  0.2739 -1.6416  0.4807
 7898TIP3   OH247888   5.300   1.468   6.868 -1.0004 -0.1078  0.4369
 7898TIP3    H147889   5.314   1.562   6.860  0.0658 -0.3415 -0.6277
 7898TIP3    H247890   5.352   1.429   6.798 -1.0783 -1.5287  1.1263
 7899TIP3   OH247891   6.762   2.473   8.530 -0.0936 -0.1904  0.7088
 7899TIP3    H147892   6.688   2.446   8.474  1.3706 -0.7148 -1.0678
 7899TIP3    H247893   6.752   2.422   8.610 -0.9291 -1.2239 -0.0267
 7900TIP3   OH247894   3.630   1.926   9.007 -0.4843 -0.0741 -0.1156
 7900TIP3    H147895   3.641   1.833   9.026  0.3511 -0.0816 -0.5831
 7900TIP3    H247896   3.687   1.942   8.931  1.7853  1.4405  1.7538
 7901TIP3   OH247897   2.100   2.496   9.972 -0.2330 -0.5394  0.4201
 7901TIP3    H147898   2.177   2.489  10.028 -0.5766  1.2286  1.1806
 7901TIP3    H247899   2.132   2.540   9.893 -0.0683 -1.6570 -0.1583
 7902TIP3   OH247900   4.091   6.313   8.136  0.9640 -0.4140 -0.4464
 7902TIP3    H147901   3.996   6.315   8.147  1.2264  0.2383  2.4226
 7902TIP3    H247902   4.109   6.223   8.107 -0.4246 -0.9475  0.2184
 7903TIP3   OH247903   1.819   3.178   8.539  0.6398 -0.1573 -0.3212
 7903TIP3    H147904   1.889   3.139   8.487  1.8655  1.6481 -0.0979
 7903TIP3    H247905   1.824   3.271   8.519 -1.1828  0.1160  0.3484
 7904TIP3   OH247906   1.415   3.296   6.604  0.7393  0.4850  0.2334
 7904TIP3    H147907   1.340   3.265   6.655  2.4403  0.1233  2.6724
 7904TIP3    H247908   1.383   3.376   6.563 -1.0338  0.2897  1.1112
 7905TIP3   OH247909   4.118   5.505   7.075  0.3397  0.3757 -0.4530
 7905TIP3    H147910   4.201   5.459   7.060 -0.4732 -1.4545  0.4621
 7905TIP3    H247911   4.095   5.540   6.989  0.6750 -1.5136 -1.3633
 7906TIP3   OH247912   1.202   0.976   9.364  0.5022 -0.0522 -0.1965
 7906TIP3    H147913   1.294   0.996   9.380  1.4364 -1.7334 -2.7642
 7906TIP3    H247914   1.179   0.911   9.431  1.1585  0.4044  0.4804
 7907TIP3   OH247915   5.784   4.331  17.699 -0.3134 -0.0845  0.8518
 7907TIP3    H147916   5.846   4.401  17.719 -0.8904  1.1317 -1.2322
 7907TIP3    H247917   5.821   4.288  17.622 -1.8624  0.5101 -0.2789
 7908TIP3   OH247918   5.442   2.597   8.733 -0.5029 -0.1158 -0.5567
 7908TIP3    H147919   5.521   2.548   8.756 -1.1909 -0.8953  0.2370
 7908TIP3    H247920   5.467   2.647   8.655  0.8768 -0.0601 -0.1188
 7909TIP3   OH247921   6.109   4.677   6.846 -0.1358 -0.2095  0.1417
 7909TIP3    H147922   6.121   4.746   6.911 -0.3019  0.3823 -0.4568
 7909TIP3    H247923   6.197   4.639   6.836  0.4836  1.4400 -1.2163
 7910TIP3   OH247924   2.299   3.214   9.043 -0.3084  0.4201  0.3331
 7910TIP3    H147925   2.317   3.279   8.975  0.6092 -0.5317 -0.3583
 7910TIP3    H247926   2.382   3.204   9.090 -0.5473  0.0226  0.6810
 7911TIP3   OH247927   5.347   3.929   6.946  0.2604 -0.2132 -0.1746
 7911TIP3    H147928   5.394   3.875   6.883 -0.1984 -0.1244 -0.5964
 7911TIP3    H247929   5.295   3.867   6.997  0.6214 -0.2833  0.1099
 7912TIP3   OH247930   1.912   6.193   7.523  0.5009 -0.1492 -0.4173
 7912TIP3    H147931   1.937   6.185   7.615  0.3234 -0.0697 -0.3629
 7912TIP3    H247932   1.882   6.284   7.514 -3.2098 -1.1645  0.3561
 7913TIP3   OH247933   5.054   3.417   7.309 -0.4907  0.1167  0.2121
 7913TIP3    H147934   5.004   3.497   7.324 -1.4613 -0.5136  0.3785
 7913TIP3    H247935   5.114   3.412   7.383  1.8830  2.3568 -1.3548
 7914TIP3   OH247936   6.019   5.229  10.249  0.2597  0.0949  0.4338
 7914TIP3    H147937   5.983   5.201  10.165 -0.9421  1.7923  0.3112
 7914TIP3    H247938   5.964   5.186  10.315  1.6376 -1.7933  0.4295
 7915TIP3   OH247939   5.905   5.278   7.161 -0.3391 -0.1115 -0.1431
 7915TIP3    H147940   5.876   5.270   7.070 -1.7273 -0.4978  0.3050
 7915TIP3    H247941   5.906   5.372   7.178 -0.0796 -0.0385 -0.5538
 7916TIP3   OH247942   0.573   4.135   9.537  0.3995  0.1324  0.1539
 7916TIP3    H147943   0.559   4.114   9.629 -2.0971 -1.1514 -0.4405
 7916TIP3    H247944   0.488   4.122   9.495  1.5810  0.0570 -2.4555
 7917TIP3   OH247945   2.830   0.367   7.213 -0.0271 -0.3984  0.2512
 7917TIP3    H147946   2.783   0.291   7.247  0.4671  0.1081  2.1621
 7917TIP3    H247947   2.889   0.331   7.147 -0.9108 -1.4391 -0.0034
 7918TIP3   OH247948   1.845   6.717   7.415 -0.2904  0.3858  0.8156
 7918TIP3    H147949   1.841   6.802   7.459 -1.2029  0.5379  0.4518
 7918TIP3    H247950   1.793   6.728   7.335 -0.0747 -0.3914  0.5563
 7919TIP3   OH247951   2.443   1.766   8.444 -0.0662 -0.8320  0.1108
 7919TIP3    H147952   2.525   1.719   8.428  0.7419  0.4802  0.2507
 7919TIP3    H247953   2.385   1.701   8.483  1.2237 -1.5495  0.8893
 7920TIP3   OH247954   3.355   5.677   7.715 -0.3674 -0.5873 -0.0225
 7920TIP3    H147955   3.386   5.604   7.662 -1.6277  0.0414 -1.7366
 7920TIP3    H247956   3.433   5.711   7.758  0.2634 -2.7794  0.6462
 7921TIP3   OH247957   6.129   5.805   8.730  0.4888 -0.0070 -0.2623
 7921TIP3    H147958   6.178   5.788   8.811  0.0440 -0.5345 -0.0983
 7921TIP3    H247959   6.097   5.895   8.741  1.6005  0.4422 -0.4755
 7922TIP3   OH247960   6.501   5.534   7.072 -0.3362  0.2415  0.5544
 7922TIP3    H147961   6.526   5.621   7.042 -2.2627  0.6580  0.0671
 7922TIP3    H247962   6.406   5.537   7.082 -0.4746 -1.8394  0.4132
 7923TIP3   OH247963   2.294   4.464   7.137 -0.6920  0.3865  0.0499
 7923TIP3    H147964   2.199   4.454   7.130 -0.5855 -0.0993 -0.8539
 7923TIP3    H247965   2.307   4.523   7.212 -1.6539 -0.4892  0.9388
 7924TIP3   OH247966   2.494   6.144   7.959 -0.0790  0.3679  0.5101
 7924TIP3    H147967   2.435   6.219   7.958 -0.6342 -0.0476 -0.7308
 7924TIP3    H247968   2.459   6.087   8.028 -0.6067  0.5442  0.3980
 7925TIP3   OH247969   0.927   1.267   6.832 -0.3793  0.0642  0.0201
 7925TIP3    H147970   0.975   1.203   6.884 -0.9588 -1.4724 -1.2579
 7925TIP3    H247971   0.983   1.345   6.832  1.0582 -0.9353  0.4038
 7926TIP3   OH247972   6.442   4.848   7.357  0.5715 -0.7572 -0.1242
 7926TIP3    H147973   6.437   4.767   7.307 -0.9371  0.3546 -1.9114
 7926TIP3    H247974   6.438   4.820   7.449 -0.8369 -2.6552 -0.7045
 7927TIP3   OH247975   1.211   3.044   7.910 -0.3823 -0.4199  0.2758
 7927TIP3    H147976   1.167   2.969   7.949 -1.3512  0.4145  0.8368
 7927TIP3    H247977   1.232   3.101   7.984  2.4300 -1.1436  0.1315
 7928TIP3   OH247978   2.460   3.688  10.358 -0.2293 -0.1121 -0.2165
 7928TIP3    H147979   2.374   3.710  10.323 -0.2593  3.6184  1.7385
 7928TIP3    H247980   2.441   3.635  10.436 -1.1157  2.7219  1.6667
 7929TIP3   OH247981   1.273   2.261   8.944  0.4814  0.1232 -0.0396
 7929TIP3    H147982   1.258   2.288   8.853  1.2270  1.0635  0.1128
 7929TIP3    H247983   1.320   2.334   8.984  0.4315 -0.4123  1.0273
 7930TIP3   OH247984   1.776   5.582   8.750 -0.3476 -0.4706 -0.0817
 7930TIP3    H147985   1.717   5.571   8.824  0.2446  1.1618  0.6741
 7930TIP3    H247986   1.860   5.606   8.789 -0.2179  1.1897 -1.2617
 7931TIP3   OH247987   6.526   0.694   7.868  0.1417 -0.2296  0.4233
 7931TIP3    H147988   6.465   0.629   7.904  0.2998 -0.2639  0.6251
 7931TIP3    H247989   6.524   0.766   7.931  1.0637 -0.6487  0.9434
 7932TIP3   OH247990   5.429   4.140   7.112  0.6105  0.5353  0.1578
 7932TIP3    H147991   5.392   4.077   7.049  0.4633  1.7925 -1.0641
 7932TIP3    H247992   5.353   4.188   7.145  0.8559  1.0866 -0.0672
 7933TIP3   OH247993   5.996   6.599   8.038  0.3465 -0.5024  0.3236
 7933TIP3    H147994   5.997   6.514   8.082  0.4225 -1.2794 -1.1265
 7933TIP3    H247995   6.002   6.578   7.945  1.1109  1.1251 -0.0293
 7934TIP3   OH247996   5.721   4.307   7.932  0.5954 -0.0608  0.6103
 7934TIP3    H147997   5.740   4.391   7.891 -1.0173  0.1631  0.2504
 7934TIP3    H247998   5.627   4.310   7.951  0.2466 -2.1976 -0.4445
 7935TIP3   OH247999   2.314   1.549   8.554  0.2748 -0.0858  0.0259
 7935TIP3    H148000   2.274   1.492   8.489 -1.3543  0.0588  0.8401
 7935TIP3    H248001   2.240   1.583   8.605  1.4230  0.4146  1.4419
 7936TIP3   OH248002   2.359   6.442   7.549 -0.4549 -0.1751 -0.0429
 7936TIP3    H148003   2.269   6.461   7.522 -0.3323 -0.6682 -0.8287
 7936TIP3    H248004   2.412   6.505   7.501 -0.3298 -0.2434  0.0054
 7937TIP3   OH248005   6.568   1.766   9.316 -0.0734 -0.0784  0.4450
 7937TIP3    H148006   6.638   1.831   9.325 -0.1905  0.1796 -0.4385
 7937TIP3    H248007   6.551   1.736   9.405 -1.4283  2.5640  1.1560
 7938TIP3   OH248008   2.089   2.908   7.484 -0.2216  0.1746  0.5308
 7938TIP3    H148009   2.018   2.879   7.428  0.2342 -1.6100  0.8117
 7938TIP3    H248010   2.138   2.971   7.430 -0.7063 -0.2878 -0.4721
 7939TIP3   OH248011   0.934   5.114   8.936 -0.3693  0.5795  1.0721
 7939TIP3    H148012   0.914   5.037   8.883 -2.0431  0.2908  2.0448
 7939TIP3    H248013   0.992   5.083   9.005  0.4891  0.6126  0.3796
 7940TIP3   OH248014   2.893   6.714   7.825 -0.4185 -0.2333 -0.2412
 7940TIP3    H148015   2.984   6.687   7.817 -0.1141  1.1544 -2.0598
 7940TIP3    H248016   2.845   6.658   7.764 -0.5041  0.1426 -0.5268
 7941TIP3   OH248017   1.380   1.101   9.024  0.3837  0.1713 -0.6104
 7941TIP3    H148018   1.332   1.035   8.974 -0.8984  1.1664 -0.7589
 7941TIP3    H248019   1.435   1.050   9.084 -1.0005 -1.0612 -0.3084
 7942TIP3   OH248020   1.118   0.943   8.238 -0.5370 -0.3060  0.0950
 7942TIP3    H148021   1.131   0.854   8.268 -0.7175 -0.4655 -0.2920
 7942TIP3    H248022   1.184   0.995   8.284 -0.4434 -0.6354  0.3284
 7943TIP3   OH248023   5.801   3.545  10.523  0.4487  0.1925  0.1628
 7943TIP3    H148024   5.814   3.450  10.523 -0.7263 -0.0110 -0.9176
 7943TIP3    H248025   5.710   3.556  10.552 -0.0613  0.8255 -1.5342
 7944TIP3   OH248026   0.752   0.867  10.060 -0.6956 -0.5870 -0.3920
 7944TIP3    H148027   0.682   0.809  10.028 -0.4088 -0.7187 -0.7781
 7944TIP3    H248028   0.828   0.810  10.068 -0.3626 -0.2185 -0.9573
 7945TIP3   OH248029   2.781   6.642   9.018 -0.1426  0.5278 -0.0977
 7945TIP3    H148030   2.837   6.716   8.992 -0.7184  0.9104 -0.2552
 7945TIP3    H248031   2.769   6.592   8.937  1.3813 -0.5242  0.2816
 7946TIP3   OH248032   1.431   6.257   7.084  0.5029  0.5491  1.1980
 7946TIP3    H148033   1.348   6.295   7.057 -0.4565 -1.0906  1.7624
 7946TIP3    H248034   1.424   6.164   7.064  2.6799  0.5480  0.1482
 7947TIP3   OH248035   0.959   4.444   7.961  0.0299 -0.0487 -0.1989
 7947TIP3    H148036   0.903   4.485   7.894  0.7035  0.3139 -0.5536
 7947TIP3    H248037   0.906   4.445   8.041  0.1583  1.8749 -0.1004
 7948TIP3   OH248038   5.557   2.700   7.163  0.2547  0.6384  0.1815
 7948TIP3    H148039   5.595   2.664   7.083  1.1754  1.1041  0.3918
 7948TIP3    H248040   5.500   2.771   7.133 -0.9243 -0.4236 -0.1738
 7949TIP3   OH248041   3.887   1.881   9.388  0.3186  0.7050  0.5630
 7949TIP3    H148042   3.864   1.802   9.437  0.5406  0.1384 -0.2302
 7949TIP3    H248043   3.920   1.849   9.304  0.6105  1.6349  0.3098
 7950TIP3   OH248044   6.116   3.863   7.617 -0.0431 -0.9713 -0.1754
 7950TIP3    H148045   6.207   3.852   7.645  0.4149  1.6580 -0.3704
 7950TIP3    H248046   6.067   3.861   7.699  0.1817 -2.1514 -0.0449
 7951TIP3   OH248047   5.524   6.147   7.766  0.2918  0.4251 -0.4009
 7951TIP3    H148048   5.438   6.157   7.723  0.2548 -0.0215 -0.4381
 7951TIP3    H248049   5.511   6.183   7.853 -0.3314 -0.8374  0.0662
 7952TIP3   OH248050   2.632   6.734   6.289  0.5035 -0.0049  0.3484
 7952TIP3    H148051   2.638   6.812   6.345  0.2546 -0.4087  0.9430
 7952TIP3    H248052   2.715   6.689   6.302  0.3553 -0.2176  0.5778
 7953TIP3   OH248053   4.199   4.545   8.633  0.2990  0.5237  0.1288
 7953TIP3    H148054   4.147   4.489   8.690 -0.3343  1.1203  0.1526
 7953TIP3    H248055   4.270   4.489   8.602  0.2142 -0.0182  0.8925
 7954TIP3   OH248056   2.243   1.987   8.423  0.1151 -0.1938 -0.0905
 7954TIP3    H148057   2.189   1.945   8.490  0.3103  1.1815  0.9600
 7954TIP3    H248058   2.323   1.935   8.421  0.7995  0.7053  1.9637
 7955TIP3   OH248059   5.266   6.131   8.104 -0.3248 -0.2141 -0.8322
 7955TIP3    H148060   5.326   6.090   8.166 -0.3385 -1.1799 -1.4316
 7955TIP3    H248061   5.323   6.176   8.042 -0.2895  0.2744 -0.4488
 7956TIP3   OH248062   0.672   1.365   7.413 -0.0516  0.5704  0.6377
 7956TIP3    H148063   0.745   1.372   7.475  1.1279 -0.6429 -0.5425
 7956TIP3    H248064   0.704   1.306   7.345 -2.3699 -0.4818  0.3644
 7957TIP3   OH248065   1.759   1.407   9.479 -0.0600 -0.5298  0.0485
 7957TIP3    H148066   1.807   1.433   9.401  3.2212 -1.8430  1.4280
 7957TIP3    H248067   1.700   1.480   9.498  0.3497  0.5734 -2.5745
 7958TIP3   OH248068   1.891   4.085   9.934  0.0614 -0.5650 -0.6257
 7958TIP3    H148069   1.898   4.180   9.941  0.2410 -0.5727 -0.7005
 7958TIP3    H248070   1.797   4.069   9.928  0.0726 -0.2774 -2.0159
 7959TIP3   OH248071   5.426   2.770   8.991  0.3589 -0.3036  0.4752
 7959TIP3    H148072   5.450   2.689   9.036  0.1458  0.5144  2.1315
 7959TIP3    H248073   5.469   2.764   8.906 -0.0711 -2.3839  0.3451
 7960TIP3   OH248074   3.643   3.370   9.397 -0.1611  0.5338  0.4691
 7960TIP3    H148075   3.593   3.340   9.321 -1.5788 -0.5840  1.7737
 7960TIP3    H248076   3.727   3.399   9.361  0.0067 -1.8625 -1.2722
 7961TIP3   OH248077   0.408   5.364   9.270  0.0479 -0.1188 -0.1982
 7961TIP3    H148078   0.498   5.333   9.268 -0.0124 -0.2975 -1.7832
 7961TIP3    H248079   0.381   5.365   9.178 -1.7734 -0.6794  0.2728
 7962TIP3   OH248080   3.992   2.983   9.090  0.6634 -0.4149 -0.6050
 7962TIP3    H148081   3.907   2.938   9.088  1.6299 -2.3027 -1.5239
 7962TIP3    H248082   4.034   2.960   9.008  2.1382  0.3985 -0.1186
 7963TIP3   OH248083   5.837   4.644   9.049  0.8410 -0.2600  0.2409
 7963TIP3    H148084   5.924   4.655   9.087  1.1798 -2.2575  0.1457
 7963TIP3    H248085   5.835   4.705   8.975  1.9726  0.1263  0.5042
 7964TIP3   OH248086   1.352   0.334   9.892 -0.1245 -0.4710 -0.2629
 7964TIP3    H148087   1.327   0.271   9.960  1.2576  0.0451  0.7886
 7964TIP3    H248088   1.319   0.297   9.811 -0.4220 -1.9238  0.4904
 7965TIP3   OH248089   1.916   5.501   9.658 -0.2877  0.8528 -0.1971
 7965TIP3    H148090   1.900   5.410   9.634  0.2507  1.1021 -1.5456
 7965TIP3    H248091   1.867   5.552   9.593 -1.3083  1.5372  1.0628
 7966TIP3   OH248092   5.772   2.520   9.793  0.4218 -0.2501  0.2947
 7966TIP3    H148093   5.827   2.584   9.839  1.1704  0.1719 -1.1231
 7966TIP3    H248094   5.819   2.437   9.804  0.0868 -0.3420  1.0968
 7967TIP3   OH248095   4.464   3.414   7.213 -0.3361  0.4429 -0.1840
 7967TIP3    H148096   4.460   3.438   7.120  0.9891  1.9480  0.0937
 7967TIP3    H248097   4.553   3.381   7.225  0.0475  1.7240  0.8265
 7968TIP3   OH248098   1.120   3.566   9.569  0.1376  0.3271  0.1938
 7968TIP3    H148099   1.146   3.480   9.536  0.5220 -0.1097  1.5651
 7968TIP3    H248100   1.024   3.567   9.561 -0.0018 -0.7775  1.3649
 7969TIP3   OH248101   4.413   5.733   9.185  0.7962  0.0248  0.0672
 7969TIP3    H148102   4.341   5.741   9.247 -0.4891 -1.1055 -1.2226
 7969TIP3    H248103   4.457   5.651   9.210  1.5586  0.6271  0.7469
 7970TIP3   OH248104   5.812   6.455   7.205 -0.0400  0.3523 -0.3291
 7970TIP3    H148105   5.717   6.456   7.210  0.0147  0.4941  1.1115
 7970TIP3    H248106   5.835   6.365   7.185 -0.4321 -0.0509  0.9746
 7971TIP3   OH248107   0.782   1.953   9.034  0.6158  0.2847  0.5806
 7971TIP3    H148108   0.720   1.882   9.016  1.4640 -0.5610  0.8810
 7971TIP3    H248109   0.840   1.953   8.958  0.7992  0.4572  0.7216
 7972TIP3   OH248110   3.639   2.233   6.392 -0.2220 -0.0537  0.1610
 7972TIP3    H148111   3.572   2.168   6.415 -0.3324 -0.4150 -1.0999
 7972TIP3    H248112   3.590   2.306   6.356  0.0402 -0.2464 -0.6019
 7973TIP3   OH248113   0.343   2.858   6.752 -0.3161  0.4399  0.1702
 7973TIP3    H148114   0.319   2.789   6.690 -2.1718 -1.0951  2.4073
 7973TIP3    H248115   0.420   2.824   6.797 -0.3832  0.4731  0.3107
 7974TIP3   OH248116   5.037   0.475   7.886  0.2675 -0.1163 -0.0109
 7974TIP3    H148117   4.982   0.522   7.948  1.3257 -0.2524  1.0639
 7974TIP3    H248118   5.068   0.398   7.934  0.8123 -0.4169 -0.8208
 7975TIP3   OH248119   3.325   0.115   7.431  0.4348 -0.4110  0.1501
 7975TIP3    H148120   3.390   0.180   7.459  0.8156 -0.5165 -0.4602
 7975TIP3    H248121   3.353   0.034   7.472 -0.0517 -0.1924  0.9286
 7976TIP3   OH248122   2.193   4.913   7.151  0.1342  0.4842  0.0948
 7976TIP3    H148123   2.227   4.927   7.240  0.1067  1.8196 -0.0797
 7976TIP3    H248124   2.240   4.977   7.097  0.7671 -0.8641 -1.0321
 7977TIP3   OH248125   2.888   5.654   8.861  0.6803 -0.0858 -0.0749
 7977TIP3    H148126   2.898   5.683   8.771 -0.0027 -1.0266 -0.4688
 7977TIP3    H248127   2.974   5.666   8.900  0.8127  0.9622 -0.6554
 7978TIP3   OH248128   2.333   2.901   6.678 -0.1414  0.0293 -0.3740
 7978TIP3    H148129   2.391   2.950   6.621 -0.9491  0.6189 -0.7088
 7978TIP3    H248130   2.356   2.809   6.662  0.6028  0.2498 -0.5879
 7979TIP3   OH248131   4.343   0.359   8.436 -0.7651 -0.0432 -0.5438
 7979TIP3    H148132   4.345   0.454   8.444  2.0626 -0.1353  1.4347
 7979TIP3    H248133   4.434   0.333   8.425 -0.8515 -2.6624  2.9073
 7980TIP3   OH248134   6.726   0.019   7.544  0.0089 -0.4646 -0.2499
 7980TIP3    H148135   6.728   0.086   7.613 -1.1751 -1.3793  0.7162
 7980TIP3    H248136   6.814   0.021   7.506  0.3850  0.7376  0.6190
 7981TIP3   OH248137   3.075   5.692   9.574 -0.1054  0.3679  0.4655
 7981TIP3    H148138   3.078   5.633   9.649  1.0326 -0.3877 -0.1535
 7981TIP3    H248139   3.055   5.778   9.612 -1.6339 -0.3632  1.3891
 7982TIP3   OH248140   3.534   3.915   6.902  0.2436 -0.4881 -0.0658
 7982TIP3    H148141   3.613   3.916   6.848  1.1987  1.6209  1.2262
 7982TIP3    H248142   3.517   4.008   6.921 -1.2078 -1.0426  1.5636
 7983TIP3   OH248143   3.680   5.289   7.611 -0.6077 -0.1833 -0.8801
 7983TIP3    H148144   3.739   5.339   7.556  1.0763 -1.1485 -0.0392
 7983TIP3    H248145   3.666   5.344   7.689  0.2893 -0.5014 -0.4834
 7984TIP3   OH248146   5.192   2.877   8.196  0.7075  0.0590  0.2525
 7984TIP3    H148147   5.220   2.786   8.211  1.7491  0.5189  1.1947
 7984TIP3    H248148   5.195   2.888   8.101  2.5980 -0.2848  0.2380
 7985TIP3   OH248149   5.132   2.280   8.525 -0.3059 -0.3750 -0.2983
 7985TIP3    H148150   5.076   2.214   8.564 -0.0434 -1.2942 -1.4080
 7985TIP3    H248151   5.189   2.309   8.596 -2.3717  0.8389  0.9410
 7986TIP3   OH248152   2.781   1.786   7.718  0.0152 -0.0540 -0.2938
 7986TIP3    H148153   2.730   1.863   7.742 -0.5045 -0.7379  0.8826
 7986TIP3    H248154   2.771   1.726   7.792 -0.1570 -1.5415 -1.4619
 7987TIP3   OH248155   4.239   4.347   8.357 -0.3492  0.4602 -0.1301
 7987TIP3    H148156   4.217   4.426   8.308 -0.0517  0.6987  0.1199
 7987TIP3    H248157   4.309   4.374   8.416 -1.4040  0.4465  1.1715
 7988TIP3   OH248158   4.363   3.573   9.876  0.1026  0.1524  0.5617
 7988TIP3    H148159   4.310   3.571   9.796 -0.2587  3.2958  0.6137
 7988TIP3    H248160   4.438   3.516   9.856  0.0030  0.7785 -2.0014
 7989TIP3   OH248161   5.485   4.731  10.248 -0.8885  0.3168  0.3824
 7989TIP3    H148162   5.429   4.754  10.323 -0.1625  0.7333  0.8055
 7989TIP3    H248163   5.536   4.810  10.231 -2.1221  0.7684 -1.5674
 7990TIP3   OH248164   4.451   6.395   8.252  0.2168  0.4725 -0.4941
 7990TIP3    H148165   4.506   6.411   8.329 -0.5551 -0.2061  0.2226
 7990TIP3    H248166   4.434   6.483   8.216 -1.2573  1.0522  1.4383
 7991TIP3   OH248167   0.412   5.134  10.392  0.0022  0.2358 -0.2504
 7991TIP3    H148168   0.352   5.130  10.467  0.1387  0.4457 -0.1285
 7991TIP3    H248169   0.357   5.121  10.316 -0.5882  2.8407 -0.3328
 7992TIP3   OH248170   0.481   1.277   7.599  0.4757 -0.1749 -0.9962
 7992TIP3    H148171   0.418   1.248   7.533  0.9371  0.1038 -1.5657
 7992TIP3    H248172   0.537   1.339   7.553 -0.4405  1.5932  0.1693
 7993TIP3   OH248173   1.994   1.575   7.235 -0.3333 -0.0860  0.8898
 7993TIP3    H148174   1.928   1.507   7.248  0.3417 -1.1864 -1.0545
 7993TIP3    H248175   1.946   1.651   7.205 -0.8926 -0.3412  1.1280
 7994TIP3   OH248176   1.556   4.272   6.653 -0.0292  0.2054 -0.1051
 7994TIP3    H148177   1.481   4.276   6.593 -0.0141 -2.1401 -0.3446
 7994TIP3    H248178   1.517   4.258   6.739  0.0880  0.3968 -0.0194
 7995TIP3   OH248179   0.954   4.076   6.467 -0.1000  0.3937 -0.0039
 7995TIP3    H148180   1.044   4.068   6.436  0.1652  1.3991  0.4782
 7995TIP3    H248181   0.933   3.989   6.502  0.7744  0.2230  0.1179
 7996TIP3   OH248182   5.209   0.508   8.420  0.4323 -0.0533  0.1108
 7996TIP3    H148183   5.168   0.447   8.358  0.1488  0.7522 -0.5065
 7996TIP3    H248184   5.302   0.499   8.403  0.4451 -0.8868  0.5685
 7997TIP3   OH248185   0.217   4.415   7.264 -0.3726 -0.2731  0.8532
 7997TIP3    H148186   0.256   4.456   7.341 -0.1887  0.0134  0.6098
 7997TIP3    H248187   0.129   4.453   7.259  0.3418  1.3572 -0.2969
 7998TIP3   OH248188   3.509   3.548   6.372 -0.5888 -0.3452 -0.8510
 7998TIP3    H148189   3.423   3.543   6.413 -0.4866 -2.0185 -0.7693
 7998TIP3    H248190   3.519   3.465   6.326  0.8742 -0.0741 -1.0886
 7999TIP3   OH248191   0.932   4.436   8.321 -0.3760  0.3148 -0.0872
 7999TIP3    H148192   0.874   4.431   8.397  0.9626  2.9371  1.2303
 7999TIP3    H248193   1.013   4.395   8.350  0.3798  1.9413  0.2384
 8000TIP3   OH248194   4.144   0.315   8.198  0.1748 -0.7152 -0.1640
 8000TIP3    H148195   4.091   0.256   8.252 -0.1366  1.2909  1.8683
 8000TIP3    H248196   4.229   0.317   8.240  0.7786 -1.1051 -1.3125
 8001TIP3   OH248197   0.607   6.671   9.113  0.2489  0.3546  0.2585
 8001TIP3    H148198   0.635   6.654   9.203 -2.6993 -1.6707  0.9407
 8001TIP3    H248199   0.588   6.585   9.077 -3.3747  1.3089 -0.5390
 8002TIP3   OH248200   3.265   3.986   7.295 -0.5739  0.2298  0.0629
 8002TIP3    H148201   3.313   3.953   7.371 -0.3333  0.5156  0.0336
 8002TIP3    H248202   3.311   3.950   7.220  0.2014  1.3128  0.0042
 8003TIP3   OH248203   2.169   1.352   7.420  0.7136 -0.1537  0.1227
 8003TIP3    H148204   2.101   1.287   7.403  1.3565 -0.7004 -0.4367
 8003TIP3    H248205   2.131   1.411   7.484  0.0500 -0.9809  0.5026
 8004TIP3   OH248206   2.702   6.099   9.192 -0.3896  0.2952  0.2668
 8004TIP3    H148207   2.730   6.045   9.118  1.2437  0.8695  0.4282
 8004TIP3    H248208   2.621   6.058   9.223 -0.1147 -1.0198 -0.6899
 8005TIP3   OH248209   5.959   2.244   9.843  0.1450  0.4082  0.0108
 8005TIP3    H148210   6.034   2.247   9.903  0.3613 -0.9564 -0.1565
 8005TIP3    H248211   5.998   2.252   9.756  0.0199  0.4038 -0.0457
 8006TIP3   OH248212   5.778   3.155   7.927  0.6403 -0.4050 -0.0384
 8006TIP3    H148213   5.686   3.150   7.953  0.7665 -0.1362  0.4714
 8006TIP3    H248214   5.802   3.247   7.939  1.5875 -0.8721  1.9991
 8007TIP3   OH248215   6.692   3.491  10.174 -0.7097  0.0460 -0.2072
 8007TIP3    H148216   6.639   3.526  10.245 -1.3331  0.1679 -0.7276
 8007TIP3    H248217   6.635   3.493  10.097 -0.6213 -1.6538 -0.3646
 8008TIP3   OH248218   3.501   6.320   9.960 -0.1876 -0.2648  0.0825
 8008TIP3    H148219   3.459   6.404   9.940 -1.3989 -1.0085 -0.5728
 8008TIP3    H248220   3.551   6.337  10.040  0.7779  1.4626 -0.8157
 8009TIP3   OH248221   4.822   4.589   9.679  0.3046 -0.3088  0.2310
 8009TIP3    H148222   4.888   4.613   9.744  0.4721  1.2391 -0.4657
 8009TIP3    H248223   4.747   4.645   9.699  0.4228  0.3161 -1.0031
 8010TIP3   OH248224   0.814   2.661   9.610 -0.0526 -0.1994  0.2626
 8010TIP3    H148225   0.760   2.629   9.682 -1.3287 -0.5560 -0.7994
 8010TIP3    H248226   0.791   2.753   9.601 -2.3254 -0.8386 -1.6341
 8011TIP3   OH248227   5.919   2.973  10.097  0.0080 -0.3803 -0.2422
 8011TIP3    H148228   5.862   2.939  10.029  0.5237 -0.3735 -0.6918
 8011TIP3    H248229   6.008   2.955  10.064  0.2865 -2.0519  1.2681
 8012TIP3   OH248230   4.707   6.438   7.661 -0.6088  0.2671  0.7967
 8012TIP3    H148231   4.657   6.450   7.581  1.0719  0.2150 -0.3015
 8012TIP3    H248232   4.656   6.484   7.728 -0.6713  2.7989 -0.8466
 8013TIP3   OH248233   4.010   3.138   9.833  0.1158  0.1246  0.1719
 8013TIP3    H148234   3.941   3.110   9.893 -0.6049  1.8414  0.1894
 8013TIP3    H248235   3.977   3.113   9.746  0.2975 -0.6451  0.3139
 8014TIP3   OH248236   5.509   0.508   8.378 -0.4627 -0.3228 -0.6292
 8014TIP3    H148237   5.567   0.543   8.445  0.3582  1.8861 -2.3848
 8014TIP3    H248238   5.518   0.413   8.386  0.8534 -0.1002  1.2660
 8015TIP3   OH248239   1.992   3.842   6.704 -0.1906 -0.2657 -0.3344
 8015TIP3    H148240   1.959   3.842   6.794  0.5296 -0.9570 -0.0627
 8015TIP3    H248241   2.044   3.923   6.698  0.3959 -0.6060  0.1136
 8016TIP3   OH248242   4.185   1.229   9.222 -0.1404 -0.5227  0.6656
 8016TIP3    H148243   4.269   1.273   9.204 -1.2934  1.1863 -0.9227
 8016TIP3    H248244   4.200   1.182   9.304  2.6624 -1.1105 -0.0757
 8017TIP3   OH248245   5.139   3.872   7.899 -0.2484  0.0548  0.0750
 8017TIP3    H148246   5.071   3.806   7.886  1.5639 -1.8363 -0.2493
 8017TIP3    H248247   5.168   3.894   7.810  0.9497 -0.6974  0.2603
 8018TIP3   OH248248   6.104   0.217   8.209  0.2281  0.6803  0.1926
 8018TIP3    H148249   6.126   0.242   8.119  1.3602 -0.2482  0.1893
 8018TIP3    H248250   6.021   0.261   8.226 -0.2358  0.5094 -1.4566
 8019TIP3   OH248251   1.239   4.482   8.027  0.6235 -0.3572  0.1249
 8019TIP3    H148252   1.153   4.450   7.998 -0.2009  0.0111  2.0191
 8019TIP3    H248253   1.298   4.462   7.954 -0.3904 -3.5539  0.0533
 8020TIP3   OH248254   6.053   4.433   9.098  0.1700 -0.4036  0.4791
 8020TIP3    H148255   6.082   4.342   9.088 -0.7077 -0.5584 -0.8783
 8020TIP3    H248256   5.961   4.426   9.125  0.0680  0.0770  0.2713
 8021TIP3   OH248257   4.019   1.575   6.592 -0.1113  0.0033  0.0508
 8021TIP3    H148258   4.028   1.496   6.645 -0.1545  0.5773  0.9274
 8021TIP3    H248259   3.932   1.608   6.612  0.0126  0.4297 -0.1071
 8022TIP3   OH248260   2.153   1.395   6.700  0.1465 -0.1803  0.3770
 8022TIP3    H148261   2.104   1.475   6.683 -0.2212 -0.4780  0.0060
 8022TIP3    H248262   2.219   1.420   6.764  0.0926  0.4389  0.1944
 8023TIP3   OH248263   1.189   0.946   7.965 -0.1873  0.2681 -0.1835
 8023TIP3    H148264   1.226   1.035   7.968 -0.7653  0.5129 -0.2788
 8023TIP3    H248265   1.131   0.943   8.041  0.0321 -0.1204 -0.0303
 8024TIP3   OH248266   3.803   2.854   8.929 -0.0335 -0.9976 -0.0555
 8024TIP3    H148267   3.744   2.853   8.854  0.3863  2.6912 -0.6619
 8024TIP3    H248268   3.746   2.848   9.005 -1.3625  2.1213 -0.6303
 8025TIP3   OH248269   4.393   2.666  10.256 -0.0973 -0.5885 -0.1801
 8025TIP3    H148270   4.357   2.581  10.281 -0.1743 -0.6023 -0.3352
 8025TIP3    H248271   4.454   2.688  10.326  0.9397 -1.4078 -0.8034
 8026TIP3   OH248272   0.849   2.948   7.528 -0.0498  0.4744 -0.4868
 8026TIP3    H148273   0.826   2.866   7.571  0.1870 -0.7263 -2.5437
 8026TIP3    H248274   0.847   3.013   7.599 -0.4349 -1.2342  1.1569
 8027TIP3   OH248275   1.801   5.540   7.176  0.3883  0.5905  0.0603
 8027TIP3    H148276   1.877   5.597   7.184  0.7073 -0.0069  1.6426
 8027TIP3    H248277   1.749   5.559   7.255 -0.2813 -0.1685 -0.1897
 8028TIP3   OH248278   1.017   4.886  10.279 -0.2649  0.0667 -0.1455
 8028TIP3    H148279   0.924   4.874  10.261 -0.4212  0.6685  0.2230
 8028TIP3    H248280   1.021   4.968  10.328  0.3144 -0.6184  1.0059
 8029TIP3   OH248281   3.005   3.301   6.889 -0.2678 -0.2497 -0.0673
 8029TIP3    H148282   2.929   3.356   6.906 -1.1564 -1.4826  0.1315
 8029TIP3    H248283   2.986   3.259   6.805  0.1280 -0.6506  0.0369
 8030TIP3   OH248284   0.376   1.682   9.341 -0.0716 -0.5331 -0.3287
 8030TIP3    H148285   0.472   1.681   9.336 -0.1315 -0.9508 -3.8239
 8030TIP3    H248286   0.352   1.774   9.328 -0.1117 -0.6531 -1.2241
 8031TIP3   OH248287   1.043   0.348   8.496 -0.3847 -0.6337 -0.9615
 8031TIP3    H148288   1.040   0.431   8.448  0.6974  0.8724  1.3854
 8031TIP3    H248289   1.134   0.319   8.489  0.4176  0.8242  1.9039
 8032TIP3   OH248290   5.540   6.224   7.077  0.0941 -0.3914  0.0576
 8032TIP3    H148291   5.627   6.206   7.113  0.3603 -0.6497 -0.6965
 8032TIP3    H248292   5.480   6.207   7.149  0.6792 -0.1151  0.6157
 8033TIP3   OH248293   5.219   5.290   9.261  0.0864 -0.0921 -0.0845
 8033TIP3    H148294   5.143   5.348   9.261  0.5183  0.5149 -1.3562
 8033TIP3    H248295   5.288   5.342   9.220  1.1857 -0.6410  1.0063
 8034TIP3   OH248296   2.763   6.417   8.821  0.2015 -0.3844 -0.4902
 8034TIP3    H148297   2.723   6.337   8.788 -0.5934 -1.4120  2.6151
 8034TIP3    H248298   2.858   6.400   8.815  0.0770 -0.7755 -1.5338
 8035TIP3   OH248299   1.165   5.956   9.927 -0.1802 -0.0754 -0.8543
 8035TIP3    H148300   1.087   5.999   9.893  0.9745  0.4190 -3.0836
 8035TIP3    H248301   1.153   5.864   9.906 -1.3391 -0.4690  1.2904
 8036TIP3   OH248302   0.642   1.418   9.408 -0.9448  0.6334  0.2811
 8036TIP3    H148303   0.635   1.369   9.490  0.3168  0.4504  0.2940
 8036TIP3    H248304   0.670   1.353   9.344 -0.5641  1.0644  0.0085
 8037TIP3   OH248305   1.263   3.982   6.447 -0.1176 -0.3279 -0.2747
 8037TIP3    H148306   1.293   4.012   6.361  2.0834  0.7507  0.7869
 8037TIP3    H248307   1.325   3.912   6.470 -0.7388 -0.6649  0.4169
 8038TIP3   OH248308   1.187   6.149   7.246  0.1492 -0.5174 -0.1454
 8038TIP3    H148309   1.268   6.162   7.197  0.7161 -1.3505  0.5465
 8038TIP3    H248310   1.174   6.232   7.294  0.8803 -0.5691  0.1529
 8039TIP3   OH248311   5.881   3.514   8.201  0.3383 -1.0249  0.3337
 8039TIP3    H148312   5.818   3.585   8.184 -0.1894 -1.3977  0.6884
 8039TIP3    H248313   5.891   3.470   8.117  1.1847 -0.1246 -0.0490
 8040TIP3   OH248314   5.585   3.230   6.872  0.1480 -0.4711  0.0843
 8040TIP3    H148315   5.631   3.262   6.950 -1.5459 -0.6638  1.2239
 8040TIP3    H248316   5.605   3.137   6.869 -1.7228 -1.0173  1.8184
 8041TIP3   OH248317   1.314   1.556   7.171  0.0793 -0.9508  0.1659
 8041TIP3    H148318   1.233   1.522   7.133 -0.0815 -0.8463  0.4141
 8041TIP3    H248319   1.310   1.650   7.154  0.3853 -1.0107 -0.2592
 8042TIP3   OH248320   5.280   0.176   6.222  0.0974  0.6100 -0.9230
 8042TIP3    H148321   5.351   0.126   6.182 -0.1512 -0.3250 -0.2312
 8042TIP3    H248322   5.310   0.267   6.219  1.6282  0.1585 -0.0353
 8043TIP3   OH248323   0.540   4.360   9.953  0.6065 -0.0299 -0.1005
 8043TIP3    H148324   0.572   4.375   9.864 -0.9488  0.8483 -0.5568
 8043TIP3    H248325   0.528   4.447   9.990 -0.6833 -0.3197  0.2251
 8044TIP3   OH248326   4.659   0.985   7.019  0.1271 -0.2068 -0.1580
 8044TIP3    H148327   4.563   0.992   7.023  0.0286 -1.0549 -0.9176
 8044TIP3    H248328   4.687   1.070   6.985 -0.3378  0.1092  0.2216
 8045TIP3   OH248329   4.404   4.441   7.955  0.7297  0.7742 -0.4915
 8045TIP3    H148330   4.482   4.485   7.922  2.3291 -0.5867  1.2662
 8045TIP3    H248331   4.388   4.480   8.041 -0.2286  0.6575 -0.5974
 8046TIP3   OH248332   1.165   0.764   8.487  0.4030  0.5133 -0.3010
 8046TIP3    H148333   1.260   0.758   8.486  0.3878  0.2314 -1.0196
 8046TIP3    H248334   1.146   0.845   8.534  1.0878  1.7421 -2.0153
 8047TIP3   OH248335   0.816   6.757   8.941  0.8210  0.4080 -0.5043
 8047TIP3    H148336   0.862   6.810   9.006  1.6604 -1.1140  0.2208
 8047TIP3    H248337   0.724   6.765   8.964  0.9908  1.0247 -0.0154
 8048TIP3   OH248338   3.047   6.499   9.385 -0.2584 -0.2618  0.9668
 8048TIP3    H148339   3.022   6.407   9.373 -0.7968  0.0361 -0.3771
 8048TIP3    H248340   2.972   6.548   9.352  0.2993  0.6661  1.0493
 8049TIP3   OH248341   6.710   6.531   7.672 -0.5536 -0.1200 -0.0912
 8049TIP3    H148342   6.679   6.575   7.593  0.4066 -1.1023 -1.0448
 8049TIP3    H248343   6.665   6.447   7.672 -0.9053  0.0643  0.6672
 8050TIP3   OH248344   4.197   1.599   9.124 -0.9117 -0.5407 -0.3003
 8050TIP3    H148345   4.207   1.503   9.123 -0.8644 -0.5347 -1.0178
 8050TIP3    H248346   4.275   1.632   9.081  0.4309 -0.0072  2.3679
 8051TIP3   OH248347   1.164   1.328   8.878 -0.5835  0.1103  0.3906
 8051TIP3    H148348   1.072   1.342   8.902 -0.3191  0.2041  1.3601
 8051TIP3    H248349   1.165   1.339   8.783 -1.4605  0.7496  0.4389
 8052TIP3   OH248350   4.344   5.183   9.965 -0.1989 -0.2480  0.3626
 8052TIP3    H148351   4.429   5.143   9.981 -0.4906 -1.9144 -1.7461
 8052TIP3    H248352   4.362   5.251   9.900 -0.5697 -1.3180 -0.9028
 8053TIP3   OH248353   5.968   0.807   8.737  0.3501 -0.1018 -0.2579
 8053TIP3    H148354   6.018   0.728   8.758  1.3025  0.6432  0.3494
 8053TIP3    H248355   5.903   0.814   8.806  0.1261 -0.4694 -0.4310
 8054TIP3   OH248356   3.497   1.908   8.105 -0.6259  0.1093  0.4027
 8054TIP3    H148357   3.573   1.905   8.162 -0.8685 -1.0437  0.6990
 8054TIP3    H248358   3.424   1.931   8.162 -0.9293 -1.3921  0.6628
 8055TIP3   OH248359   1.869   3.125   9.156  0.1134 -0.3204 -0.0991
 8055TIP3    H148360   1.805   3.160   9.095 -0.4776  2.0472  1.7368
 8055TIP3    H248361   1.832   3.042   9.186  0.0406 -1.1148 -2.2538
 8056TIP3   OH248362   1.248   0.506   6.543  0.8978  0.3710  0.1434
 8056TIP3    H148363   1.155   0.507   6.520  0.6278 -1.0161  1.0591
 8056TIP3    H248364   1.290   0.555   6.472 -0.2333 -1.1620 -1.7174
 8057TIP3   OH248365   5.270   2.329   7.722  0.0828 -0.1126 -0.1185
 8057TIP3    H148366   5.259   2.244   7.680  1.2530 -0.9280  1.1580
 8057TIP3    H248367   5.298   2.387   7.651  1.7990 -1.3949 -0.5498
 8058TIP3   OH248368   4.720   1.284   7.922  0.4100  0.3381 -0.1292
 8058TIP3    H148369   4.651   1.273   7.857  0.6262 -0.1872 -0.2698
 8058TIP3    H248370   4.777   1.208   7.910 -0.4739 -0.7028  1.8214
 8059TIP3   OH248371   3.716   5.231   8.283  0.5625 -0.0401 -0.1853
 8059TIP3    H148372   3.637   5.226   8.229  1.0709 -0.0116 -0.9465
 8059TIP3    H248373   3.787   5.212   8.223  1.2431  1.0588  0.2422
 8060TIP3   OH248374   0.940   4.414   8.891  0.0809 -0.1220  0.7799
 8060TIP3    H148375   0.862   4.366   8.864  0.1269 -0.2651  0.8983
 8060TIP3    H248376   0.980   4.358   8.957 -0.2983  0.4418  1.5102
 8061TIP3   OH248377   1.752   2.627  10.391  0.1183 -0.1169  0.2358
 8061TIP3    H148378   1.810   2.693  10.355 -1.0707  0.1587 -1.2882
 8061TIP3    H248379   1.684   2.676  10.437 -0.6220 -0.2622 -0.6749
 8062TIP3   OH248380   0.238   1.524   6.340 -0.1628 -0.7056 -0.2931
 8062TIP3    H148381   0.147   1.534   6.366 -0.5890 -0.1212 -1.8959
 8062TIP3    H248382   0.276   1.611   6.352  0.4256 -1.1254  1.1238
 8063TIP3   OH248383   0.884   0.350   6.378  0.0699 -0.0032 -0.2525
 8063TIP3    H148384   0.915   0.437   6.404 -1.4982  0.2359  0.9654
 8063TIP3    H248385   0.861   0.359   6.285 -1.0541  1.2129  0.1095
 8064TIP3   OH248386   2.801   1.783   6.987  0.0890  0.1750 -0.7552
 8064TIP3    H148387   2.815   1.878   6.987 -0.0336  0.1932 -0.8279
 8064TIP3    H248388   2.751   1.766   7.066 -1.2727  0.3789 -1.5404
 8065TIP3   OH248389   6.649   5.042   8.440  0.2778  0.4057 -0.4737
 8065TIP3    H148390   6.593   5.051   8.518  0.2542  2.0945 -0.6511
 8065TIP3    H248391   6.738   5.046   8.475  0.2741 -0.0361 -0.4138
 8066TIP3   OH248392   4.617   4.040   6.824  0.2037 -0.3971  0.3453
 8066TIP3    H148393   4.671   3.982   6.877 -0.1579 -0.3895  0.7344
 8066TIP3    H248394   4.635   4.127   6.859  2.3567  0.0224 -1.6224
 8067TIP3   OH248395   2.613   5.932   6.647  0.1657  0.0478 -0.8482
 8067TIP3    H148396   2.638   5.844   6.674  0.2817  0.2160 -0.3868
 8067TIP3    H248397   2.649   5.942   6.559 -0.1810 -0.5004 -1.0553
 8068TIP3   OH248398   4.338   2.798   7.580 -0.0497 -0.2248  0.0999
 8068TIP3    H148399   4.348   2.706   7.606  0.9168  0.5238  2.7182
 8068TIP3    H248400   4.245   2.808   7.561 -0.0705 -1.8501 -0.8048
 8069TIP3   OH248401   1.299   2.548   7.081  0.0869 -0.3022 -0.1524
 8069TIP3    H148402   1.376   2.603   7.095  0.6944 -1.2771  0.4376
 8069TIP3    H248403   1.246   2.560   7.161 -1.5084  2.0627 -1.4373
 8070TIP3   OH248404   0.824   1.332   6.559  0.4737  0.0569  0.6489
 8070TIP3    H148405   0.899   1.384   6.528  0.6183 -0.4054  0.1889
 8070TIP3    H248406   0.856   1.289   6.638  0.1335  1.1797  1.4069
 8071TIP3   OH248407   4.041   3.150   6.637 -0.2465  0.1065 -0.1303
 8071TIP3    H148408   3.973   3.215   6.650 -0.6292 -0.5094  1.1556
 8071TIP3    H248409   4.045   3.137   6.542 -1.2923  0.8020 -0.2818
 8072TIP3   OH248410   5.852   2.958   8.647  0.4704 -0.1611 -0.3877
 8072TIP3    H148411   5.901   2.881   8.617  0.3480 -0.0019 -1.0157
 8072TIP3    H248412   5.905   3.033   8.620  0.0297  0.0045 -0.8239
 8073TIP3   OH248413   1.984   1.679   9.042 -0.1435 -0.2198 -0.0598
 8073TIP3    H148414   1.895   1.676   9.078 -0.0360 -1.4432  0.1342
 8073TIP3    H248415   1.994   1.769   9.012 -1.6041 -0.1649 -0.4728
 8074TIP3   OH248416   5.868   0.403   7.886  0.3243  0.0993  0.2716
 8074TIP3    H148417   5.875   0.329   7.825 -3.2640  0.1777 -0.4922
 8074TIP3    H248418   5.928   0.469   7.851  2.3798 -1.7734  0.0182
 8075TIP3   OH248419   1.442   6.258   8.263 -0.2963 -0.5001  0.1592
 8075TIP3    H148420   1.536   6.243   8.278 -0.1586 -0.0763 -0.2346
 8075TIP3    H248421   1.414   6.184   8.209  0.0804 -0.0371 -0.6912
 8076TIP3   OH248422   0.681   0.990   8.998  0.1684 -0.0091  0.1869
 8076TIP3    H148423   0.672   1.041   9.079 -0.5879 -0.3157  0.3017
 8076TIP3    H248424   0.715   0.906   9.027  0.4699  0.0850  0.1104
 8077TIP3   OH248425   0.793   3.076   8.470 -0.1579 -0.6040  0.1872
 8077TIP3    H148426   0.869   3.131   8.489  1.0081 -1.9092 -0.4844
 8077TIP3    H248427   0.750   3.062   8.554  1.2357 -1.0875  0.8339
 8078TIP3   OH248428   5.321   1.762   6.870  0.1965 -0.2813  0.0414
 8078TIP3    H148429   5.341   1.852   6.896 -1.4211  0.2213 -0.3233
 8078TIP3    H248430   5.294   1.769   6.778  0.1641 -1.1518 -0.0227
 8079TIP3   OH248431   1.602   0.103   8.249  0.2719 -0.6469  0.1339
 8079TIP3    H148432   1.667   0.080   8.315  0.7542  1.6268  0.5501
 8079TIP3    H248433   1.518   0.081   8.290  0.6524 -1.0258  0.7311
 8080TIP3   OH248434   4.950   2.598   9.422  0.3425 -0.1588  0.6159
 8080TIP3    H148435   5.024   2.559   9.469  0.4694  1.2717  1.6808
 8080TIP3    H248436   4.881   2.605   9.488  0.2168  1.0519  0.3762
 8081TIP3   OH248437   1.989   6.038   6.483 -0.1302  0.3554  0.2068
 8081TIP3    H148438   1.898   6.055   6.459  0.0673  1.5002  0.2223
 8081TIP3    H248439   2.019   6.120   6.524  0.8142 -0.1116  0.4807
 8082TIP3   OH248440   5.614   0.058   7.114 -0.0921 -0.3729  0.6121
 8082TIP3    H148441   5.542   0.040   7.174 -0.8910  0.9885  0.1203
 8082TIP3    H248442   5.610   0.153   7.100 -0.0845 -0.6625 -1.7584
 8083TIP3   OH248443   3.913   4.270   6.766 -0.0421  0.0017 -0.0644
 8083TIP3    H148444   3.861   4.297   6.841 -0.9333  0.8027 -0.9580
 8083TIP3    H248445   3.892   4.332   6.697  0.5030 -0.9187 -1.1009
 8084TIP3   OH248446   5.531   2.265   7.790 -0.4845 -0.2588  0.2908
 8084TIP3    H148447   5.573   2.265   7.876 -1.8691  2.8055  1.1399
 8084TIP3    H248448   5.437   2.261   7.809 -0.8341  0.8370 -1.0273
 8085TIP3   OH248449   5.757   5.712   7.546 -0.0516  0.6290 -0.1932
 8085TIP3    H148450   5.668   5.743   7.562  0.2729  0.9022  1.2818
 8085TIP3    H248451   5.813   5.783   7.577  0.6839 -0.5201  1.2875
 8086TIP3   OH248452   2.687   2.882   8.910 -0.2546  0.0017 -0.0537
 8086TIP3    H148453   2.691   2.888   9.005  0.4613  0.3056 -0.0949
 8086TIP3    H248454   2.694   2.972   8.879  1.3896 -0.2170 -0.4332
 8087TIP3   OH248455   4.364   3.682   8.236  0.1359 -0.3670  0.2790
 8087TIP3    H148456   4.405   3.768   8.234  0.8569 -0.6261  1.8184
 8087TIP3    H248457   4.272   3.699   8.253  0.2279  0.1167  0.3052
 8088TIP3   OH248458   6.699   6.550   7.930 -0.1300 -0.2964  0.3406
 8088TIP3    H148459   6.731   6.543   7.840 -1.3047  0.7471 -0.2017
 8088TIP3    H248460   6.691   6.644   7.945  0.3615 -0.4512  1.6686
 8089TIP3   OH248461   3.786   5.740   7.423 -0.3295  0.3274 -0.5968
 8089TIP3    H148462   3.872   5.738   7.381  2.2518  2.1916  3.9214
 8089TIP3    H248463   3.754   5.829   7.407 -0.4756  0.2783 -0.5821
 8090TIP3   OH248464   1.386   6.579   7.283  0.3271  1.0342  0.0335
 8090TIP3    H148465   1.454   6.537   7.336 -1.6177  1.0722  2.7998
 8090TIP3    H248466   1.423   6.664   7.260  2.0609  0.1660 -0.5795
 8091TIP3   OH248467   2.342   6.374   8.033  0.2330  0.2677 -0.4100
 8091TIP3    H148468   2.382   6.411   8.111  1.7676 -0.2508 -0.9244
 8091TIP3    H248469   2.260   6.335   8.064  0.0943  1.3620  0.6636
 8092TIP3   OH248470   3.713   0.505   6.877 -0.5723  0.0239 -0.1401
 8092TIP3    H148471   3.746   0.515   6.788 -1.2309 -0.3287 -0.4300
 8092TIP3    H248472   3.698   0.411   6.886  0.0500 -0.0228  0.5524
 8093TIP3   OH248473   6.667   6.656   6.976  0.3832  0.2686  0.1627
 8093TIP3    H148474   6.711   6.707   7.044  1.2632 -2.0590  1.4362
 8093TIP3    H248475   6.578   6.646   7.008  0.3226  0.6122  0.1119
 8094TIP3   OH248476   2.082   0.456   8.619 -0.4556 -0.2814  1.4370
 8094TIP3    H148477   2.090   0.361   8.623  0.5691 -0.2651  0.2371
 8094TIP3    H248478   2.061   0.475   8.527 -2.0852  0.5799  1.9328
 8095TIP3   OH248479   5.526   4.851   7.403 -0.3404 -0.5166  0.1410
 8095TIP3    H148480   5.476   4.824   7.326 -0.0262  1.4057 -0.7899
 8095TIP3    H248481   5.494   4.938   7.424  1.9908  0.4590  0.0180
 8096TIP3   OH248482   6.627   2.061   6.433  0.0057 -0.1738 -0.8306
 8096TIP3    H148483   6.649   2.105   6.351  0.5759  2.0201  0.3894
 8096TIP3    H248484   6.710   2.060   6.482 -1.0629  2.4272  1.3096
 8097TIP3   OH248485   2.567   2.301   9.676  0.2339 -0.1735  0.0429
 8097TIP3    H148486   2.530   2.260   9.754  0.9372 -0.1910  0.3718
 8097TIP3    H248487   2.491   2.335   9.628 -0.0832  1.8715  1.8770
 8098TIP3   OH248488   6.362   5.556   8.284 -0.2686  0.1179  0.1894
 8098TIP3    H148489   6.372   5.628   8.346  0.7868  0.7789 -0.7089
 8098TIP3    H248490   6.413   5.485   8.321 -0.0957  0.3329  0.3698
 8099TIP3   OH248491   4.188   3.560  10.750 -0.5661 -0.5158 -0.0749
 8099TIP3    H148492   4.184   3.490  10.685  1.0342 -0.0235 -0.7450
 8099TIP3    H248493   4.184   3.641  10.699 -0.8247 -0.1095  0.5716
 8100TIP3   OH248494   0.504   0.359   8.135  0.5187 -0.1157 -0.1351
 8100TIP3    H148495   0.518   0.304   8.212 -0.8674 -1.2663 -0.6319
 8100TIP3    H248496   0.576   0.336   8.076  0.6375 -0.4961  0.1529
 8101TIP3   OH248497   3.575   2.197   8.994 -0.5261  0.6322  0.7016
 8101TIP3    H148498   3.558   2.105   8.977  0.1251  0.7558 -0.7120
 8101TIP3    H248499   3.638   2.198   9.066  2.0273 -0.1834 -1.3601
 8102TIP3   OH248500   5.751   3.215   8.753  0.2944  0.2677  0.2391
 8102TIP3    H148501   5.668   3.221   8.705  1.3655  0.4857 -1.6893
 8102TIP3    H248502   5.782   3.126   8.735  1.2048  0.6900 -0.3951
 8103TIP3   OH248503   1.896   0.624   6.548 -0.4341 -0.4528  0.3123
 8103TIP3    H148504   1.898   0.529   6.533 -1.6618 -0.4708  0.1079
 8103TIP3    H248505   1.984   0.654   6.525 -0.8635 -1.1099 -2.7094
 8104TIP3   OH248506   6.143   6.286   8.907  0.3883  0.7200  0.2266
 8104TIP3    H148507   6.236   6.309   8.907  0.3224  1.5092 -3.2738
 8104TIP3    H248508   6.139   6.201   8.950  3.1743 -0.6569 -1.9481
 8105TIP3   OH248509   6.732   1.623   7.965  0.2527  0.2431 -0.0682
 8105TIP3    H148510   6.805   1.628   7.903  2.0141  0.6745  1.9274
 8105TIP3    H248511   6.725   1.530   7.986 -0.8913 -0.0177 -1.4553
 8106TIP3   OH248512   6.449   5.383   9.400  0.0170 -0.4592 -0.1867
 8106TIP3    H148513   6.402   5.460   9.433 -0.4118 -0.8339  0.0969
 8106TIP3    H248514   6.484   5.411   9.315 -0.5030 -0.0873 -0.2863
 8107TIP3   OH248515   2.173   0.752   9.123  0.1210  0.5872 -0.0395
 8107TIP3    H148516   2.156   0.734   9.031 -0.6802  2.3194 -0.2761
 8107TIP3    H248517   2.264   0.782   9.126  0.3416 -0.0663 -0.1700
 8108TIP3   OH248518   5.282   0.936   7.213 -0.2136 -1.0867 -0.0291
 8108TIP3    H148519   5.267   0.995   7.140 -1.5610 -1.0532  0.2536
 8108TIP3    H248520   5.378   0.929   7.219  0.0104  1.1937  0.0376
 8109TIP3   OH248521   3.786   4.062  10.205  0.2083 -0.1462 -0.1202
 8109TIP3    H148522   3.878   4.075  10.183 -0.2464  1.1817 -1.3461
 8109TIP3    H248523   3.747   4.149  10.203 -1.5498 -0.8783 -1.8911
 8110TIP3   OH248524   5.615   2.636   8.515 -0.7378 -0.2627 -0.2100
 8110TIP3    H148525   5.616   2.716   8.462 -1.3686 -0.6771 -0.8562
 8110TIP3    H248526   5.666   2.573   8.465  0.5225 -0.0198  0.7220
 8111TIP3   OH248527   1.752   0.141   7.239 -0.1369  0.2773 -0.4566
 8111TIP3    H148528   1.714   0.164   7.154  1.9621 -0.2115 -1.6031
 8111TIP3    H248529   1.784   0.225   7.274 -1.3881  0.5494  0.1095
 8112TIP3   OH248530   1.151   0.117   8.728  0.0737 -0.3345  0.3759
 8112TIP3    H148531   1.209   0.193   8.725  0.6637 -0.8168 -0.8132
 8112TIP3    H248532   1.133   0.096   8.636 -0.4497 -1.3576  0.6943
 8113TIP3   OH248533   4.575   0.740   6.679 -0.1424  0.2981  0.0793
 8113TIP3    H148534   4.562   0.650   6.648 -0.1326  0.5926 -0.7841
 8113TIP3    H248535   4.594   0.730   6.773  2.2083 -0.7936 -0.4576
 8114TIP3   OH248536   5.687   6.477   7.988  0.3189  0.9139  0.3550
 8114TIP3    H148537   5.722   6.543   8.048  1.9516  1.1113 -0.7435
 8114TIP3    H248538   5.721   6.502   7.902 -0.0040 -0.6806 -0.2681
 8115TIP3   OH248539   2.879   3.316   9.232  0.0044  0.2872  0.1251
 8115TIP3    H148540   2.960   3.317   9.283  1.1940 -1.3908 -1.5554
 8115TIP3    H248541   2.819   3.374   9.279  1.6957  0.4523  2.2140
 8116TIP3   OH248542   2.199   3.553   8.403  0.0174 -0.2250  0.4425
 8116TIP3    H148543   2.201   3.467   8.444  0.0009  0.2442  1.4356
 8116TIP3    H248544   2.238   3.538   8.316 -2.0264 -1.6666 -0.2968
 8117TIP3   OH248545   3.028   6.382   8.797  0.4146 -0.2611 -0.1564
 8117TIP3    H148546   3.045   6.446   8.866  2.3301 -1.5487  0.6429
 8117TIP3    H248547   3.084   6.410   8.724  0.0268 -0.1207 -0.4023
 8118TIP3   OH248548   1.162   4.668   8.559 -0.1301 -0.0649 -0.3349
 8118TIP3    H148549   1.085   4.720   8.535  0.0739  0.1009 -0.6355
 8118TIP3    H248550   1.194   4.708   8.640 -1.2108 -1.0344  0.6124
 8119TIP3   OH248551   1.891   3.905   7.484  0.4728 -0.5171 -0.0580
 8119TIP3    H148552   1.928   3.904   7.572  1.4541  0.3422 -0.4367
 8119TIP3    H248553   1.964   3.933   7.427 -0.0743 -1.2737 -1.1733
 8120TIP3   OH248554   5.087   6.560   9.274 -0.0918 -0.1871  0.6018
 8120TIP3    H148555   5.038   6.558   9.356  0.6728  0.8251  1.1131
 8120TIP3    H248556   5.140   6.480   9.276 -0.3444 -0.3504  0.9245
 8121TIP3   OH248557   4.996   5.524   7.814 -0.6964  0.0171  0.2996
 8121TIP3    H148558   5.021   5.613   7.839  2.3656 -0.6670  0.1311
 8121TIP3    H248559   5.047   5.506   7.735 -0.1987 -2.3009  1.0518
 8122TIP3   OH248560   4.034   5.644  16.777 -0.3644  0.4741  0.3221
 8122TIP3    H148561   4.106   5.688  16.821 -1.2772  1.3649  0.9589
 8122TIP3    H248562   3.997   5.586  16.843  0.1775 -0.5090 -0.2079
 8123TIP3   OH248563   1.113   4.246   9.030  0.4995 -0.4877 -0.2735
 8123TIP3    H148564   1.203   4.225   9.054  0.7041  0.1789 -0.4481
 8123TIP3    H248565   1.071   4.161   9.018  0.7661 -0.8201  1.0342
 8124TIP3   OH248566   5.932   6.774   8.421  0.0866 -0.1406  0.3444
 8124TIP3    H148567   5.910   6.777   8.328 -0.9863  0.0183  0.5915
 8124TIP3    H248568   5.903   6.859   8.455  1.1596  0.1045  0.6865
 8125TIP3   OH248569   6.527   4.441   9.490  0.6314 -0.3811 -0.7878
 8125TIP3    H148570   6.462   4.483   9.434  0.0072 -1.1200 -0.6231
 8125TIP3    H248571   6.480   4.419   9.570  1.2283 -0.3966 -0.4328
 8126TIP3   OH248572   0.373   1.805   8.002  0.0722 -0.0122 -0.2305
 8126TIP3    H148573   0.298   1.856   7.972 -0.8730 -0.3386  1.4494
 8126TIP3    H248574   0.340   1.756   8.077  1.3990 -1.8577 -0.7929
 8127TIP3   OH248575   1.477   4.986   8.298  0.0032 -0.6371 -0.4258
 8127TIP3    H148576   1.466   5.080   8.286 -1.4396 -0.4593  1.7392
 8127TIP3    H248577   1.395   4.948   8.267 -0.5011 -0.8787  1.0959
 8128TIP3   OH248578   6.441   0.841   7.321  0.8125 -0.1755  0.2990
 8128TIP3    H148579   6.501   0.914   7.336  1.7692 -0.9676  0.4194
 8128TIP3    H248580   6.428   0.839   7.226 -1.4603  1.8607  0.4549
 8129TIP3   OH248581   4.463   1.110   8.004 -0.1073 -0.3274  0.7599
 8129TIP3    H148582   4.512   1.101   7.923 -1.4714 -0.0660 -0.1218
 8129TIP3    H248583   4.439   1.021   8.029  0.9017 -0.4708  1.2776
 8130TIP3   OH248584   6.689   5.611  10.061 -0.2975  0.1091  0.5035
 8130TIP3    H148585   6.644   5.529  10.044 -1.3931  0.8673 -0.4094
 8130TIP3    H248586   6.637   5.677  10.015  0.5718  1.3126  1.1882
 8131TIP3   OH248587   6.326   4.099   7.638 -0.0345  0.2726 -0.2886
 8131TIP3    H148588   6.236   4.120   7.663  0.0687 -0.2217  0.5513
 8131TIP3    H248589   6.379   4.141   7.706  0.3146 -0.2804 -0.2146
 8132TIP3   OH248590   2.598   1.444   6.686  0.4440  0.1930 -0.1163
 8132TIP3    H148591   2.539   1.470   6.615 -0.5144  1.8985  1.2314
 8132TIP3    H248592   2.680   1.422   6.642 -0.4555  0.1181 -1.8368
 8133TIP3   OH248593   2.872   1.844   8.408 -0.8028 -0.6023 -0.1553
 8133TIP3    H148594   2.880   1.845   8.504 -0.5744  0.3038 -0.1700
 8133TIP3    H248595   2.795   1.897   8.390  0.9220  1.9576 -0.5730
 8134TIP3   OH248596   5.322   2.857  15.394 -0.4972 -0.5675  0.5438
 8134TIP3    H148597   5.385   2.802  15.347 -0.1585  1.7271 -1.9715
 8134TIP3    H248598   5.366   2.880  15.476  1.3869 -0.1849 -0.5158
 8135TIP3   OH248599   5.561   2.734   7.448  0.8470 -0.2793 -0.0601
 8135TIP3    H148600   5.537   2.742   7.356 -0.2227 -0.0302  0.2293
 8135TIP3    H248601   5.657   2.745   7.448  1.2384 -2.8396 -1.4167
 8136TIP3   OH248602   5.677   4.934   9.046 -0.2500  0.8922 -0.2034
 8136TIP3    H148603   5.769   4.928   9.072 -0.1676  0.3234 -0.6036
 8136TIP3    H248604   5.631   4.958   9.127 -0.0264 -1.0825  0.5780
 8137TIP3   OH248605   2.297   5.098   6.997  0.5813 -0.0446 -0.1306
 8137TIP3    H148606   2.356   5.048   6.940  0.5581 -0.8384  0.5202
 8137TIP3    H248607   2.262   5.167   6.941  0.5612 -0.8069 -1.0815
 8138TIP3   OH248608   5.539   3.825   6.783 -0.3035  0.3277  0.5423
 8138TIP3    H148609   5.589   3.906   6.774 -2.6702  1.7735 -0.7120
 8138TIP3    H248610   5.495   3.815   6.698 -0.6679 -1.8754  0.9290
 8139TIP3   OH248611   4.379   4.621   6.978 -0.1337  0.2655 -0.2185
 8139TIP3    H148612   4.462   4.607   7.024 -0.5043  0.4107  0.5205
 8139TIP3    H248613   4.358   4.713   6.995  0.1481  0.5720 -1.4237
 8140TIP3   OH248614   4.615   3.658   8.791 -0.2831  0.1182  0.7469
 8140TIP3    H148615   4.699   3.703   8.801  0.0263 -0.3077  0.1413
 8140TIP3    H248616   4.570   3.673   8.874  0.7544 -0.4055  1.4335
 8141TIP3   OH248617   3.896   2.557   8.951  0.6641  0.2362  0.5033
 8141TIP3    H148618   3.935   2.489   8.896 -2.3712 -2.1581  1.0080
 8141TIP3    H248619   3.836   2.604   8.893 -1.1087 -1.0396  1.2005
 8142TIP3   OH248620   5.462   4.810   7.988 -0.3423 -0.2637  0.4412
 8142TIP3    H148621   5.512   4.735   8.022 -1.1330 -1.7746 -1.5338
 8142TIP3    H248622   5.378   4.772   7.963 -1.5540  1.7322  1.2983
 8143TIP3   OH248623   1.718   6.217   8.383 -0.1544 -0.1478  0.3838
 8143TIP3    H148624   1.696   6.270   8.459 -1.9501 -1.3262  0.7546
 8143TIP3    H248625   1.795   6.166   8.410  0.2501  0.6596  0.7869
 8144TIP3   OH248626   6.475   5.559   8.047  0.1838 -0.2226 -0.2820
 8144TIP3    H148627   6.408   5.572   8.114 -0.6372 -0.7860 -0.9652
 8144TIP3    H248628   6.435   5.496   7.986  0.5529  0.9397 -1.7668
 8145TIP3   OH248629   1.224   4.180   7.424 -0.0068 -0.1916 -0.1354
 8145TIP3    H148630   1.154   4.244   7.412 -0.4877 -0.5270  0.7851
 8145TIP3    H248631   1.280   4.191   7.347 -0.6919  0.5558 -0.5429
 8146TIP3   OH248632   4.089   6.250   6.891  0.3690  0.0964 -0.3312
 8146TIP3    H148633   4.143   6.203   6.828  0.4141  0.2033 -0.3721
 8146TIP3    H248634   4.071   6.185   6.959 -0.5590 -0.3308 -0.9707
 8147TIP3   OH248635   5.124   5.188   9.516 -0.7012 -0.3347  0.2215
 8147TIP3    H148636   5.143   5.221   9.429 -2.8673  0.6742  0.0604
 8147TIP3    H248637   5.046   5.132   9.504 -2.6272  1.8237  1.7763
 8148TIP3   OH248638   2.733   1.379   9.149 -0.4601 -0.0828  0.2644
 8148TIP3    H148639   2.670   1.387   9.220 -0.1397  0.2199  0.5173
 8148TIP3    H248640   2.775   1.464   9.144  2.9946 -1.3883  3.0003
 8149TIP3   OH248641   2.786   5.855   8.356  0.4214  0.1414  0.4583
 8149TIP3    H148642   2.732   5.781   8.385  0.2134 -0.8773 -2.2232
 8149TIP3    H248643   2.862   5.814   8.314  1.3060  1.5228  0.6363
 8150TIP3   OH248644   1.474   6.173   6.751  0.1268 -0.3118 -0.6454
 8150TIP3    H148645   1.407   6.112   6.780 -2.6459  2.4642 -0.5912
 8150TIP3    H248646   1.466   6.173   6.656 -0.6220  0.5823 -0.6085
 8151TIP3   OH248647   1.772   3.737   6.578  0.5598  0.1529  0.5739
 8151TIP3    H148648   1.754   3.779   6.662 -3.2461 -0.1311  0.0895
 8151TIP3    H248649   1.862   3.761   6.558  0.6383  2.7298  3.2898
 8152TIP3   OH248650   4.170   3.452   7.292  0.4911  0.1964 -0.1515
 8152TIP3    H148651   4.233   3.456   7.220  0.9075  3.6352  0.2250
 8152TIP3    H248652   4.219   3.480   7.369 -0.4757 -1.3545  1.0977
 8153TIP3   OH248653   3.903   6.748   7.209  0.1617  0.0492  0.1171
 8153TIP3    H148654   3.811   6.773   7.220  0.0801  0.4332 -1.3183
 8153TIP3    H248655   3.917   6.682   7.277 -0.4111  1.8733  2.0941
 8154TIP3   OH248656   3.023   0.343   7.635 -0.0495  0.5668 -0.4993
 8154TIP3    H148657   3.047   0.332   7.543  0.6693  1.4223 -0.4255
 8154TIP3    H248658   3.095   0.303   7.683  0.5061  1.7785 -0.2955
 8155TIP3   OH248659   3.237   1.927   9.819  0.4759 -0.0287  0.4522
 8155TIP3    H148660   3.161   1.940   9.876  0.3993  2.6327 -0.1207
 8155TIP3    H248661   3.304   1.984   9.856  0.8077  0.8306 -1.3593
 8156TIP3   OH248662   0.441   2.890   7.078  0.3539 -0.5209 -0.4193
 8156TIP3    H148663   0.383   2.891   7.155 -1.0961 -1.1328 -1.4621
 8156TIP3    H248664   0.478   2.802   7.077 -0.1836 -0.7442 -0.8164
 8157TIP3   OH248665   0.805   5.629   7.125 -0.1687 -0.1155  0.2313
 8157TIP3    H148666   0.740   5.654   7.190 -0.8572  1.0868 -0.8853
 8157TIP3    H248667   0.786   5.537   7.106  0.3766 -0.6684  2.0523
 8158TIP3   OH248668   6.681   1.835   7.414 -0.1485  0.5030 -0.2407
 8158TIP3    H148669   6.630   1.762   7.379 -2.4229  1.8439  0.0588
 8158TIP3    H248670   6.720   1.876   7.338  0.6867 -0.6521 -0.4641
 8159TIP3   OH248671   1.096   3.204   7.077  0.4139 -0.7661  0.4155
 8159TIP3    H148672   1.140   3.120   7.095  1.5903 -1.1449 -3.3805
 8159TIP3    H248673   1.002   3.184   7.086  0.6910 -2.3812  0.0268
 8160TIP3   OH248674   0.497   4.609  10.114 -0.0118 -0.1333 -0.2447
 8160TIP3    H148675   0.495   4.538  10.178 -0.9264 -0.0372 -0.1472
 8160TIP3    H248676   0.458   4.684  10.160 -0.3024  0.0501 -0.7763
 8161TIP3   OH248677   2.983   4.736   9.153  0.0754  0.1438  0.0326
 8161TIP3    H148678   2.998   4.810   9.211  1.9820 -0.3510  0.2429
 8161TIP3    H248679   2.968   4.662   9.212 -0.3106  0.0721 -0.1524
 8162TIP3   OH248680   6.206   0.245   7.950 -0.1613 -0.2620 -0.5827
 8162TIP3    H148681   6.267   0.291   7.893 -0.4276  1.3099  0.3282
 8162TIP3    H248682   6.200   0.157   7.914  2.5212 -0.4392 -0.7722
 8163TIP3   OH248683   2.329   4.528   6.439 -0.1440 -0.2702 -0.1474
 8163TIP3    H148684   2.267   4.480   6.384  0.2908 -0.6649 -0.2951
 8163TIP3    H248685   2.354   4.466   6.508  0.8424 -0.4594 -0.6575
 8164TIP3   OH248686   2.438   2.120   7.408 -0.0224  0.2681  0.2732
 8164TIP3    H148687   2.505   2.156   7.467 -0.0484  0.4137  0.2131
 8164TIP3    H248688   2.454   2.164   7.324  1.4085 -1.4826 -0.4546
 8165TIP3   OH248689   6.108   3.231   6.623 -0.1966  0.0257 -0.0082
 8165TIP3    H148690   6.200   3.203   6.625 -0.1578 -0.1855 -2.1508
 8165TIP3    H248691   6.071   3.186   6.547 -1.7732  1.0014  0.1368
 8166TIP3   OH248692   2.298   2.361   8.867 -0.0423  0.0408 -0.0848
 8166TIP3    H148693   2.204   2.378   8.866 -0.0969  0.3723  2.7185
 8166TIP3    H248694   2.308   2.288   8.928  1.4510 -0.8246 -1.2973
 8167TIP3   OH248695   1.507   5.670   8.050 -0.5684  0.4908 -0.3293
 8167TIP3    H148696   1.541   5.758   8.030  1.5444  0.2134  1.6207
 8167TIP3    H248697   1.438   5.685   8.115  0.4302  0.6942  0.7125
 8168TIP3   OH248698   4.204   6.062   8.401  0.4212 -0.0788 -0.1194
 8168TIP3    H148699   4.136   6.090   8.340 -1.7770 -2.3754  1.0512
 8168TIP3    H248700   4.260   6.004   8.350  0.9669  1.0718 -0.8616
 8169TIP3   OH248701   4.371   0.141   8.678 -0.0436  0.0230 -0.2262
 8169TIP3    H148702   4.337   0.149   8.767  0.6517  2.5624 -0.1397
 8169TIP3    H248703   4.292   0.131   8.624 -0.7679  2.1072  0.3501
 8170TIP3   OH248704   2.821   1.198   8.962 -0.5013  0.3432 -0.0602
 8170TIP3    H148705   2.792   1.259   8.894 -2.1746 -0.4854 -0.1337
 8170TIP3    H248706   2.790   1.237   9.044 -0.7321  0.0783 -0.0194
 8171TIP3   OH248707   0.769   0.181   7.668 -0.3490 -0.1459 -0.3607
 8171TIP3    H148708   0.781   0.229   7.587  0.2663 -2.5379 -1.7789
 8171TIP3    H248709   0.803   0.094   7.650 -0.2090 -0.7892  2.4738
 8172TIP3   OH248710   4.059   4.043   6.784 -0.0694 -0.5275  0.5407
 8172TIP3    H148711   4.150   4.065   6.765  0.2478 -1.6416  0.7125
 8172TIP3    H248712   4.013   4.127   6.783  1.0729  0.1228  1.0628
 8173TIP3   OH248713   2.756   0.382   8.945 -0.5120 -0.2709 -0.7971
 8173TIP3    H148714   2.725   0.327   8.873  2.9265 -2.7751 -0.5660
 8173TIP3    H248715   2.684   0.381   9.008 -1.4953 -2.5869 -1.8287
 8174TIP3   OH248716   4.370   3.467   6.617  0.1184 -0.0905  0.0286
 8174TIP3    H148717   4.297   3.502   6.565  0.2753 -0.5451 -0.5076
 8174TIP3    H248718   4.339   3.382   6.648 -0.4426  0.7004  1.7306
 8175TIP3   OH248719   1.268   0.219   7.196  0.0124  0.3522  0.1961
 8175TIP3    H148720   1.212   0.170   7.257  0.4029  0.8196  0.9490
 8175TIP3    H248721   1.213   0.292   7.167 -0.3719 -0.1877 -0.4779
 8176TIP3   OH248722   2.565   2.306   7.761  0.5246  0.2713  0.4334
 8176TIP3    H148723   2.565   2.376   7.827  0.5679  0.9459 -0.2638
 8176TIP3    H248724   2.510   2.340   7.690 -0.7645 -1.0617  0.7411
 8177TIP3   OH248725   2.007   6.480   8.657 -0.8399  0.2614  0.4925
 8177TIP3    H148726   2.027   6.469   8.749 -1.3084 -0.9713  0.4700
 8177TIP3    H248727   2.075   6.431   8.611 -1.6778 -0.7458  0.2796
 8178TIP3   OH248728   0.296   6.588   7.263 -0.9311  0.5752  0.1334
 8178TIP3    H148729   0.346   6.597   7.344 -0.6755  0.3868 -0.0028
 8178TIP3    H248730   0.344   6.640   7.198 -1.1493  0.7477  0.1086
 8179TIP3   OH248731   1.587   4.021   6.948 -0.1838  0.5699  0.4193
 8179TIP3    H148732   1.499   4.051   6.928  0.0569  0.6390 -0.6070
 8179TIP3    H248733   1.576   3.957   7.018 -1.0103  0.8135  0.5126
 8180TIP3   OH248734   4.818   5.513   8.264 -0.9202  0.2998  0.3494
 8180TIP3    H148735   4.802   5.606   8.247 -0.0001  0.6941  1.4970
 8180TIP3    H248736   4.761   5.492   8.338 -1.1327 -0.0557  0.0861
 8181TIP3   OH248737   3.255   5.652   7.958  0.2613  0.2723 -0.3177
 8181TIP3    H148738   3.279   5.658   7.866  1.2876 -3.6626 -0.4726
 8181TIP3    H248739   3.336   5.670   8.005  0.4245 -0.4014 -0.3287
 8182TIP3   OH248740   3.893   5.698   8.495  0.4868 -0.6730 -0.3283
 8182TIP3    H148741   3.856   5.619   8.455 -0.0353 -0.0572 -1.0969
 8182TIP3    H248742   3.817   5.752   8.517  0.8221 -0.5490  0.5646
 8183TIP3   OH248743   0.357   1.851   8.388  0.1891 -0.1906 -0.2502
 8183TIP3    H148744   0.366   1.940   8.355 -0.9960 -0.2392 -0.7941
 8183TIP3    H248745   0.438   1.807   8.362  0.9228  0.8110  0.3270
 8184TIP3   OH248746   3.063   1.930   7.254 -0.5102 -0.3440 -0.1606
 8184TIP3    H148747   3.104   1.970   7.330 -2.9607  0.3228  0.9115
 8184TIP3    H248748   3.077   1.836   7.266  0.8764 -0.1378 -0.0026
 8185TIP3   OH248749   6.450   1.972   9.545 -0.0185  0.3142  0.0520
 8185TIP3    H148750   6.500   2.041   9.590 -0.8976  0.2746  1.1292
 8185TIP3    H248751   6.480   1.891   9.586  1.3094 -0.0358 -1.4891
 8186TIP3   OH248752   1.224   1.063   8.681 -0.1425 -0.1613 -0.1603
 8186TIP3    H148753   1.234   1.158   8.674 -0.4090 -0.1728 -0.7380
 8186TIP3    H248754   1.311   1.028   8.663 -0.0638 -0.0347 -0.0301
 8187TIP3   OH248755   0.347   4.622   6.811  0.1061 -0.4883 -0.3383
 8187TIP3    H148756   0.330   4.548   6.752 -0.4259 -1.3782  0.8814
 8187TIP3    H248757   0.378   4.581   6.892  0.1316  0.6543  0.2407
 8188TIP3   OH248758   5.676   1.124   8.119 -0.4710  0.1647  0.0861
 8188TIP3    H148759   5.657   1.066   8.193 -0.8639  0.3171  0.1066
 8188TIP3    H248760   5.734   1.191   8.155 -1.8475  1.0964  0.6395
 8189TIP3   OH248761   6.074   6.750   8.854 -0.0964 -0.5139 -0.4692
 8189TIP3    H148762   6.059   6.825   8.797 -0.7757 -0.6518 -0.4811
 8189TIP3    H248763   6.170   6.740   8.857 -0.0267  0.0099 -0.9036
 8190TIP3   OH248764   0.884   4.039  10.049  0.1026  0.5821  0.1942
 8190TIP3    H148765   0.885   4.105   9.980 -0.4784  1.6378  1.1718
 8190TIP3    H248766   0.814   4.066  10.108  2.0150  1.0279  2.4361
 8191TIP3   OH248767   0.416   1.618   7.504  0.1759 -0.0516  0.5849
 8191TIP3    H148768   0.353   1.594   7.573  0.8599  1.6124  1.8780
 8191TIP3    H248769   0.492   1.651   7.552  0.0748  2.6906 -0.9385
 8192TIP3   OH248770   5.899   5.088   7.662 -0.1415  0.5021 -0.0076
 8192TIP3    H148771   5.982   5.045   7.642 -0.2180 -0.3797  1.4310
 8192TIP3    H248772   5.901   5.168   7.610  0.0375 -1.1455 -2.7397
 8193TIP3   OH248773   4.066   2.626   9.583 -0.1243 -0.0229  0.6159
 8193TIP3    H148774   4.031   2.624   9.494  0.6049  0.3948  0.3145
 8193TIP3    H248775   4.144   2.681   9.578  1.4007 -2.0143  0.9915
 8194TIP3   OH248776   6.268   4.426   8.334  0.1540 -0.2183  0.4250
 8194TIP3    H148777   6.193   4.428   8.274  0.6978  2.1121 -0.2727
 8194TIP3    H248778   6.279   4.334   8.355 -1.1962 -0.9103 -1.6220
 8195TIP3   OH248779   4.789   2.084   8.461  0.0753  0.0842 -0.0007
 8195TIP3    H148780   4.855   2.077   8.393  0.6583 -0.2158  0.5864
 8195TIP3    H248781   4.838   2.078   8.543 -0.5802  0.7310  0.4495
 8196TIP3   OH248782   1.016   6.263   8.918  0.1332 -0.5329 -0.3688
 8196TIP3    H148783   1.079   6.240   8.850  0.7636  2.0686 -0.7592
 8196TIP3    H248784   1.039   6.352   8.943 -0.8732 -0.9562  2.4043
 8197TIP3   OH248785   1.314   0.162   9.685 -0.3052 -0.2838  0.2224
 8197TIP3    H148786   1.242   0.111   9.650  0.1604  0.5412 -2.0641
 8197TIP3    H248787   1.393   0.118   9.654  0.1435  0.2542  0.5674
 8198TIP3   OH248788   0.668   3.784   9.039 -0.2014 -0.5456  0.4757
 8198TIP3    H148789   0.583   3.812   9.005 -0.0297 -1.6842 -0.9770
 8198TIP3    H248790   0.732   3.817   8.975  0.5370  0.7342  1.8104
 8199TIP3   OH248791   6.167   6.408   7.497 -0.3777  0.3225  0.0456
 8199TIP3    H148792   6.124   6.344   7.442 -0.7038  0.0209  0.6397
 8199TIP3    H248793   6.097   6.468   7.524 -0.3277  0.1617  0.5509
 8200TIP3   OH248794   3.884   5.297   7.043 -0.4850  0.3314 -0.2826
 8200TIP3    H148795   3.934   5.369   7.081 -0.1039 -0.0630 -0.0367
 8200TIP3    H248796   3.926   5.218   7.076 -0.0292 -0.0259 -1.6552
 8201TIP3   OH248797   4.834   0.003   8.094  0.4959  0.2474  0.2268
 8201TIP3    H148798   4.835   0.092   8.129 -0.4272  0.2213  0.3382
 8201TIP3    H248799   4.806   0.014   8.003  1.4904  0.1756 -0.0961
 8202TIP3   OH248800   5.487   4.902   8.539  0.0038  0.1138 -0.3139
 8202TIP3    H148801   5.401   4.872   8.509  0.8980 -1.4122 -1.5411
 8202TIP3    H248802   5.489   4.879   8.632 -0.7862 -0.1583 -0.3570
 8203TIP3   OH248803   4.907   2.925   8.149  0.1627  0.0035  0.0231
 8203TIP3    H148804   4.874   2.987   8.215  1.8569  0.1723  0.7448
 8203TIP3    H248805   4.953   2.858   8.199 -0.9782 -1.4905 -0.8089
 8204TIP3   OH248806   2.132   4.950   6.768  0.2134  0.2377 -0.0198
 8204TIP3    H148807   2.132   5.039   6.733  0.6315  0.1608 -0.2163
 8204TIP3    H248808   2.039   4.930   6.781  0.0735  0.4062 -0.7336
 8205TIP3   OH248809   3.237   5.593   6.959  0.3825  0.1039  0.0638
 8205TIP3    H148810   3.281   5.558   6.882 -1.4159 -0.9302 -0.5467
 8205TIP3    H248811   3.224   5.686   6.938  1.9188  0.3669  0.1334
 8206TIP3   OH248812   1.105   2.611   9.616  0.2788  0.9421  0.2349
 8206TIP3    H148813   1.103   2.647   9.705 -1.1025 -2.0063  1.5767
 8206TIP3    H248814   1.019   2.630   9.580 -0.2544 -0.3504  0.7404
 8207TIP3   OH248815   5.140   5.382   6.593  0.2227 -0.2473  0.2727
 8207TIP3    H148816   5.137   5.405   6.500 -0.7122 -1.8235 -0.1151
 8207TIP3    H248817   5.227   5.410   6.621  0.3893  0.5821 -0.9805
 8208TIP3   OH248818   4.019   0.591   8.355  0.2110  0.1054 -0.0212
 8208TIP3    H148819   4.023   0.501   8.323 -0.2194 -0.9877  2.7103
 8208TIP3    H248820   3.974   0.639   8.285  0.4223 -1.7656 -1.5496
 8209TIP3   OH248821   2.453   5.014   8.393 -0.2245 -0.1640 -0.2353
 8209TIP3    H148822   2.398   4.981   8.323 -0.8093 -0.0130  0.1484
 8209TIP3    H248823   2.521   4.948   8.403 -0.4423 -0.4430 -0.5824
 8210TIP3   OH248824   0.189   3.063   7.124  0.4099 -0.1890  0.3449
 8210TIP3    H148825   0.247   3.024   7.190 -0.1121  0.4016  1.1703
 8210TIP3    H248826   0.244   3.127   7.079 -0.0282  1.7108  2.3635
 8211TIP3   OH248827   3.608   4.028   8.118  0.1297 -0.2199 -0.6112
 8211TIP3    H148828   3.590   4.099   8.057  0.0575  1.1713  0.9823
 8211TIP3    H248829   3.704   4.027   8.127  0.2774 -1.4346 -1.8494
 8212TIP3   OH248830   6.049   3.098   8.009  0.1531  0.7448  0.3283
 8212TIP3    H148831   5.959   3.116   7.982 -0.6635 -1.4669  1.3351
 8212TIP3    H248832   6.052   3.122   8.101  0.0137 -0.8205  0.7820
 8213TIP3   OH248833   1.297   4.468   9.899 -0.1258 -0.2996 -0.3497
 8213TIP3    H148834   1.204   4.446   9.906 -0.4016  1.0320  0.7449
 8213TIP3    H248835   1.343   4.384   9.908 -1.1294 -0.6529  2.4392
 8214TIP3   OH248836   5.268   4.510   7.448  0.2315 -0.0530  0.0926
 8214TIP3    H148837   5.251   4.441   7.513 -0.9512  0.3842  0.2600
 8214TIP3    H248838   5.358   4.537   7.466  0.9674 -1.9767 -0.3847
 8215TIP3   OH248839   6.463   3.217   8.806 -0.1870 -0.4510  0.5802
 8215TIP3    H148840   6.549   3.254   8.787  0.1469 -1.6370 -0.3124
 8215TIP3    H248841   6.480   3.125   8.825 -1.3160 -0.8551 -0.2279
 8216TIP3   OH248842   6.749   2.035   7.713 -0.1810  0.6587  0.4241
 8216TIP3    H148843   6.795   2.083   7.644 -2.5537  0.5937 -1.3694
 8216TIP3    H248844   6.683   1.983   7.666 -1.8198  0.4788  2.7199
 8217TIP3   OH248845   4.598   3.749   7.964  0.1046 -0.0572 -0.4907
 8217TIP3    H148846   4.570   3.668   8.007  2.3562 -0.0384  1.1739
 8217TIP3    H248847   4.620   3.723   7.875 -1.6497 -0.7218 -0.7781
 8218TIP3   OH248848   6.503   2.162   8.279 -0.6977  0.3938  0.1859
 8218TIP3    H148849   6.538   2.074   8.264  0.4559  0.7895  0.4446
 8218TIP3    H248850   6.493   2.198   8.191 -0.1767  0.3711  0.1116
 8219TIP3   OH248851   2.989   1.839   6.567  0.4681 -0.0380 -0.2085
 8219TIP3    H148852   3.065   1.784   6.549  0.6850  0.4879 -0.9048
 8219TIP3    H248853   2.937   1.787   6.630  0.4977 -1.1914 -1.1011
 8220TIP3   OH248854   5.114   1.408   8.904  0.2090  0.1814  0.2882
 8220TIP3    H148855   5.193   1.420   8.956  0.9982 -0.1950 -0.7878
 8220TIP3    H248856   5.140   1.430   8.814 -1.0102  0.4453 -0.0313
 8221TIP3   OH248857   0.786   3.849   8.321  0.7871  0.1201  0.3237
 8221TIP3    H148858   0.727   3.837   8.395  1.2164  0.2552  0.6910
 8221TIP3    H248859   0.810   3.760   8.295  0.9864  0.0822  0.6328
 8222TIP3   OH248860   4.342   2.717   9.298  0.3583 -0.0528 -0.0456
 8222TIP3    H148861   4.273   2.756   9.352 -0.2419 -1.0773 -0.0477
 8222TIP3    H248862   4.296   2.683   9.221  0.1495 -4.2264  1.6801
 8223TIP3   OH248863   4.626   5.499   7.345 -0.2940 -0.4867  0.0382
 8223TIP3    H148864   4.617   5.595   7.349  1.3469 -0.2885 -0.0888
 8223TIP3    H248865   4.720   5.484   7.354 -0.6530 -2.1811  1.5353
 8224TIP3   OH248866   0.906   3.334   6.764  0.1705  0.0055  0.2100
 8224TIP3    H148867   0.829   3.390   6.775  0.6447  0.9053 -0.8334
 8224TIP3    H248868   0.874   3.259   6.714  0.3055  1.2796 -1.8968
 8225TIP3   OH248869   0.803   3.325   8.280  0.5865  0.0632 -0.1147
 8225TIP3    H148870   0.774   3.249   8.229 -1.3663 -0.6760  1.9310
 8225TIP3    H248871   0.870   3.290   8.338  1.1505  0.3894 -0.5589
 8226TIP3   OH248872   5.133   0.802   8.413 -0.2578 -0.2096  0.1849
 8226TIP3    H148873   5.164   0.711   8.420  0.8764  0.2470  1.6272
 8226TIP3    H248874   5.042   0.794   8.384 -0.7340 -1.8952  1.9248
 8227TIP3   OH248875   6.155   2.868  10.039  0.2277 -0.5280 -0.2524
 8227TIP3    H148876   6.182   2.867  10.130  1.0702 -1.3620 -0.4967
 8227TIP3    H248877   6.236   2.881   9.989 -0.0123 -1.4187 -0.9220
 8228TIP3   OH248878   1.451   0.076   7.311  0.3621 -0.0666 -0.5791
 8228TIP3    H148879   1.533   0.118   7.283  1.0514 -0.9569  0.0772
 8228TIP3    H248880   1.384   0.120   7.259  1.0903  1.6242 -0.1601
 8229TIP3   OH248881   4.619   3.642   9.287 -0.3110  0.2104 -0.2901
 8229TIP3    H148882   4.590   3.610   9.372  1.4387 -0.4462  0.0988
 8229TIP3    H248883   4.593   3.734   9.286 -0.9595  0.0497  0.6525
 8230TIP3   OH248884   4.178   2.565   7.293 -0.5634 -0.0715  0.6629
 8230TIP3    H148885   4.267   2.572   7.326 -0.1295  0.0385 -0.4904
 8230TIP3    H248886   4.127   2.533   7.368  0.5601 -0.8129  1.1377
 8231TIP3   OH248887   2.782   4.174   9.050  0.0089  0.4426 -0.0232
 8231TIP3    H148888   2.873   4.146   9.059 -0.0497 -0.3313 -1.6126
 8231TIP3    H248889   2.746   4.166   9.138  1.1316 -0.4845  0.3772
 8232TIP3   OH248890   0.456   0.639   7.234  0.5899  0.7014 -0.4019
 8232TIP3    H148891   0.485   0.590   7.311 -2.1122  1.0095  0.9565
 8232TIP3    H248892   0.387   0.585   7.196 -2.1447  3.0395  0.8515
 8233TIP3   OH248893   3.691   3.518   9.091  0.2548 -0.1458  0.5075
 8233TIP3    H148894   3.756   3.568   9.141  1.3602 -1.1970  0.1720
 8233TIP3    H248895   3.736   3.437   9.068 -0.9305 -0.5655 -0.4220
 8234TIP3   OH248896   4.655   6.565   8.902  0.1681 -0.4138  0.0295
 8234TIP3    H148897   4.749   6.558   8.887  0.2773  0.5163  0.2436
 8234TIP3    H248898   4.621   6.606   8.823 -0.1127 -1.0246 -0.1772
 8235TIP3   OH248899   1.280   5.954   8.402 -0.1149 -0.2589 -0.5441
 8235TIP3    H148900   1.370   5.967   8.432  0.1754 -1.3542 -0.8972
 8235TIP3    H248901   1.227   5.962   8.482  0.4400 -0.9390 -0.0857
 8236TIP3   OH248902   0.989   5.450   6.960  0.2179 -0.4367  0.1038
 8236TIP3    H148903   1.008   5.376   7.018  0.4367 -0.7317 -0.3410
 8236TIP3    H248904   0.899   5.474   6.981  0.1106 -0.8955  0.1813
 8237TIP3   OH248905   4.382   4.263   9.388  0.0089 -0.1291 -0.0568
 8237TIP3    H148906   4.417   4.177   9.413 -2.3874 -2.0195 -2.5670
 8237TIP3    H248907   4.442   4.295   9.322 -0.4312 -1.1747 -1.0022
 8238TIP3   OH248908   3.107   1.660   7.264  0.0008 -0.2762 -0.5973
 8238TIP3    H148909   3.055   1.600   7.211 -1.8160  0.2913  0.4477
 8238TIP3    H248910   3.167   1.603   7.312  0.6515 -0.9199 -2.0997
 8239TIP3   OH248911   1.432   1.741   8.197 -0.0747  0.1105  0.1253
 8239TIP3    H148912   1.458   1.708   8.111 -1.9640 -1.9829  0.2762
 8239TIP3    H248913   1.339   1.758   8.188 -0.3304 -0.3036  1.7942
 8240TIP3   OH248914   2.599   5.229   8.036  0.3164 -0.6211  0.1441
 8240TIP3    H148915   2.603   5.311   7.987  0.4616 -0.4109  0.5024
 8240TIP3    H248916   2.507   5.201   8.030 -0.2831  0.7460  1.9048
 8241TIP3   OH248917   3.021   0.888   8.304 -0.2024  0.0232  0.3715
 8241TIP3    H148918   3.066   0.885   8.388  0.3944  0.4479  0.0767
 8241TIP3    H248919   3.089   0.869   8.240 -0.6671 -0.3793 -0.0169
 8242TIP3   OH248920   3.714   3.875  10.039  0.1526 -0.0451 -0.2856
 8242TIP3    H148921   3.774   3.804  10.063 -2.1576 -2.0975 -0.1886
 8242TIP3    H248922   3.714   3.933  10.115  0.2204 -1.3158  0.7225
 8243TIP3   OH248923   3.467   0.859   9.238 -0.1343  0.0527  0.2119
 8243TIP3    H148924   3.562   0.847   9.230 -0.1559 -0.1087  0.1941
 8243TIP3    H248925   3.455   0.900   9.323 -0.1485 -1.1581  0.8124
 8244TIP3   OH248926   0.971   5.943   7.126  0.1290  0.0995 -0.2307
 8244TIP3    H148927   1.035   5.987   7.070  0.1652 -0.8441 -0.9679
 8244TIP3    H248928   0.890   5.992   7.113  0.1185 -0.1345 -1.1899
 8245TIP3   OH248929   0.365   6.769   8.369 -0.4325  0.8204  0.2046
 8245TIP3    H148930   0.436   6.834   8.367 -0.3335  0.7371  0.8062
 8245TIP3    H248931   0.338   6.767   8.460  1.1645 -1.6958  0.7224
 8246TIP3   OH248932   5.877   2.826   6.685 -0.0946  0.4989 -0.2907
 8246TIP3    H148933   5.833   2.911   6.690  1.3617  1.2595  0.0462
 8246TIP3    H248934   5.815   2.770   6.637 -1.4499  1.4882  0.2366
 8247TIP3   OH248935   6.175   3.577   6.999  0.5417  0.0523  0.5674
 8247TIP3    H148936   6.117   3.540   6.932 -0.6068  1.2646  0.8379
 8247TIP3    H248937   6.250   3.610   6.949  0.2107 -0.0297  0.0018
 8248TIP3   OH248938   0.014   0.723   8.632 -0.2464  0.4712 -0.6698
 8248TIP3    H148939   0.047   0.804   8.671 -0.6088  0.5663 -0.5575
 8248TIP3    H248940  -0.060   0.698   8.687  0.2255 -0.2577 -0.3543
 8249TIP3   OH248941   0.500   1.983   6.346  0.6388 -0.3370 -0.0987
 8249TIP3    H148942   0.574   2.044   6.344  0.6244  0.0411  3.4401
 8249TIP3    H248943   0.504   1.944   6.434 -1.8304 -2.3006 -0.7381
 8250TIP3   OH248944   6.179   4.332   6.789  0.1935  0.2246  0.6159
 8250TIP3    H148945   6.247   4.396   6.810  1.3603 -0.5912 -0.5296
 8250TIP3    H248946   6.107   4.353   6.848  1.4571  1.0841  1.9186
 8251TIP3   OH248947   0.200   0.004   9.144  0.0150 -0.0786 -0.7931
 8251TIP3    H148948   0.141   0.078   9.155  0.2821  0.3128 -1.8947
 8251TIP3    H248949   0.176  -0.056   9.214 -0.3182  0.9667  0.0123
 8252TIP3   OH248950   6.746   3.336   9.292  0.6101 -0.3222  0.1345
 8252TIP3    H148951   6.756   3.428   9.267 -0.2061 -0.3305 -0.2847
 8252TIP3    H248952   6.734   3.290   9.208 -0.5666 -0.5775  0.4148
 8253TIP3   OH248953   3.058   1.603   6.910  0.1960  0.3618 -0.0625
 8253TIP3    H148954   2.995   1.629   6.843 -1.3871 -0.1303  1.1699
 8253TIP3    H248955   3.123   1.673   6.910 -0.7074  1.2371 -0.9098
 8254TIP3   OH248956   2.124   5.580   9.373  0.3936 -0.0881 -0.1773
 8254TIP3    H148957   2.208   5.541   9.347  0.1549 -0.0463 -1.0403
 8254TIP3    H248958   2.067   5.506   9.390  1.1723 -0.1685  2.4612
 8255TIP3   OH248959   5.405   2.227   8.419  0.6294 -0.7219 -0.1549
 8255TIP3    H148960   5.443   2.243   8.505  0.9351 -1.7845 -0.0769
 8255TIP3    H248961   5.311   2.242   8.431  0.3371 -3.0153  0.9604
 8256TIP3   OH248962   5.602   0.298   8.807 -0.1943  0.4411  0.2245
 8256TIP3    H148963   5.615   0.203   8.796  0.4054  0.6543 -1.2643
 8256TIP3    H248964   5.572   0.308   8.897  1.2761 -1.0255  0.9391
 8257TIP3   OH248965   3.953   4.793   9.195 -0.9490  0.1583  0.0393
 8257TIP3    H148966   3.950   4.845   9.115 -0.7340 -0.5224 -0.4275
 8257TIP3    H248967   4.006   4.717   9.172 -3.1228 -1.4409 -0.0094
 8258TIP3   OH248968   4.394   2.669   7.086 -0.4157  0.1139  0.4566
 8258TIP3    H148969   4.322   2.706   7.035  0.6183  3.0490  0.9417
 8258TIP3    H248970   4.353   2.632   7.164 -1.7684 -2.3759 -1.2827
 8259TIP3   OH248971   2.060   0.210   7.321 -0.4888  0.2318 -0.5725
 8259TIP3    H148972   1.989   0.262   7.359 -0.7849 -0.3690 -0.2867
 8259TIP3    H248973   2.028   0.185   7.234 -0.2273  0.7596 -0.8265
 8260TIP3   OH248974   0.702   4.333   9.094  0.3746 -0.2766 -0.7806
 8260TIP3    H148975   0.695   4.255   9.149 -0.9559 -0.3741 -1.0571
 8260TIP3    H248976   0.677   4.303   9.006 -1.7385  0.7454 -0.5962
 8261TIP3   OH248977   6.435   0.630   8.264 -0.0518  0.0354  0.0909
 8261TIP3    H148978   6.452   0.648   8.171  0.2240 -0.2424  0.0870
 8261TIP3    H248979   6.517   0.651   8.308  0.2475 -1.1007  0.0972
 8262TIP3   OH248980   3.054   5.507   9.110 -0.1087 -0.0355 -0.1676
 8262TIP3    H148981   3.117   5.543   9.048  0.1565 -0.7832 -0.3475
 8262TIP3    H248982   3.052   5.571   9.182  0.7072  0.1063 -0.2552
 8263TIP3   OH248983   4.639   4.417   8.774 -0.0029 -0.2527 -0.1044
 8263TIP3    H148984   4.712   4.467   8.811  1.2460 -1.6478 -0.5644
 8263TIP3    H248985   4.644   4.433   8.680  1.0009 -1.8997 -0.3746
 8264TIP3   OH248986   3.517   1.970   7.700 -0.0954 -0.1574  0.0821
 8264TIP3    H148987   3.472   1.907   7.643 -0.3935 -1.3098  1.5239
 8264TIP3    H248988   3.608   1.940   7.702 -0.0471 -0.0105  0.0502
 8265TIP3   OH248989   5.283   3.454  10.157 -0.2676  0.3873  0.2748
 8265TIP3    H148990   5.213   3.495  10.208 -1.1847 -0.0260 -0.6134
 8265TIP3    H248991   5.265   3.360  10.162  0.2931  0.2644  0.1177
 8266TIP3   OH248992   6.747   1.794   9.020  0.1355 -0.1372 -0.0144
 8266TIP3    H148993   6.767   1.792   9.113  0.3804 -0.1178 -0.0663
 8266TIP3    H248994   6.696   1.875   9.008 -0.9352 -0.7500  0.3070
 8267TIP3   OH248995   4.264   4.691   7.369 -0.5727  0.3551  0.0404
 8267TIP3    H148996   4.314   4.628   7.421  1.3585  0.9376 -1.0075
 8267TIP3    H248997   4.223   4.637   7.301  0.4649  0.1096 -0.4093
 8268TIP3   OH248998   6.483   0.859   7.039 -0.2245 -0.1183 -0.0242
 8268TIP3    H148999   6.403   0.845   6.990  1.5168 -0.8719 -2.8734
 8268TIP3    H249000   6.524   0.773   7.045  1.3450  0.5423 -0.5388
 8269TIP3   OH249001   2.763   6.557   9.629 -0.1285 -0.1997  0.1958
 8269TIP3    H149002   2.808   6.586   9.709  1.3136 -0.8954 -0.3250
 8269TIP3    H249003   2.809   6.477   9.603 -0.9628 -0.3192 -0.9953
 8270TIP3   OH249004   3.774   1.916   6.702 -0.3426 -0.2464 -0.0321
 8270TIP3    H149005   3.727   1.889   6.780  2.3095 -2.1867  1.0576
 8270TIP3    H249006   3.840   1.978   6.734  1.4916 -1.8781 -0.3977
 8271TIP3   OH249007   4.368   6.293   8.631 -0.7799 -0.2361  0.1929
 8271TIP3    H149008   4.303   6.306   8.562 -1.5203 -1.4890  0.6288
 8271TIP3    H249009   4.326   6.327   8.710 -0.4331  0.0256  0.2674
 8272TIP3   OH249010   6.684   3.401   8.283  0.3165  0.0098 -0.1985
 8272TIP3    H149011   6.611   3.408   8.221  0.3200 -1.6381 -0.4292
 8272TIP3    H249012   6.650   3.347   8.354 -0.4938  3.7064  2.5460
 8273TIP3   OH249013   3.576   5.846   8.908  0.0089  0.0871 -0.3711
 8273TIP3    H149014   3.542   5.909   8.844 -2.7142  1.5157  2.2197
 8273TIP3    H249015   3.543   5.762   8.878 -0.6470  0.6232 -1.2207
 8274TIP3   OH249016   2.993   5.370   9.338  0.2829  0.3397 -0.2790
 8274TIP3    H149017   3.023   5.395   9.251 -1.2361 -1.8104 -1.5070
 8274TIP3    H249018   2.932   5.440   9.362 -0.9646 -0.1023 -1.9478
 8275TIP3   OH249019   6.407   6.180   7.906 -0.1021 -0.0959 -0.0621
 8275TIP3    H149020   6.380   6.167   7.997  2.7664  1.8530  1.2301
 8275TIP3    H249021   6.351   6.250   7.874 -0.0163  0.4018  0.8349
 8276TIP3   OH249022   2.270   4.228   8.682  0.2980  0.4521  0.7310
 8276TIP3    H149023   2.252   4.180   8.601 -2.0839  0.4751  1.1659
 8276TIP3    H249024   2.358   4.264   8.670  2.0151 -3.4041  0.0958
 8277TIP3   OH249025   0.940   4.107   7.821 -0.1749  0.1555  0.2821
 8277TIP3    H149026   0.917   4.193   7.785  1.2089  1.4028  2.1872
 8277TIP3    H249027   1.026   4.119   7.860  0.2515 -2.2453  0.2600
 8278TIP3   OH249028   6.028   0.052   6.767  0.1410  0.1676  0.5041
 8278TIP3    H149029   6.085  -0.025   6.770  0.5610  0.4722  0.4687
 8278TIP3    H249030   5.996   0.054   6.677  1.2191  0.8048  0.1188
 8279TIP3   OH249031   2.340   1.292   7.105 -0.5646 -0.1292 -0.2697
 8279TIP3    H149032   2.323   1.273   7.013 -2.2377  0.8338 -0.1897
 8279TIP3    H249033   2.340   1.388   7.110 -0.2959 -0.1721  0.7106
 8280TIP3   OH249034   3.206   5.819   7.532  0.0859  0.0363  0.1014
 8280TIP3    H149035   3.254   5.767   7.597  1.3594 -2.1524 -2.4193
 8280TIP3    H249036   3.206   5.908   7.569  0.9390 -1.0271  2.9389
 8281TIP3   OH249037   2.655   1.003   9.323 -0.0263  0.1264  0.2640
 8281TIP3    H149038   2.573   1.042   9.293  0.4554  1.3203  0.4286
 8281TIP3    H249039   2.692   0.961   9.246 -0.1627  0.7382 -0.1407
 8282TIP3   OH249040   5.303   3.446   8.545  0.0585 -0.0248 -0.2013
 8282TIP3    H149041   5.294   3.508   8.618 -1.7622 -0.7763  0.2661
 8282TIP3    H249042   5.357   3.375   8.581  0.8527  0.5525 -0.2419
 8283TIP3   OH249043   4.950   5.872   7.425 -0.3984 -0.0407 -0.2806
 8283TIP3    H149044   4.877   5.921   7.464 -0.6398  1.5279 -2.5198
 8283TIP3    H249045   4.916   5.843   7.340  0.2778 -2.8760  0.3203
 8284TIP3   OH249046   4.480   6.229   9.593 -0.0156  0.3341 -0.0883
 8284TIP3    H149047   4.438   6.147   9.618 -0.0003  0.2863 -0.2176
 8284TIP3    H249048   4.553   6.238   9.654 -0.6612  0.8027  0.6370
 8285TIP3   OH249049   2.096   1.710   7.477 -0.1698 -0.1717 -0.1668
 8285TIP3    H149050   2.073   1.668   7.394  0.2221  0.3610 -0.5565
 8285TIP3    H249051   2.164   1.654   7.514  0.4698  0.1954 -0.7638
 8286TIP3   OH249052   2.313   1.110   8.442  0.3582  0.0561 -0.5713
 8286TIP3    H149053   2.286   1.126   8.351 -0.0229  0.3752 -0.4070
 8286TIP3    H249054   2.383   1.045   8.435 -0.8602 -1.2651 -0.9808
 8287TIP3   OH249055   4.318   1.914   8.053  0.2526 -0.3916 -0.4734
 8287TIP3    H149056   4.286   1.876   7.971  0.6112 -2.2550  0.2083
 8287TIP3    H249057   4.414   1.904   8.047  0.4720  1.5244 -0.7747
 8288TIP3   OH249058   1.553   1.054   7.300  0.3808 -0.2385 -0.3680
 8288TIP3    H149059   1.565   1.051   7.395 -1.3382  0.3324 -0.1021
 8288TIP3    H249060   1.642   1.060   7.266  0.9893  0.8094  1.2631
 8289TIP3   OH249061   0.570   6.483   8.178  0.8840 -0.2818 -0.6562
 8289TIP3    H149062   0.658   6.493   8.213  1.4907 -0.7536 -1.9793
 8289TIP3    H249063   0.561   6.554   8.115  1.4048 -1.8552 -2.5987
 8290TIP3   OH249064   4.315   2.984   8.674 -0.0184 -0.2947 -0.2222
 8290TIP3    H149065   4.290   2.919   8.740  0.4270 -0.3336 -0.0916
 8290TIP3    H249066   4.231   3.015   8.639 -0.2636 -0.2310  0.4028
 8291TIP3   OH249067   1.796   0.043   8.070 -0.4675  0.8441  0.4633
 8291TIP3    H149068   1.835   0.122   8.108  1.6612 -0.7246  1.6939
 8291TIP3    H249069   1.721   0.024   8.127 -1.3400  2.2225 -0.1643
 8292TIP3   OH249070   5.645   0.579   6.858 -0.2121  0.0667  0.5161
 8292TIP3    H149071   5.550   0.587   6.871 -0.0930  0.2108  1.3274
 8292TIP3    H249072   5.656   0.493   6.816 -0.8346  0.7588 -1.1518
 8293TIP3   OH249073   2.808   0.467   9.690  0.1056 -0.4474 -0.0210
 8293TIP3    H149074   2.891   0.506   9.662  0.3150 -0.3638  0.6910
 8293TIP3    H249075   2.770   0.532   9.749 -0.7962 -0.1872 -0.8647
 8294TIP3   OH249076   5.307   5.895   9.389 -0.1926 -0.3222  0.4962
 8294TIP3    H149077   5.258   5.827   9.343 -1.1381 -0.7039  1.9960
 8294TIP3    H249078   5.399   5.870   9.378 -0.3076  0.0254 -1.7859
 8295TIP3   OH249079   1.721   3.506   6.706 -0.1403 -0.5033 -0.6724
 8295TIP3    H149080   1.725   3.530   6.798  0.4692  0.1168 -0.8496
 8295TIP3    H249081   1.745   3.586   6.659 -0.2680 -0.8590 -1.3581
 8296TIP3   OH249082   4.878   6.356   6.525  0.0840  0.6194 -0.0545
 8296TIP3    H149083   4.955   6.302   6.542 -0.9063 -1.2631 -1.1625
 8296TIP3    H249084   4.911   6.446   6.523  2.3132 -0.1435 -0.8391
 8297TIP3   OH249085   3.834   5.316   7.361 -0.3035  0.5199  0.4639
 8297TIP3    H149086   3.927   5.326   7.385  0.1253  3.2002 -1.7718
 8297TIP3    H249087   3.832   5.237   7.307  0.4367 -0.1678  1.3977
 8298TIP3   OH249088   5.785   3.057  10.330 -0.3355 -0.1206 -0.3819
 8298TIP3    H149089   5.833   3.034  10.251  1.2081  0.5375  0.3395
 8298TIP3    H249090   5.693   3.045  10.306  0.1863 -4.1354 -0.9537
 8299TIP3   OH249091   2.069   4.841   8.476 -0.1927  0.2299  0.5071
 8299TIP3    H149092   2.130   4.890   8.530  0.1857 -1.0893  1.3198
 8299TIP3    H249093   2.014   4.793   8.538 -0.4385 -0.4920 -0.2421
 8300TIP3   OH249094   6.132   4.162   9.082  0.6913 -0.9844  0.0625
 8300TIP3    H149095   6.116   4.079   9.037  0.4003 -0.7230 -0.3223
 8300TIP3    H249096   6.227   4.172   9.080  0.8634 -2.0997  1.5609
 8301TIP3   OH249097   5.496   3.103  10.335 -0.0898 -0.0451 -0.1552
 8301TIP3    H149098   5.483   3.173  10.399 -0.3751 -0.7513  0.5825
 8301TIP3    H249099   5.410   3.090  10.296 -0.3383 -0.8346  0.6238
 8302TIP3   OH249100   2.810   2.752   8.056 -0.1798  0.3443  0.2061
 8302TIP3    H149101   2.862   2.672   8.057  0.0408  0.4857  0.4529
 8302TIP3    H249102   2.762   2.750   8.139 -2.4242 -0.9640 -1.0297
 8303TIP3   OH249103   2.654   0.131   6.526 -0.0373 -0.0785 -0.2781
 8303TIP3    H149104   2.614   0.094   6.605  1.0500 -1.3232 -0.2731
 8303TIP3    H249105   2.666   0.223   6.546 -0.0691 -0.3084  0.8942
 8304TIP3   OH249106   6.676   4.750   8.606 -0.0027 -0.0930  0.3010
 8304TIP3    H149107   6.749   4.810   8.622  0.3554 -0.3029 -0.5291
 8304TIP3    H249108   6.613   4.772   8.675  0.4096  0.7759  0.4250
 8305TIP3   OH249109   0.736   0.012   6.738 -0.4140 -0.0500 -0.0287
 8305TIP3    H149110   0.717   0.088   6.793 -1.1285  0.0570 -0.4053
 8305TIP3    H249111   0.764   0.049   6.654 -3.0738 -0.0974 -1.0542
 8306TIP3   OH249112   2.137   3.117   8.683  0.1520  0.0898  0.3727
 8306TIP3    H149113   2.220   3.106   8.730 -0.2353  0.7445  1.2398
 8306TIP3    H249114   2.158   3.174   8.609  0.3269  0.9239  1.0520
 8307TIP3   OH249115   0.994   3.080   8.797  0.1411 -0.3911 -0.2295
 8307TIP3    H149116   1.032   3.108   8.880  0.8752 -0.1727 -0.6288
 8307TIP3    H249117   1.055   3.114   8.730 -1.7879  1.7858 -1.0219
 8308TIP3   OH249118   1.099   2.789   8.341 -0.0553  0.0394 -0.5758
 8308TIP3    H149119   1.137   2.704   8.364  0.6723  0.6375  0.5506
 8308TIP3    H249120   1.163   2.852   8.372 -1.9092  1.1066  1.2904
 8309TIP3   OH249121   2.270   3.443   8.819  0.2567  0.9690  0.5617
 8309TIP3    H149122   2.266   3.538   8.809 -0.1310  0.9596  0.5897
 8309TIP3    H249123   2.181   3.419   8.845  0.2850  0.5683  0.2891
 8310TIP3   OH249124   2.915   2.479   8.090  0.5696  0.3833 -0.4269
 8310TIP3    H149125   2.944   2.417   8.024  0.1855 -2.1944  1.6374
 8310TIP3    H249126   2.821   2.464   8.098  0.4813  1.1673  0.2080
 8311TIP3   OH249127   1.904   4.347   8.574 -0.2769 -0.3017 -0.7470
 8311TIP3    H149128   1.824   4.391   8.601  0.2310  0.1508  0.0509
 8311TIP3    H249129   1.959   4.345   8.653  1.2426  1.0416 -1.6902
 8312TIP3   OH249130   1.976   3.617   7.889 -0.1411  1.0705 -0.1875
 8312TIP3    H149131   1.894   3.571   7.868  1.5502 -2.1176 -0.5302
 8312TIP3    H249132   1.985   3.608   7.984 -0.0155  1.0672 -0.1999
 8313TIP3   OH249133   5.140   1.530   8.656  0.1044  0.0744 -0.1003
 8313TIP3    H149134   5.061   1.558   8.609 -0.1386  1.4752  1.0966
 8313TIP3    H249135   5.199   1.500   8.587 -1.5378 -1.2755 -1.0112
 8314TIP3   OH249136   6.691   0.641   8.381  0.6747 -0.2503  0.2459
 8314TIP3    H149137   6.701   0.663   8.473 -1.1193 -0.4122  0.5128
 8314TIP3    H249138   6.734   0.713   8.334 -2.5939  2.5567  1.1421
 8315TIP3   OH249139   6.066   3.859   8.646  0.1775  0.0316 -0.3288
 8315TIP3    H149140   6.100   3.857   8.556  0.8671 -1.0201 -0.0673
 8315TIP3    H249141   5.983   3.812   8.642  0.5066 -0.5670 -0.3182
 8316TIP3   OH249142   5.622   1.806   7.646  0.6954  0.0013  0.2087
 8316TIP3    H149143   5.615   1.900   7.666  0.1933  0.3293 -1.3590
 8316TIP3    H249144   5.711   1.795   7.612  0.4270  0.1194 -0.5508
 8317TIP3   OH249145   3.332   3.696   7.963  0.1973 -0.4882 -0.3698
 8317TIP3    H149146   3.379   3.726   8.040 -0.2762 -0.4653 -0.0840
 8317TIP3    H249147   3.350   3.763   7.896  1.8116 -1.2693 -0.7436
 8318TIP3   OH249148   1.479   0.891   7.804  0.0347  0.1230  0.1850
 8318TIP3    H149149   1.464   0.856   7.892  2.2547  1.1767  1.0673
 8318TIP3    H249150   1.575   0.899   7.797 -0.1906  3.1047 -1.0634
 8319TIP3   OH249151   1.953   2.769  10.284  0.4446  0.5049  0.0150
 8319TIP3    H149152   2.045   2.773  10.311  0.3336 -1.6899  0.9292
 8319TIP3    H249153   1.938   2.851  10.238  2.9166  0.8615 -0.3069
 8320TIP3   OH249154   2.190   6.024   7.122  0.4060 -0.1831  0.2298
 8320TIP3    H149155   2.200   6.118   7.111  0.8440 -0.2747 -0.1381
 8320TIP3    H249156   2.114   6.015   7.180  0.2585  0.3883  0.1284
 8321TIP3   OH249157   1.740   2.773   8.155 -0.1803  0.3124  0.0505
 8321TIP3    H149158   1.760   2.795   8.064 -2.1159  1.5524 -0.1580
 8321TIP3    H249159   1.825   2.762   8.197  0.8023  1.3727 -1.5472
 8322TIP3   OH249160   6.708   3.682   7.693  0.4514  0.1538 -0.4165
 8322TIP3    H149161   6.662   3.766   7.687 -2.1507 -1.1427 -0.0679
 8322TIP3    H249162   6.767   3.692   7.767  0.3816  1.7361 -0.5331
 8323TIP3   OH249163   6.209   5.925   8.476 -0.6640 -0.4013  0.0897
 8323TIP3    H149164   6.238   5.915   8.567 -1.9198  0.5256  0.6220
 8323TIP3    H249165   6.161   6.007   8.475 -2.1539 -1.2332 -1.0040
 8324TIP3   OH249166   0.351   5.385   9.560  0.1938  0.3946  0.1665
 8324TIP3    H149167   0.358   5.363   9.468 -0.6606  1.4857 -0.1870
 8324TIP3    H249168   0.413   5.457   9.572  0.8452 -0.2280  0.6295
 8325TIP3   OH249169   1.570   0.478   9.440 -0.0506 -0.5879 -0.3385
 8325TIP3    H149170   1.618   0.502   9.361  1.5139  0.4966  0.8615
 8325TIP3    H249171   1.638   0.448   9.501 -1.3858 -2.9818  0.0859
 8326TIP3   OH249172   2.233   0.207   6.688  0.0883 -0.7365  0.1600
 8326TIP3    H149173   2.160   0.180   6.744 -0.6606 -1.7820 -1.2485
 8326TIP3    H249174   2.212   0.297   6.662  0.0924 -0.4916  0.9901
 8327TIP3   OH249175   5.662   4.308   8.744  0.2445  0.0428 -0.5242
 8327TIP3    H149176   5.655   4.348   8.831  1.0254 -1.6125  0.3295
 8327TIP3    H249177   5.748   4.268   8.742  0.5120  0.6065 -2.3406
 8328TIP3   OH249178   2.638   3.823  10.004  0.5565 -0.1250 -0.3294
 8328TIP3    H149179   2.616   3.729  10.000  1.9515 -0.4699 -0.6108
 8328TIP3    H249180   2.689   3.832  10.085  0.0145  0.4969 -0.0509
 8329TIP3   OH249181   2.466   3.021   7.366 -0.0749  0.1793 -0.0769
 8329TIP3    H149182   2.530   3.090   7.381 -1.0933  1.5616 -1.6977
 8329TIP3    H249183   2.382   3.067   7.356 -0.5598 -1.0615 -2.7030
 8330TIP3   OH249184   3.109   5.497   8.489  0.1110  0.6903  0.3743
 8330TIP3    H149185   3.079   5.448   8.565 -1.6187  1.3120  0.1207
 8330TIP3    H249186   3.037   5.491   8.426  0.5013  2.2247 -0.2687
 8331TIP3   OH249187   3.591   4.993   7.782 -0.1191  0.4558 -0.8355
 8331TIP3    H149188   3.684   4.973   7.794 -0.3225 -0.2250 -0.3526
 8331TIP3    H249189   3.576   5.071   7.835 -0.1120 -0.2080  0.1738
 8332TIP3   OH249190   3.702   2.646   8.651  0.3653 -0.4303  0.1698
 8332TIP3    H149191   3.739   2.716   8.597 -0.5576  0.7701  1.0289
 8332TIP3    H249192   3.608   2.663   8.650  0.2101 -1.1979  1.0304
 8333TIP3   OH249193   4.310   4.879   9.204 -0.5022  0.9015 -0.2991
 8333TIP3    H149194   4.331   4.859   9.113 -1.1857 -0.3717 -0.1951
 8333TIP3    H249195   4.275   4.798   9.239  1.9117  0.6491  1.8041
 8334TIP3   OH249196   2.042   2.292   9.534  0.2394  0.5694  0.0885
 8334TIP3    H149197   1.970   2.354   9.543  0.1938  0.3366  1.6722
 8334TIP3    H249198   1.999   2.208   9.515 -0.1363  0.0580  2.7248
 8335TIP3   OH249199   4.855   0.322   8.720 -0.2639 -0.0610  0.3103
 8335TIP3    H149200   4.887   0.394   8.665  0.9354  0.2566  1.3805
 8335TIP3    H249201   4.761   0.337   8.726 -0.1879  0.7976 -0.3742
 8336TIP3   OH249202   5.790   2.711  14.850 -0.0886 -0.2973  0.3206
 8336TIP3    H149203   5.817   2.699  14.941 -1.8636 -0.8282  0.8273
 8336TIP3    H249204   5.722   2.778  14.854 -1.2194 -1.3506 -0.3822
 8337TIP3   OH249205   1.543   0.386   9.035 -0.4957  0.6747 -0.2804
 8337TIP3    H149206   1.451   0.410   9.039 -0.7288 -0.2156 -0.2730
 8337TIP3    H249207   1.552   0.335   8.955 -0.2613 -0.2820  0.3420
 8338TIP3   OH249208   3.663   6.397   7.200  0.0458  0.0802 -0.2266
 8338TIP3    H149209   3.633   6.335   7.267 -0.4479  0.3732 -0.1721
 8338TIP3    H249210   3.757   6.405   7.215 -0.2109  0.9696  1.1553
 8339TIP3   OH249211   3.740   0.779   9.202  0.0117 -0.2303 -0.4288
 8339TIP3    H149212   3.756   0.703   9.145  0.6561 -0.3144 -0.1453
 8339TIP3    H249213   3.827   0.804   9.233 -0.4711 -1.4260  2.1382
 8340TIP3   OH249214   2.327   3.712   7.680 -0.6499 -0.2622  0.0787
 8340TIP3    H149215   2.371   3.633   7.712  0.6315  0.3371 -0.1568
 8340TIP3    H249216   2.256   3.679   7.625 -0.1339 -1.2564 -0.0140
 8341TIP3   OH249217   3.322   5.113   7.410 -0.6783  0.4475  0.4544
 8341TIP3    H149218   3.339   5.045   7.345  0.2611  1.4054 -0.3263
 8341TIP3    H249219   3.409   5.141   7.439 -1.0677  0.2201  1.9651
 8342TIP3   OH249220   4.252   3.269   9.802 -0.0013 -0.1257 -0.7406
 8342TIP3    H149221   4.166   3.233   9.824 -0.0487  0.3039 -0.2220
 8342TIP3    H249222   4.304   3.259   9.882 -0.4178  2.1786 -0.1011
 8343TIP3   OH249223   1.315   0.103   9.107  0.1978 -1.1110  0.1379
 8343TIP3    H149224   1.333   0.196   9.098  0.0042 -1.1778 -1.2887
 8343TIP3    H249225   1.250   0.097   9.177 -1.5305  0.0915 -1.2530
 8344TIP3   OH249226   6.754   4.038   8.910  0.1524 -0.0300  1.2579
 8344TIP3    H149227   6.758   4.130   8.882 -2.9161 -0.0540  0.3545
 8344TIP3    H249228   6.686   4.037   8.978 -0.7150 -1.7601  0.4383
 8345TIP3   OH249229   5.101   0.234   7.969 -0.2403 -0.6742 -0.2059
 8345TIP3    H149230   5.148   0.153   7.988  1.1658 -0.0112 -0.7754
 8345TIP3    H249231   5.059   0.217   7.884 -1.9885 -1.6454  0.7837
 8346TIP3   OH249232   6.540   1.109   9.278 -0.3202 -0.2642  0.0500
 8346TIP3    H149233   6.480   1.095   9.205  0.0055 -1.1609 -0.0677
 8346TIP3    H249234   6.554   1.203   9.281 -0.3009 -0.2171 -1.0788
 8347TIP3   OH249235   0.777   5.130  10.070  0.0225  0.5364 -0.0630
 8347TIP3    H149236   0.708   5.070  10.044  2.0887 -1.7046 -0.6424
 8347TIP3    H249237   0.815   5.162   9.988  0.1228  1.2365  0.2435
 8348TIP3   OH249238   1.535   0.014  16.675  0.8513  0.2761 -0.1418
 8348TIP3    H149239   1.621  -0.028  16.665  1.0884  0.5951  0.5447
 8348TIP3    H249240   1.472  -0.056  16.656  1.2607  0.0535 -0.6968
 8349TIP3   OH249241   1.275   5.158   7.097 -0.2239  0.1684  0.1241
 8349TIP3    H149242   1.256   5.088   7.159 -1.1356  0.1715 -0.1420
 8349TIP3    H249243   1.355   5.130   7.053 -0.6621 -0.7744 -0.0829
 8350TIP3   OH249244   2.030   3.210   7.127 -0.4655 -0.3479  0.1769
 8350TIP3    H149245   1.943   3.241   7.153 -1.0646  1.0725 -3.0692
 8350TIP3    H249246   2.090   3.274   7.163 -1.0450  0.3775 -0.1307
 8351TIP3   OH249247   6.524   4.778   9.683 -0.4147 -0.1826  0.2015
 8351TIP3    H149248   6.456   4.711   9.684  1.8758 -2.6971 -0.9460
 8351TIP3    H249249   6.533   4.805   9.774  0.5524 -3.6558  1.2628
 8352TIP3   OH249250   5.647   4.017   7.256 -0.2077  0.0721 -0.4339
 8352TIP3    H149251   5.580   4.055   7.200  0.2775  1.2766 -0.2222
 8352TIP3    H249252   5.705   3.971   7.196  0.0223  0.9233 -0.8747
 8353TIP3   OH249253   5.138   5.543   8.813  0.1553  0.2066  0.0478
 8353TIP3    H149254   5.098   5.613   8.761  1.0431  0.4181 -0.3659
 8353TIP3    H249255   5.090   5.545   8.895  0.0753  1.2250 -0.0017
 8354TIP3   OH249256   4.370   3.168   7.409 -0.4309  0.1066  0.1899
 8354TIP3    H149257   4.402   3.232   7.346 -0.2683 -0.6011 -0.4604
 8354TIP3    H249258   4.298   3.212   7.454 -1.0319  0.3728 -0.9921
 8355TIP3   OH249259   1.435   5.976   7.127  0.2647  0.5308  0.2592
 8355TIP3    H149260   1.354   5.929   7.108 -0.2617  0.4544  2.3939
 8355TIP3    H249261   1.501   5.908   7.136  0.8068  0.6377 -2.2384
 8356TIP3   OH249262   1.410   4.181   8.770  0.3294 -0.7052 -0.7790
 8356TIP3    H149263   1.493   4.206   8.809  0.5700 -1.0589 -1.0595
 8356TIP3    H249264   1.352   4.256   8.786  1.0233  0.0181 -1.5725
 8357TIP3   OH249265   6.068   2.021   9.635  0.2104 -0.5117  0.0976
 8357TIP3    H149266   6.132   2.026   9.707 -0.5903 -1.0791  0.8703
 8357TIP3    H249267   6.014   1.944   9.656 -0.9773  0.1794 -0.3237
 8358TIP3   OH249268   5.166   6.151   7.170 -0.2636  0.5506  0.7487
 8358TIP3    H149269   5.078   6.140   7.205  0.1956  0.2550  1.8577
 8358TIP3    H249270   5.190   6.241   7.193 -0.5073  0.8413 -0.1101
 8359TIP3   OH249271   1.115   0.928   7.417  0.2689 -0.1797 -0.2124
 8359TIP3    H149272   1.179   0.973   7.472 -0.9409 -0.2702  1.3225
 8359TIP3    H249273   1.037   0.920   7.472 -1.2296  0.3173 -2.1672
 8360TIP3   OH249274   4.212   1.212   8.147 -0.2950 -0.9673 -0.4348
 8360TIP3    H149275   4.296   1.167   8.149  0.8041  0.8905  2.6609
 8360TIP3    H249276   4.157   1.161   8.207 -0.0910 -0.0797  0.5346
 8361TIP3   OH249277   4.877   5.312  10.362  0.8345 -0.6854  0.0445
 8361TIP3    H149278   4.907   5.225  10.336 -0.6512 -1.0110 -0.6282
 8361TIP3    H249279   4.857   5.357  10.280 -2.8461 -1.3492  0.4078
 8362TIP3   OH249280   5.254   4.052   8.588 -0.2615 -0.0262 -0.2536
 8362TIP3    H149281   5.307   4.006   8.524  1.5538 -0.5476  1.5013
 8362TIP3    H249282   5.310   4.124   8.618 -1.0463  0.1959  0.7408
 8363TIP3   OH249283   3.947   1.967   8.003 -0.1654 -0.2432  0.4576
 8363TIP3    H149284   4.025   1.919   7.977  0.9197  1.0940  1.1077
 8363TIP3    H249285   3.967   2.059   7.983 -1.6207  0.1228  0.5224
 8364TIP3   OH249286   1.983   3.119   6.677 -0.4838 -0.7025  0.4393
 8364TIP3    H149287   1.989   3.164   6.593  1.0154 -1.7198 -0.0533
 8364TIP3    H249288   1.893   3.087   6.681 -0.4711 -0.9799 -0.9806
 8365TIP3   OH249289   6.343   6.603   7.423  0.6220  0.4622 -0.6757
 8365TIP3    H149290   6.303   6.678   7.468 -1.8271 -0.4166 -1.2412
 8365TIP3    H249291   6.305   6.526   7.464  0.8993 -0.4293 -1.9973
 8366TIP3   OH249292   0.359   4.926   8.319  0.3228  0.2560  0.2978
 8366TIP3    H149293   0.295   4.926   8.248 -1.2972 -1.7858  1.6464
 8366TIP3    H249294   0.361   5.017   8.349  0.5048  1.0094 -1.8215
 8367TIP3   OH249295   6.521   5.347   8.382  0.2068  0.1289 -0.2366
 8367TIP3    H149296   6.571   5.377   8.458  2.2036  1.6593 -2.0194
 8367TIP3    H249297   6.572   5.273   8.348 -0.2402 -0.0564 -0.5073
 8368TIP3   OH249298   5.261   2.988   6.843 -0.5378 -0.0591  0.1604
 8368TIP3    H149299   5.217   3.060   6.797  0.9365  0.4765 -0.4697
 8368TIP3    H249300   5.316   2.947   6.777  1.3505  0.4937  1.3021
 8369TIP3   OH249301   0.859   1.349   8.873 -0.2129  0.2578  0.1332
 8369TIP3    H149302   0.787   1.298   8.836  0.4179 -1.4054  1.0523
 8369TIP3    H249303   0.834   1.362   8.965 -0.8653  2.6338 -0.3190
 8370TIP3   OH249304   3.268   2.596   8.100 -0.2130  0.8605 -0.0652
 8370TIP3    H149305   3.292   2.524   8.041 -0.5764  1.0880 -0.5004
 8370TIP3    H249306   3.320   2.670   8.070 -2.5267  1.8216 -2.0794
 8371TIP3   OH249307   5.002   3.225   7.694 -0.0192 -0.4945 -0.1083
 8371TIP3    H149308   5.060   3.216   7.769  1.2054 -2.0372 -1.1642
 8371TIP3    H249309   5.059   3.210   7.618 -1.3177  0.4569 -1.3293
 8372TIP3   OH249310   3.473   1.443   9.463 -0.2252 -0.2276  0.4768
 8372TIP3    H149311   3.391   1.463   9.508 -0.3891  1.2183 -0.3909
 8372TIP3    H249312   3.542   1.468   9.524 -0.4424  0.6907  0.3531
 8373TIP3   OH249313   2.304   4.472   8.498 -0.0887 -0.4039 -0.4484
 8373TIP3    H149314   2.232   4.468   8.435 -1.3047  0.6983  0.8029
 8373TIP3    H249315   2.343   4.558   8.485  0.5547 -0.7145 -0.6227
 8374TIP3   OH249316   0.058   4.207   6.944 -0.2255 -0.0218  0.3860
 8374TIP3    H149317   0.125   4.265   6.906  1.2045 -0.4796  2.0750
 8374TIP3    H249318  -0.021   4.226   6.894  0.9717  1.1134 -1.1755
 8375TIP3   OH249319   2.230   0.733  10.093  0.3819 -0.3683  0.5322
 8375TIP3    H149320   2.180   0.780  10.027  1.3910  0.1051  0.0884
 8375TIP3    H249321   2.171   0.662  10.122 -0.5279  0.1722  0.0400
 8376TIP3   OH249322   0.174   0.306   9.471 -0.6469 -0.5258  0.3826
 8376TIP3    H149323   0.139   0.370   9.534 -1.0706 -0.4120  0.0381
 8376TIP3    H249324   0.119   0.317   9.393  0.9294  0.5221 -0.6382
 8377TIP3   OH249325   3.517   5.161   9.485 -0.3802 -0.1523 -0.0144
 8377TIP3    H149326   3.595   5.208   9.516 -0.5667  1.3988 -1.7328
 8377TIP3    H249327   3.444   5.211   9.520 -0.5758  0.3953 -1.1471
 8378TIP3   OH249328   0.916   0.601   7.920 -0.0094 -0.7299  0.0314
 8378TIP3    H149329   0.958   0.522   7.955  2.0562  0.8677  1.4088
 8378TIP3    H249330   0.972   0.628   7.848 -0.6753 -0.4782 -0.4011
 8379TIP3   OH249331   4.843   6.412   8.444  0.6900 -0.5533  0.1691
 8379TIP3    H149332   4.752   6.430   8.422  0.9072 -1.7333 -1.9386
 8379TIP3    H249333   4.881   6.499   8.461 -0.5485  0.0597 -0.0564
 8380TIP3   OH249334   1.107   2.415   6.357  0.3704 -0.3796  0.1928
 8380TIP3    H149335   1.117   2.473   6.281 -1.4059 -0.0618  0.1549
 8380TIP3    H249336   1.165   2.453   6.424  0.7998  0.2327 -0.5145
 8381TIP3   OH249337   3.194   3.911   9.058  0.5371  0.0608  0.2538
 8381TIP3    H149338   3.264   3.846   9.061 -0.5069 -1.5003 -3.4764
 8381TIP3    H249339   3.180   3.927   8.965 -2.2264  2.4244  0.9163
 8382TIP3   OH249340   0.498   6.478   6.742 -0.5973  0.3320  0.0851
 8382TIP3    H149341   0.493   6.558   6.691 -0.1235 -0.1156 -0.6744
 8382TIP3    H249342   0.407   6.447   6.746 -0.4052 -0.7795 -2.3819
 8383TIP3   OH249343   4.414   1.948   7.313 -0.1139  0.2604 -0.1464
 8383TIP3    H149344   4.397   1.856   7.296  2.9347 -0.4756  0.1307
 8383TIP3    H249345   4.387   1.993   7.234  1.2584 -1.3404 -1.6277
 8384TIP3   OH249346   0.615   1.387   6.730  0.1484  0.4414 -0.0979
 8384TIP3    H149347   0.528   1.356   6.705  0.0784 -0.6252  1.3321
 8384TIP3    H249348   0.666   1.384   6.649 -0.7267 -0.4680 -0.6412
 8385TIP3   OH249349   6.152   2.770   6.810  0.5976 -0.3070 -0.3318
 8385TIP3    H149350   6.111   2.785   6.724 -0.6235 -0.3091  0.2312
 8385TIP3    H249351   6.188   2.682   6.804 -1.4724 -1.2137 -0.1021
 8386TIP3   OH249352   5.549   1.599   8.433  0.3834 -0.1878  0.3421
 8386TIP3    H149353   5.460   1.566   8.448 -0.3823  1.7373  0.3752
 8386TIP3    H249354   5.593   1.588   8.517 -0.7941  1.5056  1.2606
 8387TIP3   OH249355   0.695   0.512   9.035  0.3308 -0.4254 -0.1028
 8387TIP3    H149356   0.626   0.573   9.062 -2.4879 -3.6359  0.6661
 8387TIP3    H249357   0.714   0.461   9.114  2.5254 -0.6712 -0.7212
 8388TIP3   OH249358   2.150   2.263   6.841  0.3052  0.2715 -0.0114
 8388TIP3    H149359   2.164   2.356   6.853 -0.6388  0.2222  1.7795
 8388TIP3    H249360   2.075   2.242   6.897 -0.2214 -1.3602 -1.2300
 8389TIP3   OH249361   0.380   0.906   7.387  0.0721 -0.5802  0.6955
 8389TIP3    H149362   0.469   0.875   7.375  0.3137  0.2008  0.3603
 8389TIP3    H249363   0.377   0.938   7.477  1.0095  2.0050 -0.0951
 8390TIP3   OH249364   6.678   6.677   8.754 -0.7363  0.4156  0.5110
 8390TIP3    H149365   6.724   6.651   8.674 -1.3567 -1.2347  0.6647
 8390TIP3    H249366   6.594   6.710   8.723 -1.1936 -0.7272  0.4840
 8391TIP3   OH249367   1.609   3.031   7.648  0.4174  0.1998 -0.1040
 8391TIP3    H149368   1.641   3.080   7.724 -0.7949  1.3546 -0.3038
 8391TIP3    H249369   1.544   2.970   7.684  2.6757 -2.1603  0.3042
 8392TIP3   OH249370   4.641   6.770   7.863  0.1283 -0.6685  0.2542
 8392TIP3    H149371   4.606   6.776   7.952  0.5112 -0.6556  0.4039
 8392TIP3    H249372   4.568   6.736   7.811 -0.2394 -0.2562  0.4882
 8393TIP3   OH249373   0.100   5.622   8.476 -0.1583  0.0155 -0.0700
 8393TIP3    H149374   0.185   5.663   8.493  1.5562 -3.7167  1.3930
 8393TIP3    H249375   0.051   5.689   8.429  2.5773  3.3638  1.3468
 8394TIP3   OH249376   4.842   6.730   6.741  0.2928  0.4987  0.3830
 8394TIP3    H149377   4.882   6.680   6.812 -0.0281  0.2839  0.4153
 8394TIP3    H249378   4.886   6.698   6.662  0.5637  0.6505  0.4707
 8395TIP3   OH249379   5.116   5.826   8.418 -0.3127  0.0606  0.2230
 8395TIP3    H149380   5.132   5.906   8.367  1.7008  0.1513  0.8977
 8395TIP3    H249381   5.171   5.760   8.377  1.0976  0.0466  1.9899
 8396TIP3   OH249382   5.089   0.691   8.934  0.1681 -0.2935 -0.1717
 8396TIP3    H149383   5.059   0.702   8.843  0.3108  1.1038 -0.0752
 8396TIP3    H249384   5.179   0.660   8.925  0.0100 -0.6660 -0.5045
 8397TIP3   OH249385   4.034   3.779   8.747  0.5214 -0.2347 -0.0706
 8397TIP3    H149386   4.079   3.695   8.747  0.4303 -0.3364 -2.1428
 8397TIP3    H249387   3.961   3.767   8.808  1.8289 -0.8563  1.4379
 8398TIP3   OH249388   1.994   4.087   8.848  0.0968  0.0471 -0.0644
 8398TIP3    H149389   1.986   4.063   8.755  2.8632  1.1280 -0.6998
 8398TIP3    H249390   2.065   4.032   8.881 -1.3924 -0.9149  1.7074
 8399TIP3   OH249391   5.760   0.931   6.724 -0.0287 -0.9048 -0.3878
 8399TIP3    H149392   5.824   0.860   6.721  0.7227 -0.2159 -0.9224
 8399TIP3    H249393   5.743   0.944   6.817 -0.0473 -1.6690 -0.2809
 8400TIP3   OH249394   1.876   3.388   6.430 -0.2991  0.1346  0.2025
 8400TIP3    H149395   1.817   3.464   6.435  0.5729  0.9819 -1.5190
 8400TIP3    H249396   1.817   3.313   6.426 -1.4252  1.0085 -2.5095
 8401TIP3   OH249397   6.608   5.783   7.003 -0.2553 -0.0493  0.5303
 8401TIP3    H149398   6.624   5.851   7.068  1.9243  0.0641 -0.0266
 8401TIP3    H249399   6.695   5.750   6.981 -1.2228 -4.0435  1.8016
 8402TIP3   OH249400   1.550   5.539   8.904 -0.7505  0.3535 -0.0848
 8402TIP3    H149401   1.550   5.458   8.956  0.5355  1.1018  1.1700
 8402TIP3    H249402   1.466   5.580   8.924 -1.5859 -0.8298 -1.0403
 8403TIP3   OH249403   1.354   3.074   8.900 -0.3883  0.0353 -0.2586
 8403TIP3    H149404   1.326   3.119   8.820 -1.3800  0.0587  0.0835
 8403TIP3    H249405   1.284   3.092   8.963  0.6697  0.5257  0.8135
 8404TIP3   OH249406   3.815   1.182   7.108  0.1225 -0.0254  0.2905
 8404TIP3    H149407   3.755   1.182   7.183 -2.7230 -2.1552 -1.7766
 8404TIP3    H249408   3.828   1.089   7.088  0.4134  0.4778 -2.1305
 8405TIP3   OH249409   2.501   6.456   7.813  0.3811 -0.1175 -0.0138
 8405TIP3    H149410   2.461   6.436   7.729 -1.1768  0.8825  0.4527
 8405TIP3    H249411   2.436   6.430   7.878 -0.4400  3.2864  0.7019
 8406TIP3   OH249412   4.647   2.121   9.147  0.4850  0.5158 -0.0454
 8406TIP3    H149413   4.651   2.105   9.241 -2.4528  1.3686  0.3339
 8406TIP3    H249414   4.673   2.213   9.137  2.5489 -0.0563 -0.3510
 8407TIP3   OH249415   2.531   2.040   9.099  0.7479  0.5367 -0.1118
 8407TIP3    H149416   2.494   2.118   9.140  0.3033  0.4392 -0.3298
 8407TIP3    H249417   2.460   2.003   9.047  0.8507 -0.2147  0.2689
 8408TIP3   OH249418   4.681   0.641   7.883 -0.2530 -0.3275 -0.2475
 8408TIP3    H149419   4.765   0.673   7.851  0.3747 -1.8045 -0.1664
 8408TIP3    H249420   4.663   0.564   7.829 -0.0132 -1.8574  1.7341
 8409TIP3   OH249421   0.587   4.948   8.811 -0.2555  0.0642 -0.2226
 8409TIP3    H149422   0.507   4.906   8.778 -0.1563 -0.1625 -0.1761
 8409TIP3    H249423   0.576   4.945   8.907 -0.8157  1.2445 -0.2332
 8410TIP3   OH249424   0.274   1.038   6.921  0.1476  1.3851  0.2040
 8410TIP3    H149425   0.274   0.946   6.951  1.8067  1.0880 -0.6017
 8410TIP3    H249426   0.183   1.055   6.898 -0.3495  0.2013  1.1355
 8411TIP3   OH249427   1.004   2.223   7.173  0.3013  0.3693 -0.1731
 8411TIP3    H149428   1.050   2.220   7.257  0.8814 -1.5231 -0.5189
 8411TIP3    H249429   1.073   2.222   7.108 -0.1602 -1.2058 -0.6884
 8412TIP3   OH249430   4.658   4.144  10.089 -0.6806 -0.2647 -0.4771
 8412TIP3    H149431   4.719   4.203  10.044 -0.4108 -0.7101 -0.7074
 8412TIP3    H249432   4.706   4.061  10.096 -1.3915 -0.7296 -0.9849
 8413TIP3   OH249433   2.827   4.063   7.689  0.1718 -0.0261 -0.4697
 8413TIP3    H149434   2.744   4.027   7.657 -0.8610  2.2150 -0.4660
 8413TIP3    H249435   2.885   4.061   7.613 -0.5184  0.2249 -1.0090
 8414TIP3   OH249436   1.601   4.863   7.185 -0.3992  0.2354 -0.0624
 8414TIP3    H149437   1.632   4.937   7.238 -1.2051  0.3325  0.2991
 8414TIP3    H249438   1.578   4.796   7.249  0.1960 -0.2822 -0.3839
 8415TIP3   OH249439   1.028   4.610   6.615 -0.4800  0.2896  0.0311
 8415TIP3    H149440   1.123   4.614   6.616 -0.4663  0.0151 -0.3523
 8415TIP3    H249441   1.007   4.524   6.580 -0.8753  0.9709 -1.4935
 8416TIP3   OH249442   0.033   0.475   7.656 -0.6995  0.0776  0.1626
 8416TIP3    H149443  -0.032   0.418   7.613 -0.9935  1.2534 -0.9956
 8416TIP3    H249444   0.103   0.483   7.592  0.1666 -0.3845  1.0298
 8417TIP3   OH249445   2.015   4.201   7.359  0.2436  0.2587 -0.2793
 8417TIP3    H149446   2.054   4.146   7.292  3.7876  1.2408  0.7699
 8417TIP3    H249447   2.074   4.277   7.366  0.1365  0.2046  3.8575
 8418TIP3   OH249448   4.683   1.287   6.945  0.6681 -0.8247  0.1752
 8418TIP3    H149449   4.765   1.320   6.980  1.2744 -2.0228 -0.0492
 8418TIP3    H249450   4.672   1.332   6.862  0.6809 -0.0706  0.5743
 8419TIP3   OH249451   6.544   3.455   8.018 -0.0169 -0.5051  0.1597
 8419TIP3    H149452   6.463   3.507   8.012 -0.7710 -1.5408  0.9453
 8419TIP3    H249453   6.553   3.414   7.932 -0.5717 -0.7214  0.2007
 8420TIP3   OH249454   1.725   3.843   9.156 -0.1116 -0.3036  0.1171
 8420TIP3    H149455   1.781   3.887   9.220  0.9765  0.1647 -1.1121
 8420TIP3    H249456   1.639   3.882   9.168 -0.0703 -0.6197  1.6548
 8421TIP3   OH249457   6.581   4.136   8.598 -0.2250 -0.0712  0.0457
 8421TIP3    H149458   6.513   4.088   8.645 -0.0671 -1.2582 -0.8635
 8421TIP3    H249459   6.601   4.080   8.523 -1.0456  2.0822 -1.9022
 8422TIP3   OH249460   0.449   6.444   9.554 -0.0653  0.5291 -0.2858
 8422TIP3    H149461   0.356   6.466   9.550  0.3011  2.0922 -0.7007
 8422TIP3    H249462   0.450   6.348   9.558 -1.6804  0.4730 -0.3832
 8423TIP3   OH249463   6.243   1.758   7.761 -0.1433  0.2461  1.1157
 8423TIP3    H149464   6.254   1.846   7.723 -2.7774 -0.3762 -1.5493
 8423TIP3    H249465   6.330   1.735   7.793  1.3129  2.7604 -0.5814
 8424TIP3   OH249466   2.691   2.281   6.743  0.7481  0.5275 -0.5419
 8424TIP3    H149467   2.654   2.194   6.731  1.5701 -0.0017  0.5482
 8424TIP3    H249468   2.786   2.267   6.745  0.8480  1.1944  1.2878
 8425TIP3   OH249469   3.399   2.023   6.929 -0.0746 -0.3522  0.3867
 8425TIP3    H149470   3.453   2.065   6.862 -0.8440  1.2959  0.7570
 8425TIP3    H249471   3.343   1.962   6.881  0.1867 -0.0406 -0.3282
 8426TIP3   OH249472   2.089   2.122   8.746  0.0449 -0.6722  0.2402
 8426TIP3    H149473   2.177   2.094   8.721  0.1835 -0.6239  0.6636
 8426TIP3    H249474   2.083   2.213   8.717  0.0360 -0.7608 -0.0354
 8427TIP3   OH249475   4.876   3.870   9.895 -0.2744 -0.2150  0.2106
 8427TIP3    H149476   4.935   3.900   9.826 -1.4645 -0.9682 -1.1871
 8427TIP3    H249477   4.928   3.808   9.946  0.1450 -0.9488 -1.0577
 8428TIP3   OH249478   1.494   0.968   8.635  0.3937 -0.4953  1.2217
 8428TIP3    H149479   1.485   0.889   8.583  0.2066  0.5452 -0.4144
 8428TIP3    H249480   1.588   0.974   8.653  1.2179  1.1286 -2.5247
 8429TIP3   OH249481   0.939   6.505   8.479  0.1116  0.1309  0.1732
 8429TIP3    H149482   0.846   6.529   8.480 -1.1380 -3.9431  0.9135
 8429TIP3    H249483   0.963   6.499   8.571  0.9802  0.6045 -0.0150
 8430TIP3   OH249484   1.369   4.891   8.569 -0.0170 -0.2739  0.3450
 8430TIP3    H149485   1.441   4.886   8.506  0.5264 -1.6511  1.0193
 8430TIP3    H249486   1.298   4.933   8.521  0.8031 -0.0903 -0.7594
 8431TIP3   OH249487   3.221   2.798   9.270 -0.4531 -0.2738  0.1144
 8431TIP3    H149488   3.185   2.791   9.358 -0.3214 -0.4682  0.1533
 8431TIP3    H249489   3.211   2.711   9.233  1.4119 -0.7781  0.6867
 8432TIP3   OH249490   6.641   2.730   9.367  0.1359  0.4148  0.1759
 8432TIP3    H149491   6.590   2.650   9.351 -0.9707  1.1131  0.1286
 8432TIP3    H249492   6.615   2.758   9.454  1.4812  0.0502  0.7244
 8433TIP3   OH249493   4.801   0.122   7.634 -0.3966  0.4302 -0.0583
 8433TIP3    H149494   4.727   0.100   7.691 -1.8547 -1.9909 -2.6041
 8433TIP3    H249495   4.876   0.078   7.674 -1.3635 -1.1953  0.0550
 8434TIP3   OH249496   5.043   4.013   9.705 -0.3225 -0.0041 -0.1759
 8434TIP3    H149497   5.037   4.087   9.765  1.8999 -1.7598  2.4664
 8434TIP3    H249498   5.133   4.015   9.673 -1.0909  0.0883 -2.4750
 8435TIP3   OH249499   6.594   5.971   8.584  0.2922 -0.0095 -0.0832
 8435TIP3    H149500   6.683   5.980   8.616  0.3812  0.4981 -0.4502
 8435TIP3    H249501   6.597   6.005   8.494 -0.5692  1.3598  0.3815
 8436TIP3   OH249502   3.880   1.640   8.166 -0.0450 -0.0753 -0.4428
 8436TIP3    H149503   3.959   1.694   8.162 -0.0792  0.3602  2.5214
 8436TIP3    H249504   3.818   1.684   8.108  0.8425  1.5165 -0.2407
 8437TIP3   OH249505   3.379   4.093   9.569 -0.5200  0.1754  0.2242
 8437TIP3    H149506   3.395   3.998   9.569  1.0887  0.3955 -1.1627
 8437TIP3    H249507   3.409   4.122   9.656  1.1589 -0.3054 -0.1538
 8438TIP3   OH249508   1.217   6.694   8.886 -0.8714  0.0404 -0.1857
 8438TIP3    H149509   1.271   6.740   8.951  0.3310  1.3577 -2.0085
 8438TIP3    H249510   1.164   6.763   8.846 -2.4260 -0.9225  0.1433
 8439TIP3   OH249511   4.397   5.928   8.255 -0.2538  0.1613 -0.0123
 8439TIP3    H149512   4.461   5.933   8.326  0.4677 -1.6063 -0.4617
 8439TIP3    H249513   4.420   5.847   8.208 -2.4092 -0.1807 -0.6012
 8440TIP3   OH249514   1.728   6.023   6.495  0.1192 -0.2355  0.3158
 8440TIP3    H149515   1.688   6.069   6.569 -1.0372  1.6777 -1.3987
 8440TIP3    H249516   1.719   5.930   6.517  1.7377  0.2121  3.5069
 8441TIP3   OH249517   3.493   1.467   6.834 -0.3852 -0.2567 -0.1324
 8441TIP3    H149518   3.429   1.511   6.889 -0.8080  0.9833 -1.5425
 8441TIP3    H249519   3.473   1.374   6.843 -1.7505  0.0541  0.2277
 8442TIP3   OH249520   6.047   3.634   7.419 -0.1345  0.2302  0.2335
 8442TIP3    H149521   6.116   3.699   7.433  0.6312 -0.8421  1.6427
 8442TIP3    H249522   5.993   3.671   7.349  1.0860  1.7182  0.0374
 8443TIP3   OH249523   0.682   5.413   8.407  0.5021 -0.0062 -0.2235
 8443TIP3    H149524   0.718   5.357   8.339  0.2986 -2.9393  1.8708
 8443TIP3    H249525   0.745   5.408   8.479 -1.2050 -0.5509  1.3472
 8444TIP3   OH249526   3.940   3.148   7.119  0.2617  0.7275  0.2628
 8444TIP3    H149527   3.934   3.231   7.072 -1.5246  0.8290  0.5905
 8444TIP3    H249528   3.929   3.172   7.211 -0.7928  0.1122  0.3198
 8445TIP3   OH249529   4.292   5.148   7.928 -0.0201  0.0083 -0.2115
 8445TIP3    H149530   4.233   5.074   7.913 -1.2367  1.1963 -1.5893
 8445TIP3    H249531   4.252   5.221   7.880  1.8335  1.2302 -0.0015
 8446TIP3   OH249532   4.689   3.225   7.246  0.7668  0.2273 -0.5311
 8446TIP3    H149533   4.755   3.266   7.190  1.7386  0.5185  0.7888
 8446TIP3    H249534   4.739   3.186   7.318 -0.4703  0.1670  0.3261
 8447TIP3   OH249535   1.368   6.006   8.737 -0.1764  0.1856 -0.0909
 8447TIP3    H149536   1.434   5.991   8.806  0.4572  0.2315 -0.6784
 8447TIP3    H249537   1.338   5.918   8.714  1.5183 -0.0674 -1.5749
 8448TIP3   OH249538   1.753   0.534   9.136  0.1426 -0.1620 -0.3706
 8448TIP3    H149539   1.832   0.498   9.096  0.8641  0.3683  0.5336
 8448TIP3    H249540   1.682   0.485   9.096  1.0324 -1.9548  0.1172
 8449TIP3   OH249541   1.176   5.417   8.717 -0.1809 -0.6430  0.2538
 8449TIP3    H149542   1.201   5.442   8.806 -0.3704 -1.0820  0.4332
 8449TIP3    H249543   1.247   5.360   8.687  0.8829  1.0872 -0.6216
 8450TIP3   OH249544   1.717   1.516   7.300 -0.0754 -0.3029  0.3148
 8450TIP3    H149545   1.722   1.504   7.395 -1.4438 -0.6106  0.3727
 8450TIP3    H249546   1.640   1.465   7.274  1.7392 -2.3930 -1.3302
 8451TIP3   OH249547   6.154   5.315   7.736  0.0022  0.6038 -0.2597
 8451TIP3    H149548   6.152   5.384   7.669  0.4289  1.4757  0.6060
 8451TIP3    H249549   6.202   5.243   7.694 -0.9780  0.5687 -1.3972
 8452TIP3   OH249550   0.091   1.950   6.506 -0.5241  0.9211 -0.3314
 8452TIP3    H149551   0.057   1.891   6.573 -1.6769  0.0524 -1.6320
 8452TIP3    H249552   0.143   2.013   6.555 -1.5563  0.4982  1.4243
 8453TIP3   OH249553   6.716   3.122   7.060  0.4467  0.5108 -0.1344
 8453TIP3    H149554   6.663   3.102   7.137  0.4415 -1.6483 -0.6251
 8453TIP3    H249555   6.805   3.094   7.083  0.5307  0.2461 -0.7475
 8454TIP3   OH249556   0.253   1.637   8.226  0.2576  0.1960 -0.1789
 8454TIP3    H149557   0.280   1.701   8.292  0.0856  0.6329 -0.5274
 8454TIP3    H249558   0.158   1.643   8.224  0.2509  0.0376 -0.3251
 8455TIP3   OH249559   6.554   2.850   7.416  0.4585  0.2206  0.3028
 8455TIP3    H149560   6.480   2.841   7.356  0.9950 -1.5284 -0.1425
 8455TIP3    H249561   6.630   2.823   7.365  0.8529 -1.9964  1.9256
 8456TIP3   OH249562   4.355   4.044   7.392  0.2778 -0.0270  0.1919
 8456TIP3    H149563   4.400   4.086   7.319 -0.0599 -1.2266 -0.7281
 8456TIP3    H249564   4.277   4.099   7.406 -0.0611 -0.2122 -0.8669
 8457TIP3   OH249565   5.143   1.349   9.858  0.0011 -0.7294 -0.4822
 8457TIP3    H149566   5.064   1.403   9.862  1.2355  1.2988 -1.6201
 8457TIP3    H249567   5.113   1.261   9.878 -2.2238  0.2613  0.9256
 8458TIP3   OH249568   6.074   3.834   9.348  0.1800  0.3442  0.0630
 8458TIP3    H149569   6.053   3.741   9.361  1.6477 -0.0726 -0.3070
 8458TIP3    H249570   6.169   3.839   9.363  0.1992  1.6927 -0.3936
 8459TIP3   OH249571   2.610   3.291   6.930  0.1725 -0.6160  0.5999
 8459TIP3    H149572   2.536   3.253   6.882  0.0705  0.0184  0.2474
 8459TIP3    H249573   2.623   3.232   7.004  0.0384 -1.3634  0.0476
 8460TIP3   OH249574   0.056   5.582   8.885  0.9262 -0.3598 -0.0106
 8460TIP3    H149575   0.105   5.608   8.963 -0.2575 -0.7535  0.8852
 8460TIP3    H249576   0.002   5.658   8.863  0.6594 -0.5338  0.0370
 8461TIP3   OH249577   3.427   0.523   7.428 -0.4255  0.1256  0.1542
 8461TIP3    H149578   3.342   0.520   7.385  0.0771 -0.3958 -0.8184
 8461TIP3    H249579   3.443   0.616   7.445 -0.3104  0.4223 -1.4480
 8462TIP3   OH249580   2.462   5.949   9.306 -0.1100 -0.6602  0.0170
 8462TIP3    H149581   2.507   5.870   9.335  1.3350  0.4395  0.9035
 8462TIP3    H249582   2.457   6.004   9.384  0.5406  0.8485 -0.9567
 8463TIP3   OH249583   6.589   6.307   7.078 -0.4307 -0.3744  0.3523
 8463TIP3    H149584   6.568   6.393   7.113 -0.3780 -1.1267  2.3396
 8463TIP3    H249585   6.516   6.285   7.020 -0.1086  1.2606 -0.7361
 8464TIP3   OH249586   3.397   5.893   9.297  0.3164 -0.2015  0.2245
 8464TIP3    H149587   3.402   5.967   9.358 -1.1850  0.6969 -0.6732
 8464TIP3    H249588   3.317   5.908   9.248  1.5846 -0.7641 -2.1528
 8465TIP3   OH249589   1.153   4.758   7.502  0.8816 -0.7234  0.3540
 8465TIP3    H149590   1.095   4.682   7.512 -0.2802  0.1266  0.2419
 8465TIP3    H249591   1.170   4.788   7.591  1.0165 -0.8595  0.3759
 8466TIP3   OH249592   2.387   3.455   7.801 -0.2067  0.4855 -0.1502
 8466TIP3    H149593   2.432   3.383   7.756 -0.3259  0.3862 -0.1111
 8466TIP3    H249594   2.299   3.421   7.817 -0.2695  0.6495 -0.1517
 8467TIP3   OH249595   6.564   2.876   9.594  0.1182  0.6065 -0.4278
 8467TIP3    H149596   6.544   2.787   9.625 -0.3253  1.1331  0.8922
 8467TIP3    H249597   6.589   2.923   9.674 -2.2860  2.3893 -0.6232
 8468TIP3   OH249598   4.809   6.112   8.540  0.4237  0.1320 -0.4526
 8468TIP3    H149599   4.793   6.186   8.599  2.8565  1.9885 -1.8995
 8468TIP3    H249600   4.856   6.048   8.593 -1.1071 -0.1272  0.6479
 8469TIP3   OH249601   5.196   5.237   6.943 -0.0327  0.1092 -0.6823
 8469TIP3    H149602   5.167   5.239   6.852  2.5361 -1.6216 -1.6469
 8469TIP3    H249603   5.241   5.153   6.952 -1.0769 -0.2307  2.5237
 8470TIP3   OH249604   3.217   4.252   8.681  0.0854 -0.4793 -0.1748
 8470TIP3    H149605   3.160   4.266   8.757 -0.6020  0.0484 -0.7884
 8470TIP3    H249606   3.251   4.338   8.660 -2.3224  0.0218 -2.4933
 8471TIP3   OH249607   4.139   1.813   6.483 -0.7020 -0.2176 -0.2063
 8471TIP3    H149608   4.061   1.846   6.438 -0.0559 -0.0177 -1.2389
 8471TIP3    H249609   4.119   1.722   6.504 -1.7683  0.2495  0.9040
 8472TIP3   OH249610   2.228   2.833  10.357  0.5907 -0.1850 -0.0906
 8472TIP3    H149611   2.280   2.753  10.347  0.4894 -0.3616  0.7357
 8472TIP3    H249612   2.287   2.903  10.329  1.0636 -0.4507  0.2193
 8473TIP3   OH249613   2.464   1.922   8.214  0.5169  0.3232 -0.3530
 8473TIP3    H149614   2.468   1.896   8.306  1.0669 -0.4615 -0.5866
 8473TIP3    H249615   2.377   1.961   8.203  0.4845  0.5055  0.5162
 8474TIP3   OH249616   6.180   5.031   7.921  0.0741  0.6460  1.0764
 8474TIP3    H149617   6.104   4.985   7.885  0.8013 -0.6290  1.1172
 8474TIP3    H249618   6.145   5.079   7.996 -1.0129  1.4876  0.0677
 8475TIP3   OH249619   0.957   1.798   8.380 -0.0282 -0.2639 -0.2932
 8475TIP3    H149620   0.942   1.736   8.451 -1.3887  1.4107  0.9770
 8475TIP3    H249621   0.926   1.882   8.415  0.2511  0.8279 -2.5062
 8476TIP3   OH249622   3.678   0.274   8.927  0.3576  0.4786 -0.5217
 8476TIP3    H149623   3.600   0.323   8.898 -1.0655 -1.1332  0.4251
 8476TIP3    H249624   3.707   0.320   9.006 -2.5642 -1.5468  1.9397
 8477TIP3   OH249625   3.001   2.924   8.609 -0.2601  0.1466  0.5301
 8477TIP3    H149626   3.039   2.870   8.678  1.7748 -0.8400 -1.2420
 8477TIP3    H249627   3.043   3.010   8.620 -1.3676  0.5943  1.5988
 8478TIP3   OH249628   0.295   1.773   8.979 -0.2438  0.0950  0.4503
 8478TIP3    H149629   0.287   1.813   9.065 -0.0590  4.0521 -1.1572
 8478TIP3    H249630   0.211   1.793   8.936 -0.3437 -1.8118 -0.3618
 8479TIP3   OH249631   1.512   2.457   7.262  0.0350 -0.4411 -0.2826
 8479TIP3    H149632   1.491   2.548   7.241 -0.3372 -0.6445 -0.8266
 8479TIP3    H249633   1.533   2.458   7.356  2.1245  0.5611 -0.6958
 8480TIP3   OH249634   2.276   5.777   7.206 -0.3037  0.1820 -0.4980
 8480TIP3    H149635   2.263   5.777   7.301  0.2555  1.7538 -0.3946
 8480TIP3    H249636   2.267   5.869   7.181  1.9475  0.1569 -1.6140
 8481TIP3   OH249637   0.877   5.566   9.332  0.2857  0.2696  0.0183
 8481TIP3    H149638   0.955   5.538   9.378  2.0574  1.7383 -1.8929
 8481TIP3    H249639   0.829   5.620   9.395  1.7828  0.8937  0.6531
 8482TIP3   OH249640   3.034   4.343   7.395 -0.4405  0.1218  0.2001
 8482TIP3    H149641   3.092   4.380   7.328  1.3689 -0.8658  1.1833
 8482TIP3    H249642   2.962   4.305   7.345  0.8459 -0.5551 -1.2016
 8483TIP3   OH249643   4.733   0.204   6.718  0.2187  0.8726  0.8533
 8483TIP3    H149644   4.670   0.215   6.789  0.3923 -0.1599  1.1863
 8483TIP3    H249645   4.768   0.115   6.730 -0.0529  0.5039 -0.7686
 8484TIP3   OH249646   1.993   6.532   8.194  0.8572 -0.0569  0.4073
 8484TIP3    H149647   1.960   6.541   8.283 -0.3408 -2.4952  0.2937
 8484TIP3    H249648   2.080   6.493   8.205  0.3979 -1.0949  0.5454
 8485TIP3   OH249649   0.012   1.348   7.392 -0.3038 -0.0954 -0.4018
 8485TIP3    H149650   0.033   1.266   7.348  1.3976  0.6261 -1.0389
 8485TIP3    H249651   0.027   1.415   7.325 -1.5981  0.7716  0.1223
 8486TIP3   OH249652   3.281   3.577   9.462 -0.0559 -0.5491 -0.1283
 8486TIP3    H149653   3.240   3.532   9.536 -2.8357  0.9078 -0.6463
 8486TIP3    H249654   3.228   3.553   9.386  0.7249  0.5625 -1.0729
 8487TIP3   OH249655   0.101   0.061   6.533  0.1057 -0.1783  0.6243
 8487TIP3    H149656   0.058  -0.015   6.492  1.1764 -0.2542 -0.3957
 8487TIP3    H249657   0.028   0.114   6.565 -0.7333 -0.7256 -0.3047
 8488TIP3   OH249658   5.869   5.838   8.904 -0.2060 -0.7910  0.6022
 8488TIP3    H149659   5.958   5.803   8.896 -0.0014 -0.6126  1.9263
 8488TIP3    H249660   5.881   5.933   8.901 -0.3738 -0.7699  0.6082
 8489TIP3   OH249661   5.136   3.510   8.124  0.0895  0.6033 -0.8041
 8489TIP3    H149662   5.088   3.431   8.149 -1.9700  1.9219 -0.3342
 8489TIP3    H249663   5.106   3.576   8.186  0.7116  2.0998 -2.0531
 8490TIP3   OH249664   5.232   6.492   8.372 -0.0975 -0.2404 -0.0052
 8490TIP3    H149665   5.175   6.531   8.438 -0.2129  0.0818 -0.2930
 8490TIP3    H249666   5.175   6.433   8.323 -0.1313 -0.0873 -0.1497
 8491TIP3   OH249667   0.821   3.908   7.933  0.2631  0.4784  0.0095
 8491TIP3    H149668   0.900   3.860   7.961 -0.4244 -1.3725 -1.0302
 8491TIP3    H249669   0.854   3.991   7.901  1.7354 -0.0110  0.1681
 8492TIP3   OH249670   4.553   4.271   7.009 -0.4159 -0.2527  0.4772
 8492TIP3    H149671   4.582   4.358   7.034  0.6288 -0.7868  1.1745
 8492TIP3    H249672   4.513   4.235   7.088  0.2643 -0.8545  0.5611
 8493TIP3   OH249673   3.980   5.270   8.911  0.2033 -0.3913 -0.0308
 8493TIP3    H149674   3.955   5.300   8.998 -0.9536 -0.3613 -0.3605
 8493TIP3    H249675   4.007   5.179   8.924  0.3052 -0.3028  0.3983
 8494TIP3   OH249676   0.256   6.134   8.097 -0.0135  0.1887 -0.5566
 8494TIP3    H149677   0.313   6.177   8.160  1.2312 -0.8760 -0.9126
 8494TIP3    H249678   0.192   6.087   8.150 -0.0089  0.6420 -0.1374
 8495TIP3   OH249679   1.192   0.772   9.560 -0.3898  0.3735  0.4900
 8495TIP3    H149680   1.200   0.683   9.595 -0.1565  0.1682 -0.0684
 8495TIP3    H249681   1.251   0.824   9.614 -0.7066  0.2368  0.9730
 8496TIP3   OH249682   3.410   4.218   9.319  0.3797 -0.1659 -0.1535
 8496TIP3    H149683   3.331   4.238   9.267  0.7344 -0.0138 -0.6453
 8496TIP3    H249684   3.376   4.190   9.404 -0.2062 -0.0504 -0.3406
 8497TIP3   OH249685   1.748   5.899   6.791 -0.5859  0.9160  0.3701
 8497TIP3    H149686   1.813   5.852   6.844  0.0738  1.8250  0.4007
 8497TIP3    H249687   1.753   5.857   6.705 -1.3780 -0.3050  0.9032
 8498TIP3   OH249688   3.757   6.479   7.795  0.3983  0.4537  0.2158
 8498TIP3    H149689   3.695   6.446   7.730 -0.7694  0.6302  1.1964
 8498TIP3    H249690   3.838   6.433   7.776  0.1215  0.6048 -1.4326
 8499TIP3   OH249691   5.945   4.746   8.416  0.0652  0.1884  0.4103
 8499TIP3    H149692   5.857   4.715   8.437 -0.0552  1.2902  1.6843
 8499TIP3    H249693   5.930   4.814   8.350  0.1279 -0.7951 -0.6397
 8500TIP3   OH249694   0.350   5.661   6.820  0.0402 -0.1045  0.0881
 8500TIP3    H149695   0.387   5.637   6.735 -0.6760 -0.9432 -0.0025
 8500TIP3    H249696   0.382   5.593   6.880 -0.3448 -0.1443  0.2544
 8501TIP3   OH249697   4.503   2.490   8.985 -0.2183 -0.3728 -0.0284
 8501TIP3    H149698   4.561   2.522   9.054 -0.3853 -0.9149  0.3710
 8501TIP3    H249699   4.504   2.559   8.918  0.3460 -0.0743  0.2836
 8502TIP3   OH249700   5.722   4.244   7.015 -0.0507  0.3015 -0.4340
 8502TIP3    H149701   5.682   4.182   6.954  3.2633 -3.3479  0.6279
 8502TIP3    H249702   5.657   4.254   7.085 -1.6589  0.0267 -1.8225
 8503TIP3   OH249703   3.698   6.234   8.638  0.0757  0.7529 -0.4367
 8503TIP3    H149704   3.783   6.200   8.610  0.5652  0.9605  0.7539
 8503TIP3    H249705   3.719   6.307   8.696 -0.8233 -0.7252  1.8877
 8504TIP3   OH249706   0.931   2.811  10.163  0.5645  0.0114  0.4740
 8504TIP3    H149707   0.926   2.898  10.202 -0.6826 -0.8586  2.3932
 8504TIP3    H249708   1.020   2.806  10.126  0.0427  2.7540 -1.4805
 8505TIP3   OH249709   0.697   2.997   8.849 -0.0400  0.3436  0.6165
 8505TIP3    H149710   0.721   2.943   8.924  1.7869  1.4060  0.8541
 8505TIP3    H249711   0.777   3.045   8.827  0.3671 -1.8143 -3.6898
 8506TIP3   OH249712   3.571   4.466   8.872 -0.0406 -0.4043  0.2053
 8506TIP3    H149713   3.533   4.434   8.790 -2.0325  0.3930  0.7586
 8506TIP3    H249714   3.541   4.405   8.939  2.7472 -1.8917  0.2497
 8507TIP3   OH249715   5.421   2.538   7.571 -0.6130 -0.0844 -0.0677
 8507TIP3    H149716   5.395   2.584   7.651  0.6536 -1.1416  0.9997
 8507TIP3    H249717   5.468   2.604   7.520 -0.2157  0.2518  0.7077
 8508TIP3   OH249718   4.386   2.287   9.085  0.4433 -0.1307 -0.0904
 8508TIP3    H149719   4.423   2.223   9.024  1.2692 -0.8675  1.1279
 8508TIP3    H249720   4.421   2.371   9.055  0.0685 -0.3405 -1.1792
 8509TIP3   OH249721   5.468   3.796   8.633  0.2244 -0.2706 -0.1368
 8509TIP3    H149722   5.435   3.809   8.545  1.4685 -0.0199 -0.5888
 8509TIP3    H249723   5.535   3.864   8.645 -0.9921  0.7155  1.5909
 8510TIP3   OH249724   0.946   3.880   8.540  0.3085  0.6819 -0.1905
 8510TIP3    H149725   0.995   3.960   8.556  1.8422  0.1033 -1.6995
 8510TIP3    H249726   0.908   3.891   8.453 -1.7988  0.8556  0.6878
 8511TIP3   OH249727   4.313   6.079   9.076  0.2022 -0.1055  0.2564
 8511TIP3    H149728   4.233   6.034   9.101 -0.1334  1.3159  1.9339
 8511TIP3    H249729   4.371   6.069   9.152 -0.3921  3.3330  1.3418
 8512TIP3   OH249730   2.534   5.170   7.720 -0.5451 -0.1256 -0.5165
 8512TIP3    H149731   2.590   5.100   7.754  0.1861  0.4933 -0.4201
 8512TIP3    H249732   2.531   5.156   7.626 -1.1357 -0.8038 -0.4106
 8513TIP3   OH249733   5.572   2.270   8.081  0.0672  0.0145  0.2137
 8513TIP3    H149734   5.593   2.201   8.144  1.1709 -0.1738 -0.3498
 8513TIP3    H249735   5.488   2.305   8.112  0.4711 -0.2169  1.6598
 8514TIP3   OH249736   0.303   6.384   9.091  0.2252 -0.3356  0.0317
 8514TIP3    H149737   0.251   6.439   9.149 -0.6191 -0.3823 -0.6597
 8514TIP3    H249738   0.394   6.412   9.106 -0.0486  0.1532  0.8250
 8515TIP3   OH249739   3.261   0.252   7.726  0.1438 -0.2785  0.6103
 8515TIP3    H149740   3.248   0.189   7.797 -1.1466 -0.7696 -0.0324
 8515TIP3    H249741   3.356   0.267   7.724  0.3240 -1.1781  1.6411
 8516TIP3   OH249742   4.096   3.078   8.494  0.2106  0.0370 -0.4302
 8516TIP3    H149743   4.005   3.094   8.519  0.0586 -1.8398  0.3365
 8516TIP3    H249744   4.091   3.051   8.402  0.2213  1.6308 -0.9431
 8517TIP3   OH249745   3.551   5.374   8.587  0.0641 -0.2905 -0.8212
 8517TIP3    H149746   3.576   5.353   8.677 -1.0883 -1.7500 -0.8063
 8517TIP3    H249747   3.635   5.387   8.542  0.6669  0.0617  0.3558
 8518TIP3   OH249748   6.139   3.586   8.873  0.7568 -0.4714  0.0806
 8518TIP3    H149749   6.103   3.497   8.876  3.0327 -1.4994 -0.7057
 8518TIP3    H249750   6.136   3.610   8.780  0.1387  0.3088  0.2903
 8519TIP3   OH249751   5.322   0.882   6.559 -0.4458  0.2652 -0.3562
 8519TIP3    H149752   5.255   0.820   6.589  0.0651  0.3874  1.1182
 8519TIP3    H249753   5.273   0.961   6.535 -1.2131 -0.9036 -3.1178
 8520TIP3   OH249754   2.635   6.482   7.181  0.0238 -0.0300  0.5236
 8520TIP3    H149755   2.617   6.513   7.093 -0.4714 -0.4208  0.4842
 8520TIP3    H249756   2.661   6.390   7.170  0.1382 -0.0293  0.7659
 8521TIP3   OH249757   1.695   1.830   8.094  0.5828 -0.0580 -0.2260
 8521TIP3    H149758   1.639   1.834   8.172  0.3961 -1.6122 -0.2427
 8521TIP3    H249759   1.676   1.911   8.047 -0.2003  0.3434  0.7373
 8522TIP3   OH249760   3.981   5.364   6.534 -0.8088 -0.3660 -0.1302
 8522TIP3    H149761   3.939   5.410   6.607  1.0376  1.9846 -0.4006
 8522TIP3    H249762   3.923   5.378   6.459 -1.2121 -0.1317  0.2235
 8523TIP3   OH249763   5.950   6.343   9.108 -0.1403 -0.0947  0.3376
 8523TIP3    H149764   5.927   6.436   9.102 -1.2781 -0.3738  0.0724
 8523TIP3    H249765   6.013   6.330   9.036  0.5705  0.6084  0.8172
 8524TIP3   OH249766   4.766   3.876   6.988  0.7184 -0.0156  0.1180
 8524TIP3    H149767   4.762   3.924   7.071  1.0429  1.7820 -0.8442
 8524TIP3    H249768   4.689   3.819   6.989  0.6805  0.0242  1.6050
 8525TIP3   OH249769   6.399   1.339   6.861  0.2216  0.3238  0.3816
 8525TIP3    H149770   6.318   1.315   6.905 -0.6860  2.8879  0.3030
 8525TIP3    H249771   6.395   1.294   6.776 -2.2243  2.0171 -0.4995
 8526TIP3   OH249772   4.126   2.570   9.084 -0.1782 -0.8772 -0.3830
 8526TIP3    H149773   4.041   2.549   9.044  0.1487  0.1421 -1.7094
 8526TIP3    H249774   4.172   2.486   9.088 -1.7146 -1.6993  1.6300
 8527TIP3   OH249775   5.557   1.634   7.436  0.1000 -0.0289 -0.0615
 8527TIP3    H149776   5.531   1.708   7.380  1.2865  1.4486  1.2334
 8527TIP3    H249777   5.572   1.674   7.522  1.2654 -1.7223  0.5672
 8528TIP3   OH249778   2.079   2.644   7.689  1.0891 -0.1244 -0.1306
 8528TIP3    H149779   2.109   2.727   7.726 -3.3129  2.3475 -1.3678
 8528TIP3    H249780   2.013   2.613   7.751 -1.5531  0.5838 -2.3793
 8529TIP3   OH249781   0.657   0.675   7.603  0.0329  0.6595  0.4903
 8529TIP3    H149782   0.667   0.761   7.562 -0.3157 -0.4214 -2.0665
 8529TIP3    H249783   0.744   0.635   7.597 -0.3032  0.0308 -0.3552
 8530TIP3   OH249784   2.661   3.070   7.098  0.2870  0.2883  0.4657
 8530TIP3    H149785   2.718   2.995   7.079 -0.1513  0.0679 -0.0298
 8530TIP3    H249786   2.577   3.045   7.060 -0.0091  0.8100  0.7723
 8531TIP3   OH249787   5.653   2.084   7.586 -0.1161 -0.5633 -0.6155
 8531TIP3    H149788   5.620   2.132   7.662 -0.7338 -1.3522 -0.3809
 8531TIP3    H249789   5.579   2.079   7.526  0.1948 -0.4823 -1.0148
 8532TIP3   OH249790   6.570   6.258   7.694  0.0583 -0.4966 -0.1516
 8532TIP3    H149791   6.528   6.231   7.776 -0.0227 -1.9832 -0.6569
 8532TIP3    H249792   6.611   6.178   7.661  0.5795  0.2210 -1.2790
 8533TIP3   OH249793   4.404   4.956   6.991  0.1928  0.3452 -0.8809
 8533TIP3    H149794   4.366   5.024   6.935  1.3661 -0.7412 -3.1156
 8533TIP3    H249795   4.489   4.936   6.951  0.9337 -0.7825  1.0942
 8534TIP3   OH249796   5.077   6.126   6.774  0.1464  0.2349  0.4710
 8534TIP3    H149797   5.138   6.075   6.826  1.2995  0.6611 -0.4354
 8534TIP3    H249798   5.106   6.216   6.784 -2.0870  0.8532  2.3599
 8535TIP3   OH249799   1.133   4.785   9.540 -0.0152 -0.0702 -0.3213
 8535TIP3    H149800   1.222   4.758   9.560 -0.5963 -1.2077  0.9147
 8535TIP3    H249801   1.101   4.822   9.622 -0.4358  1.0676 -0.9774
 8536TIP3   OH249802   2.636   2.869   6.511  0.2900 -0.8070  0.0945
 8536TIP3    H149803   2.644   2.778   6.539 -3.9017 -1.1661  0.7654
 8536TIP3    H249804   2.684   2.918   6.578  1.3909 -2.3663  0.5229
 8537TIP3   OH249805   1.356   4.377   7.811  0.1279  0.3715 -0.0887
 8537TIP3    H149806   1.417   4.422   7.752 -0.0534  0.2870 -0.3415
 8537TIP3    H249807   1.365   4.285   7.789  3.0344 -0.1961  2.7247
 8538TIP3   OH249808   1.979   4.951   8.210 -0.0381 -0.0145  0.2984
 8538TIP3    H149809   1.886   4.931   8.208  0.0674 -0.4822 -1.2880
 8538TIP3    H249810   2.011   4.909   8.290 -1.2272  0.4195  1.0247
 8539TIP3   OH249811   0.236   1.250   6.641  0.2687 -0.3447  0.1295
 8539TIP3    H149812   0.295   1.180   6.614  0.1354 -0.6581  0.6437
 8539TIP3    H249813   0.243   1.315   6.570  1.3537 -0.2937  0.2591
 8540TIP3   OH249814   4.150   3.485   8.992  0.1862  0.3705 -0.0505
 8540TIP3    H149815   4.058   3.500   8.970  0.0062  1.1191  1.1326
 8540TIP3    H249816   4.183   3.431   8.920 -1.1786  0.0624 -0.4797
 8541TIP3   OH249817   1.889   6.673   7.725 -0.6230  0.5149 -0.1586
 8541TIP3    H149818   1.819   6.696   7.786 -1.9719  0.2240 -1.5451
 8541TIP3    H249819   1.876   6.732   7.651  0.2793  0.0886 -0.6654
 8542TIP3   OH249820   5.067   5.511   8.419 -0.6845  0.3956  0.3093
 8542TIP3    H149821   5.000   5.489   8.354 -2.3057 -0.7017  2.2680
 8542TIP3    H249822   5.020   5.516   8.502  1.4877  0.7258  1.5955
 8543TIP3   OH249823   0.434   1.165   8.376  0.5016 -0.1390  0.0283
 8543TIP3    H149824   0.472   1.160   8.288 -0.2740  0.4694 -0.3563
 8543TIP3    H249825   0.433   1.075   8.407  0.8715 -0.3484 -0.5597
 8544TIP3   OH249826   0.187   0.490   8.642  0.2574  0.2512 -0.3417
 8544TIP3    H149827   0.103   0.534   8.629  0.0119  0.5573  1.8483
 8544TIP3    H249828   0.237   0.510   8.564 -0.2215  3.6000  0.0725
 8545TIP3   OH249829   0.752   1.814   6.697 -0.9136 -0.0266 -0.1248
 8545TIP3    H149830   0.693   1.770   6.635 -0.2922 -0.5968 -0.3232
 8545TIP3    H249831   0.823   1.752   6.710  1.8059  2.1675 -3.0761
 8546TIP3   OH249832   1.964   1.327   7.136  0.4230 -0.0911 -0.1960
 8546TIP3    H149833   1.910   1.311   7.059  1.4257  2.4152 -1.5395
 8546TIP3    H249834   2.027   1.393   7.108  1.7060 -0.0627  2.4212
 8547TIP3   OH249835   6.042   2.686   8.739  0.1613  0.2264  0.5020
 8547TIP3    H149836   6.074   2.607   8.696 -1.1943  0.9208 -1.9874
 8547TIP3    H249837   5.957   2.662   8.774  0.7825 -0.0251  1.9077
 8548TIP3   OH249838   0.700   6.177   8.221 -0.3925 -0.2812  0.4114
 8548TIP3    H149839   0.673   6.196   8.310  0.1174  0.5154  0.4034
 8548TIP3    H249840   0.639   6.226   8.166  0.8830  1.3724  0.3907
 8549TIP3   OH249841   3.045   0.653   7.592  0.0681  0.1105  0.5242
 8549TIP3    H149842   3.063   0.573   7.642  0.1759  0.1499  0.5479
 8549TIP3    H249843   2.970   0.630   7.537 -0.4031  0.2383  1.1009
 8550TIP3   OH249844   4.910   2.967  17.629  0.3770  0.0373  0.3057
 8550TIP3    H149845   4.821   3.001  17.632  0.4838  0.3191  0.3596
 8550TIP3    H249846   4.919   2.916  17.709  0.3617  0.2623  0.4531
 8551TIP3   OH249847   0.516   0.330   7.064 -0.1468  0.1448 -0.0251
 8551TIP3    H149848   0.502   0.236   7.072 -1.7054  0.2211 -1.2025
 8551TIP3    H249849   0.593   0.348   7.117 -1.2275 -1.4040  2.2530
 8552TIP3   OH249850   0.033   4.321   7.562 -0.0543  0.3830 -0.0066
 8552TIP3    H149851   0.051   4.379   7.636 -1.7776  1.2727 -0.2101
 8552TIP3    H249852  -0.044   4.271   7.590  0.0311 -0.1576 -0.7192
 8553TIP3   OH249853   5.582   4.486  10.221  0.0506  0.0145 -0.4643
 8553TIP3    H149854   5.656   4.483  10.160  0.8876  2.0778  0.3742
 8553TIP3    H249855   5.548   4.575  10.214 -1.4390 -0.4622  0.2561
 8554TIP3   OH249856   4.479   4.609   9.339  0.3119  0.0632 -0.1401
 8554TIP3    H149857   4.516   4.641   9.421 -0.0413  2.3428 -0.7918
 8554TIP3    H249858   4.385   4.624   9.348  0.2068 -0.1990 -0.7488
 8555TIP3   OH249859   3.857   2.836   9.425 -0.1010  0.6955  0.0469
 8555TIP3    H149860   3.871   2.752   9.382 -0.0184  0.0336  1.3079
 8555TIP3    H249861   3.791   2.879   9.371 -1.1871 -0.7761  0.1188
 8556TIP3   OH249862   4.672   0.943   8.247  0.7533 -0.3809 -0.1472
 8556TIP3    H149863   4.624   0.897   8.179  0.7734 -1.5244  0.5841
 8556TIP3    H249864   4.616   1.017   8.270  0.6162 -0.1487 -1.1862
 8557TIP3   OH249865   5.871   1.666   7.061 -0.3191 -0.2932  0.4509
 8557TIP3    H149866   5.940   1.652   6.997 -0.1670  1.1124  0.2899
 8557TIP3    H249867   5.798   1.611   7.031  0.3994 -1.0880  0.1302
 8558TIP3   OH249868   5.878   5.582   7.174  0.0338  0.4637 -0.0738
 8558TIP3    H149869   5.797   5.633   7.178 -0.1152  0.1603  1.7631
 8558TIP3    H249870   5.907   5.576   7.266  2.3163  0.8364 -0.7077
 8559TIP3   OH249871   0.655   4.007   6.498 -0.1466  0.1575 -0.1585
 8559TIP3    H149872   0.733   4.062   6.491 -0.6677  1.1546  1.4020
 8559TIP3    H249873   0.634   3.983   6.408  1.6852  0.2405 -0.6433
 8560TIP3   OH249874   0.015   5.710   9.759 -0.1358 -0.6044 -0.1831
 8560TIP3    H149875  -0.002   5.786   9.703 -1.7028  0.1359  1.1848
 8560TIP3    H249876   0.061   5.746   9.835 -2.0390 -0.7271  1.0902
 8561TIP3   OH249877   3.088   2.855   7.473 -0.0557  0.1933  0.9105
 8561TIP3    H149878   3.178   2.862   7.440 -0.0996 -0.4058  0.6441
 8561TIP3    H249879   3.082   2.766   7.509 -0.5588  0.1958  0.8487
 8562TIP3   OH249880   4.987   3.776  16.314 -0.2576  0.2461  0.3957
 8562TIP3    H149881   4.995   3.789  16.408  0.6830  1.0753  0.2147
 8562TIP3    H249882   5.015   3.859  16.275  0.0040 -0.3027 -0.6327
 8563TIP3   OH249883   0.524   3.107   8.070  0.0181 -0.8011 -0.5204
 8563TIP3    H149884   0.499   3.082   8.159  0.3272  0.4308 -0.0589
 8563TIP3    H249885   0.620   3.106   8.070  0.0482  0.5273 -0.4132
 8564TIP3   OH249886   5.437   0.459   8.680  0.2378  0.1674 -0.2625
 8564TIP3    H149887   5.501   0.414   8.735  0.6619 -0.6410 -1.3858
 8564TIP3    H249888   5.428   0.545   8.720  2.2915  0.4385 -0.2603
 8565TIP3   OH249889   1.456   6.179   6.470 -0.2761 -0.2217  0.8298
 8565TIP3    H149890   1.388   6.113   6.462  0.3726 -1.0078  1.6033
 8565TIP3    H249891   1.533   6.140   6.429  0.2077 -0.0995  1.5908
 8566TIP3   OH249892   0.977   4.800   7.945 -0.0302  0.4496  0.0734
 8566TIP3    H149893   0.996   4.744   8.020  1.5099  1.2669  0.3213
 8566TIP3    H249894   0.883   4.788   7.930  0.1366 -1.7256  0.4770
 8567TIP3   OH249895   3.318   4.875   7.743 -0.2146  0.0394  0.0350
 8567TIP3    H149896   3.240   4.898   7.795 -0.2214  0.7173 -0.2592
 8567TIP3    H249897   3.372   4.954   7.745  0.4040 -0.3760  0.1096
 8568TIP3   OH249898   3.798   4.531   7.279 -0.2141 -0.1836 -0.6499
 8568TIP3    H149899   3.734   4.462   7.298  0.3150 -0.5074  0.0056
 8568TIP3    H249900   3.780   4.599   7.344  0.4968 -0.5508 -0.0461
 8569TIP3   OH249901   4.062   6.050   7.101  0.7575 -0.0036 -0.3681
 8569TIP3    H149902   3.973   6.024   7.123  0.3300  1.7045  0.0704
 8569TIP3    H249903   4.112   5.969   7.102 -0.2232 -0.6527  2.1946
 8570TIP3   OH249904   2.685   0.567   7.080  0.1861  0.2475  0.5517
 8570TIP3    H149905   2.698   0.505   7.152  0.7755  1.8915  1.9617
 8570TIP3    H249906   2.681   0.513   7.001  1.6815 -1.4928  1.5887
 8571TIP3   OH249907   5.227   6.526   6.657  0.2339  0.1578  0.3122
 8571TIP3    H149908   5.186   6.475   6.727 -0.4323  1.2803  0.7626
 8571TIP3    H249909   5.321   6.513   6.669  0.0983 -0.1917  1.0059
 8572TIP3   OH249910   0.119   1.629   9.673 -0.2037  0.0558 -0.1876
 8572TIP3    H149911   0.108   1.612   9.579  0.3685  1.2052 -0.4788
 8572TIP3    H249912   0.213   1.645   9.683 -0.2436 -0.1829  0.6076
 8573TIP3   OH249913   2.186   6.160   9.422 -0.2314 -0.0805 -0.1251
 8573TIP3    H149914   2.279   6.154   9.445 -0.2545  0.2677  0.0618
 8573TIP3    H249915   2.143   6.188   9.503 -0.1883  2.1296 -0.8141
 8574TIP3   OH249916   6.042   4.108   7.714 -0.1022 -0.4897 -0.3726
 8574TIP3    H149917   5.991   4.069   7.643 -0.9363 -0.2926  0.1044
 8574TIP3    H249918   6.019   4.201   7.711 -1.2280 -0.6920  1.0146
 8575TIP3   OH249919   4.953   4.971   9.520  0.1335  0.1750  0.0786
 8575TIP3    H149920   4.986   4.915   9.590  0.1448 -0.3291 -0.3212
 8575TIP3    H249921   4.859   4.954   9.518  0.0886  0.4151  0.1706
 8576TIP3   OH249922   6.142   0.991   8.659 -0.1899 -0.9021 -0.2300
 8576TIP3    H149923   6.129   1.002   8.565 -3.6624 -0.3128  0.1704
 8576TIP3    H249924   6.083   0.919   8.683  1.3342 -1.7058  1.4068
 8577TIP3   OH249925   5.726   0.207   8.047  0.0247  0.3054 -0.5815
 8577TIP3    H149926   5.720   0.250   8.132  1.3426  0.1260 -0.3778
 8577TIP3    H249927   5.747   0.277   7.986  1.1014  0.1503 -0.4171
 8578TIP3   OH249928   6.335   3.323   9.041  0.1083 -0.5495 -0.3291
 8578TIP3    H149929   6.382   3.278   8.970  0.3896  0.4933 -0.8147
 8578TIP3    H249930   6.343   3.416   9.021  0.0132 -0.2367  0.9622
 8579TIP3   OH249931   0.996   4.322   6.647  0.9429  0.3302 -0.3045
 8579TIP3    H149932   0.995   4.232   6.614  0.5237  0.5894 -1.0302
 8579TIP3    H249933   0.921   4.327   6.706  0.7347  0.3140 -0.5678
 8580TIP3   OH249934   1.100   6.622   9.562 -0.2282  0.8003  0.3000
 8580TIP3    H149935   1.195   6.611   9.564 -0.2879 -0.0636 -0.8623
 8580TIP3    H249936   1.088   6.717   9.555  0.5835  0.8626 -0.5078
 8581TIP3   OH249937   4.310   0.062   8.317 -0.8681 -0.6337 -0.2978
 8581TIP3    H149938   4.394   0.015   8.320 -1.5051 -1.7517  0.8499
 8581TIP3    H249939   4.327   0.144   8.363  0.4227  0.6564 -2.8427
 8582TIP3   OH249940   1.583   1.249   7.072  0.7115 -0.0196 -0.1317
 8582TIP3    H149941   1.576   1.332   7.026 -1.6734 -1.0447 -1.8584
 8582TIP3    H249942   1.534   1.262   7.153 -0.1176  0.1242 -0.6462
 8583TIP3   OH249943   2.747   6.316   8.019  0.3457 -0.2049 -0.2389
 8583TIP3    H149944   2.666   6.353   7.983  0.1225 -0.3823  0.0697
 8583TIP3    H249945   2.728   6.223   8.029  0.9861 -0.4475 -1.2230
 8584TIP3   OH249946   0.073   3.847   8.575  0.3988 -1.0403  0.5702
 8584TIP3    H149947   0.069   3.941   8.588  2.8292 -0.8554  0.3665
 8584TIP3    H249948   0.031   3.832   8.491 -0.1801 -0.1737  0.6972
 8585TIP3   OH249949   3.910   2.698   8.158 -0.2529  0.1578 -0.0447
 8585TIP3    H149950   3.903   2.633   8.088  0.6047  0.1494 -0.1284
 8585TIP3    H249951   3.859   2.773   8.126  0.4052  0.2782 -0.8261
 8586TIP3   OH249952   0.003   3.546   6.564 -0.4587 -0.1310  0.0913
 8586TIP3    H149953  -0.022   3.528   6.473  0.0834 -4.1489  0.5623
 8586TIP3    H249954   0.098   3.534   6.565 -0.4719 -0.2361  1.2230
 8587TIP3   OH249955   2.064   4.098   8.143  0.3345 -0.2690 -0.5497
 8587TIP3    H149956   2.078   4.138   8.229  1.0777 -0.1780 -0.7079
 8587TIP3    H249957   2.086   4.006   8.156 -1.9019 -0.7938 -0.0474
 8588TIP3   OH249958   1.297   5.719   9.288  0.5196 -0.4740  0.2095
 8588TIP3    H149959   1.245   5.752   9.361  0.6709 -0.9567  0.5363
 8588TIP3    H249960   1.316   5.797   9.235  0.4660 -0.1144  0.7162
 8589TIP3   OH249961   4.194   1.378   6.896 -0.2971 -0.6131  0.2948
 8589TIP3    H149962   4.247   1.432   6.953  0.4918 -1.8018  0.7320
 8589TIP3    H249963   4.169   1.303   6.950 -1.3989 -0.6790 -0.2732
 8590TIP3   OH249964   4.447   4.827   8.556 -0.5763  0.0801  0.1469
 8590TIP3    H149965   4.518   4.767   8.535 -0.5826  0.3879 -0.8279
 8590TIP3    H249966   4.408   4.849   8.471 -2.3306 -0.6737  0.7080
 8591TIP3   OH249967   1.656   3.796   7.388  0.2903 -0.5222 -0.5514
 8591TIP3    H149968   1.638   3.749   7.469 -0.6151  1.9315  0.7615
 8591TIP3    H249969   1.746   3.829   7.398 -1.2717  3.8451  1.8302
 8592TIP3   OH249970   0.022   3.885   7.222  0.1368 -0.6085  0.7317
 8592TIP3    H149971   0.058   3.858   7.306 -0.0057 -1.2018  0.6043
 8592TIP3    H249972   0.014   3.804   7.172 -1.4192 -0.5061  0.7775
 8593TIP3   OH249973   6.377   3.643   9.018 -0.4833  0.0670  0.2006
 8593TIP3    H149974   6.442   3.683   8.961 -1.8058  2.3115  0.1591
 8593TIP3    H249975   6.298   3.635   8.965 -1.0861  0.0618  1.0605
 8594TIP3   OH249976   1.658   3.003   7.355 -1.2848  0.0578  0.4517
 8594TIP3    H149977   1.733   2.951   7.329 -1.0957  0.4042  0.2953
 8594TIP3    H249978   1.663   3.008   7.450 -0.3169  1.2469  0.3564
 8595TIP3   OH249979   1.630   4.953   7.868 -0.1258  0.5531  0.2738
 8595TIP3    H149980   1.541   4.970   7.899 -0.5047  0.7847 -0.8865
 8595TIP3    H249981   1.619   4.881   7.805  0.4181  0.9354 -0.2700
 8596TIP3   OH249982   0.210   2.521   8.054  0.2143  0.1256  0.3492
 8596TIP3    H149983   0.148   2.578   8.009  0.1508 -0.9258 -0.9523
 8596TIP3    H249984   0.179   2.518   8.144  0.4735  2.4835  0.5875
 8597TIP3   OH249985   4.136   3.553   7.002  0.3303 -0.0260 -0.1131
 8597TIP3    H149986   4.096   3.568   7.088 -0.5657  0.1884 -0.5540
 8597TIP3    H249987   4.092   3.615   6.945 -0.1177 -1.1541 -1.0265
 8598TIP3   OH249988   0.266   4.686   8.431  0.0393 -0.0910  0.0236
 8598TIP3    H149989   0.343   4.654   8.383  0.8750  1.7954  0.0286
 8598TIP3    H249990   0.293   4.771   8.465 -1.3667 -0.3049  1.7962
 8599TIP3   OH249991   5.343   6.728   7.827  0.7008 -0.2003  0.1515
 8599TIP3    H149992   5.372   6.780   7.752 -0.1117 -0.8216 -0.6241
 8599TIP3    H249993   5.364   6.638   7.803  0.9896 -0.3552  0.9464
 8600TIP3   OH249994   6.429   3.908   7.944 -0.0547  0.4774 -0.4014
 8600TIP3    H149995   6.342   3.940   7.969  0.3248  1.7372 -0.6172
 8600TIP3    H249996   6.451   3.959   7.866  0.1004 -1.1558 -1.4613
 8601TIP3   OH249997   1.147   1.166   9.552 -0.4830 -0.5122 -0.2779
 8601TIP3    H149998   1.191   1.136   9.632  1.3107  1.8048 -0.3190
 8601TIP3    H249999   1.184   1.111   9.482 -2.0227 -2.5162  0.3574
 8602TIP3   OH250000   1.941   2.852   9.784  0.5067  0.5165  0.2405
 8602TIP3    H150001   1.930   2.769   9.737  0.4644  1.2030 -1.0089
 8602TIP3    H250002   1.851   2.879   9.806  0.5513 -0.0162  1.1300
 8603TIP3   OH250003   4.791   3.355   9.638 -0.1105 -0.0452 -0.4605
 8603TIP3    H150004   4.800   3.450   9.626 -0.3403 -0.0808 -0.9605
 8603TIP3    H250005   4.754   3.345   9.725 -1.8388  0.4190 -1.0967
 8604TIP3   OH250006   6.308   5.637   9.522  0.1777 -0.3728 -0.0017
 8604TIP3    H150007   6.217   5.618   9.547 -0.0857 -1.0052 -1.3776
 8604TIP3    H250008   6.342   5.688   9.595 -1.1792 -0.4188  0.6989
 8605TIP3   OH250009   0.824   5.195   9.800 -0.4333  0.3061  0.0792
 8605TIP3    H150010   0.805   5.200   9.707 -0.1876 -2.0218 -0.1532
 8605TIP3    H250011   0.919   5.203   9.806 -0.4944  1.0339  0.2099
 8606TIP3   OH250012   2.516   3.125   8.002  0.5059  0.9282  0.4905
 8606TIP3    H150013   2.561   3.184   8.062 -0.4471  2.9311 -0.6527
 8606TIP3    H250014   2.426   3.159   7.998  0.2467  0.1689 -1.1658
 8607TIP3   OH250015   1.922   2.579   7.935 -0.1480 -0.6493 -0.4530
 8607TIP3    H150016   1.951   2.607   8.022 -0.3904  1.1763 -0.9256
 8607TIP3    H250017   1.953   2.488   7.928  1.7645 -0.1531  0.6921
 8608TIP3   OH250018   1.425   4.209   9.156 -0.2935  0.5887  0.2615
 8608TIP3    H150019   1.380   4.238   9.235 -0.4088 -0.5259  0.6163
 8608TIP3    H250020   1.518   4.219   9.177 -0.2961 -0.4399  0.8568
 8609TIP3   OH250021   4.164   2.145   8.992 -0.1857  0.4937  0.8065
 8609TIP3    H150022   4.168   2.212   8.924 -1.4269  0.4476  0.6772
 8609TIP3    H250023   4.250   2.150   9.034  0.4625  0.7763 -0.5028
 8610TIP3   OH250024   5.959   6.584   7.515  0.5483  0.5299  0.2915
 8610TIP3    H150025   6.018   6.659   7.504 -1.5011  2.4046  1.3927
 8610TIP3    H250026   5.918   6.573   7.429  0.5813  0.9221  0.2233
 8611TIP3   OH250027   2.444   4.067   7.622 -0.8048  0.0890 -0.3655
 8611TIP3    H150028   2.352   4.075   7.595 -0.2939  0.5184 -2.0516
 8611TIP3    H250029   2.465   3.974   7.608 -0.4684  0.3567 -1.7979
 8612TIP3   OH250030   1.130   6.742   8.483  0.4383  0.6193  0.2678
 8612TIP3    H150031   1.188   6.742   8.407  1.0554  2.0485  0.7182
 8612TIP3    H250032   1.051   6.696   8.452  1.0002  0.4363 -0.9656
 8613TIP3   OH250033   4.768   3.903  10.924  0.5104 -0.6485  0.0221
 8613TIP3    H150034   4.854   3.943  10.907  0.6855  0.0080  2.1998
 8613TIP3    H250035   4.786   3.809  10.927  0.9679 -0.5845 -0.4298
 8614TIP3   OH250036   3.180   3.967   8.785 -0.0944  0.2008  0.0472
 8614TIP3    H150037   3.251   3.931   8.731 -2.3193 -0.8778 -2.3703
 8614TIP3    H250038   3.190   4.062   8.778  2.0697  0.1411  1.2294
 8615TIP3   OH250039   5.820   6.761   8.181 -0.1654 -0.3310  0.0708
 8615TIP3    H150040   5.784   6.818   8.113  1.0649  2.0291  1.2674
 8615TIP3    H250041   5.889   6.712   8.137 -0.0388  0.4285 -0.6085
 8616TIP3   OH250042   2.192   3.178   9.564  0.0677  0.1296 -0.1988
 8616TIP3    H150043   2.159   3.238   9.630  0.0881  0.3087 -0.3513
 8616TIP3    H250044   2.165   3.216   9.481 -1.0976 -0.7587 -0.2540
 8617TIP3   OH250045   3.044   6.605   7.175  0.4923 -0.4057 -0.1126
 8617TIP3    H150046   2.953   6.574   7.174  0.2325  0.3338 -0.0281
 8617TIP3    H250047   3.053   6.655   7.093  0.6440  0.0023  0.1489
 8618TIP3   OH250048   3.167   0.435   6.934 -0.1128  0.0419 -0.2845
 8618TIP3    H150049   3.148   0.525   6.958  1.2312 -0.3556  2.6924
 8618TIP3    H250050   3.262   0.428   6.936 -0.1638 -1.3346 -0.9507
 8619TIP3   OH250051   0.923   5.401   8.610 -0.3158  0.0883  0.1694
 8619TIP3    H150052   0.981   5.433   8.680 -0.1062 -0.3718  0.2095
 8619TIP3    H250053   0.937   5.306   8.608 -0.4575  0.0734 -0.3765
 8620TIP3   OH250054   4.536   0.738   9.347  0.1472 -0.1619 -0.6470
 8620TIP3    H150055   4.503   0.738   9.437  0.8043 -1.5983 -0.3677
 8620TIP3    H250056   4.612   0.797   9.349  0.1533 -0.1813 -0.2521
 8621TIP3   OH250057   5.205   3.974   8.170  0.1748  0.0052  0.1782
 8621TIP3    H150058   5.245   3.973   8.083 -0.2665  1.2026 -0.0567
 8621TIP3    H250059   5.113   3.992   8.154 -0.0484 -0.5007  0.8577
 8622TIP3   OH250060   4.645   0.803   7.537  0.2581 -0.3559 -0.3991
 8622TIP3    H150061   4.670   0.757   7.456  2.7648 -0.4681  0.3419
 8622TIP3    H250062   4.566   0.759   7.567 -0.1502 -0.9706 -2.2539
 8623TIP3   OH250063   3.167   3.963   8.027 -0.0097 -0.0769  0.4809
 8623TIP3    H150064   3.222   3.885   8.025 -1.3883 -1.0512 -1.1387
 8623TIP3    H250065   3.199   4.017   7.955 -1.4528 -0.9100 -0.8490
 8624TIP3   OH250066   3.753   4.367   6.955  0.2826  0.0299 -0.1540
 8624TIP3    H150067   3.670   4.385   6.910  0.2853 -0.0459 -0.1892
 8624TIP3    H250068   3.797   4.453   6.958 -0.3467  0.3305  0.9903
 8625TIP3   OH250069   5.631   2.105   8.296 -0.0346  0.1516  0.1331
 8625TIP3    H150070   5.560   2.140   8.350 -1.3362 -1.1114 -0.6688
 8625TIP3    H250071   5.667   2.032   8.348 -1.7688 -1.5376 -0.8996
 8626TIP3   OH250072   4.782   3.611   9.587  0.1012 -0.3785  0.3429
 8626TIP3    H150073   4.737   3.649   9.663 -1.9587 -0.8071 -0.5874
 8626TIP3    H250074   4.813   3.687   9.538 -1.1338  0.0343  0.1557
 8627TIP3   OH250075   2.968   4.546   9.347  0.4262 -0.2092  0.6270
 8627TIP3    H150076   3.013   4.568   9.428  0.3690  0.2732  0.5297
 8627TIP3    H250077   2.875   4.557   9.368  0.3874 -0.5436  0.6327
 8628TIP3   OH250078   3.963   0.174   9.601 -0.1516  0.2005  0.1498
 8628TIP3    H150079   3.876   0.206   9.627 -0.3068 -0.6557  0.7739
 8628TIP3    H250080   3.946   0.119   9.524 -0.0795  0.5343 -0.1018
 8629TIP3   OH250081   3.361   2.254   8.672 -0.3294  0.5340 -0.3706
 8629TIP3    H150082   3.411   2.317   8.725 -0.2463 -1.2028  1.7394
 8629TIP3    H250083   3.273   2.291   8.668 -0.6846  0.1698  2.1336
 8630TIP3   OH250084   1.726   1.455   8.764  0.2715 -0.3498 -0.1911
 8630TIP3    H150085   1.787   1.385   8.788 -0.1444 -0.3052  1.0758
 8630TIP3    H250086   1.645   1.410   8.740 -0.8410 -0.3302  3.0354
 8631TIP3   OH250087   5.333   4.743   7.218 -0.2266 -0.4854 -0.8144
 8631TIP3    H150088   5.341   4.658   7.175 -1.2591 -0.3595 -1.2723
 8631TIP3    H250089   5.295   4.801   7.152 -0.4217  0.0914 -0.2133
 8632TIP3   OH250090   4.480   5.767   8.039 -0.2589  0.0870  0.1551
 8632TIP3    H150091   4.570   5.755   8.006  0.3520  0.0176  1.7673
 8632TIP3    H250092   4.438   5.821   7.972  1.0020  0.1740 -0.6155
 8633TIP3   OH250093   1.800   2.335   8.152 -0.1206  0.4905  1.0574
 8633TIP3    H150094   1.845   2.251   8.144  0.4370  0.8210  0.5549
 8633TIP3    H250095   1.866   2.393   8.190  0.0714  1.1118 -0.1560
 8634TIP3   OH250096   2.333   5.892   6.444 -0.1214 -0.6970 -0.5406
 8634TIP3    H150097   2.297   5.915   6.359 -0.9398 -1.1159 -0.3274
 8634TIP3    H250098   2.285   5.948   6.506  0.8703  0.0151 -0.3986
 8635TIP3   OH250099   1.185   5.342   7.602 -0.0561  0.2398 -0.4134
 8635TIP3    H150100   1.248   5.303   7.541  0.7840  0.1467  0.4954
 8635TIP3    H250101   1.229   5.341   7.687 -0.8485  1.2159  0.0355
 8636TIP3   OH250102   0.810   0.886   6.806  0.7463  0.5522 -0.6130
 8636TIP3    H150103   0.837   0.822   6.740 -0.0519  1.2654 -1.6631
 8636TIP3    H250104   0.718   0.902   6.787 -0.3138 -1.2396  2.3906
 8637TIP3   OH250105   5.297   6.385   9.097  0.3494  0.1275  0.2567
 8637TIP3    H150106   5.315   6.297   9.064  0.4391  0.0440  0.5316
 8637TIP3    H250107   5.377   6.434   9.078  1.0049 -0.3260  1.7666
 8638TIP3   OH250108   5.480   3.186   7.906 -0.0313  0.0630  0.3192
 8638TIP3    H150109   5.471   3.269   7.953  1.1396  0.5200 -0.2352
 8638TIP3    H250110   5.445   3.205   7.819 -2.3570 -0.8284  0.9898
 8639TIP3   OH250111   5.841   3.716  10.316 -0.0523 -0.1133 -0.2819
 8639TIP3    H150112   5.754   3.704  10.279 -0.9742  0.3816  1.6375
 8639TIP3    H250113   5.844   3.658  10.392  0.9194  0.6013  0.2474
 8640TIP3   OH250114   2.794   2.299   8.463 -0.4164  0.2744  0.6876
 8640TIP3    H150115   2.711   2.270   8.500  0.2432  1.3323  3.2060
 8640TIP3    H250116   2.841   2.338   8.537  1.9819  0.4727 -0.8342
 8641TIP3   OH250117   3.048   3.806   8.564 -0.5656  0.4859  0.1513
 8641TIP3    H150118   3.087   3.888   8.594  0.6798  0.7292 -1.9191
 8641TIP3    H250119   3.026   3.822   8.472 -0.0060 -1.5574 -0.4133
 8642TIP3   OH250120   2.225   4.437   9.134 -0.1161 -0.1207  0.6896
 8642TIP3    H150121   2.268   4.352   9.131  1.1206  0.4850  0.5721
 8642TIP3    H250122   2.136   4.418   9.164 -0.6620 -1.7326 -1.7057
 8643TIP3   OH250123   1.803   1.512   6.659 -0.4604 -0.0720  0.6397
 8643TIP3    H150124   1.771   1.593   6.696 -0.3297 -0.7080  2.2103
 8643TIP3    H250125   1.741   1.491   6.589 -1.6070  0.3795  1.4966
 8644TIP3   OH250126   4.021   0.605   7.275 -0.4583 -0.6226 -0.0290
 8644TIP3    H150127   3.933   0.640   7.273  0.3311  1.7775  2.0680
 8644TIP3    H250128   4.014   0.524   7.326 -1.2940  0.1415  1.1073
 8645TIP3   OH250129   2.449   2.756   8.850  0.6678 -0.1790  0.2334
 8645TIP3    H150130   2.471   2.758   8.756  3.1570 -0.0456  0.7374
 8645TIP3    H250131   2.513   2.815   8.890  0.6133 -1.3644  2.1855
 8646TIP3   OH250132   1.404   6.008  10.049  0.2284 -0.1395 -0.3622
 8646TIP3    H150133   1.317   6.000  10.010  0.2573  1.4240 -0.8295
 8646TIP3    H250134   1.461   6.028   9.975  0.5522  1.2533  0.2321
 8647TIP3   OH250135   6.556   3.185   8.388 -0.1723 -0.4805  0.2588
 8647TIP3    H150136   6.590   3.144   8.468  2.1639 -0.7075 -0.7536
 8647TIP3    H250137   6.543   3.113   8.327  0.1405 -0.1150 -0.2539
 8648TIP3   OH250138   1.050   2.663   9.879 -0.1005  0.0529  0.1301
 8648TIP3    H150139   0.964   2.704   9.888 -0.0373 -0.0712  1.6308
 8648TIP3    H250140   1.110   2.723   9.922  0.3321 -0.5653  0.4111
 8649TIP3   OH250141   3.261   0.087   7.966 -0.2598 -0.3121  0.2206
 8649TIP3    H150142   3.235   0.176   7.991  1.8311 -0.0300  1.6561
 8649TIP3    H250143   3.251   0.035   8.046  1.4856 -0.6209  0.2829
 8650TIP3   OH250144   6.769   3.754   8.832  0.1670  0.7082  0.8371
 8650TIP3    H150145   6.791   3.765   8.740 -2.1872  0.2205  0.1423
 8650TIP3    H250146   6.771   3.843   8.868  0.2251  1.0166  0.0920
 8651TIP3   OH250147   6.696   4.841   9.073 -0.0737  0.1220  0.2058
 8651TIP3    H150148   6.632   4.843   9.002  0.2774 -0.2330 -0.1224
 8651TIP3    H250149   6.708   4.748   9.092  0.4202  0.1789  0.1907
 8652TIP3   OH250150   4.769   1.580   7.856 -0.1736  0.0427  0.0498
 8652TIP3    H150151   4.690   1.577   7.801  0.7150 -0.0671 -1.2497
 8652TIP3    H250152   4.800   1.670   7.847  0.3397 -0.1543 -0.1354
 8653TIP3   OH250153   2.765   3.495   9.046  0.1978  0.1409  0.3756
 8653TIP3    H150154   2.825   3.421   9.060 -1.2901 -0.9456  1.3141
 8653TIP3    H250155   2.822   3.570   9.029  1.7661 -1.1484 -0.2743
 8654TIP3   OH250156   1.003   0.530   7.160  0.1309  0.0563  0.4065
 8654TIP3    H150157   1.079   0.517   7.217 -1.0085  1.1607  2.2553
 8654TIP3    H250158   1.040   0.569   7.080  1.4083  1.8900  1.8050
 8655TIP3   OH250159   6.624   5.087  10.196 -0.5366 -0.5177 -0.2088
 8655TIP3    H150160   6.559   5.151  10.167 -0.1899 -0.5857 -1.1816
 8655TIP3    H250161   6.708   5.128  10.174 -0.2975 -0.9924 -0.1772
 8656TIP3   OH250162   6.287   1.053   8.109  0.0994 -0.0764  0.1442
 8656TIP3    H150163   6.245   1.009   8.183  0.1352 -0.3370  0.0105
 8656TIP3    H250164   6.300   1.143   8.139 -1.2795  0.2237 -0.1148
 8657TIP3   OH250165   1.993   4.415   7.095 -0.6673 -0.1305 -0.0200
 8657TIP3    H150166   1.905   4.400   7.060 -0.1084 -0.1287 -1.5246
 8657TIP3    H250167   1.995   4.509   7.115 -1.9011 -0.6191  2.7573
 8658TIP3   OH250168   0.685   3.528   9.504  0.2828  0.2227 -0.0924
 8658TIP3    H150169   0.593   3.501   9.498  0.5419 -0.6057 -0.5867
 8658TIP3    H250170   0.732   3.446   9.523  0.7857  0.8551  1.5764
 8659TIP3   OH250171   3.180   4.088   8.481  0.3096 -0.0685 -0.1958
 8659TIP3    H150172   3.189   4.131   8.566 -0.2461  1.9398 -1.0874
 8659TIP3    H250173   3.260   4.112   8.434  0.0925 -0.1907 -0.6323
 8660TIP3   OH250174   4.432   2.582   7.388  0.3761  0.7754  0.2609
 8660TIP3    H150175   4.523   2.562   7.363  1.2074  0.2660  3.2678
 8660TIP3    H250176   4.423   2.546   7.476 -2.6940  1.1120  0.1944
 8661TIP3   OH250177   3.898   4.758   8.079 -0.1719  0.0036  0.5431
 8661TIP3    H150178   3.808   4.790   8.076 -0.4583 -0.8475 -0.2263
 8661TIP3    H250179   3.917   4.729   7.990  0.7249 -0.2026  0.7876
 8662TIP3   OH250180   3.858   4.547   7.690 -0.5627 -0.4242  0.3783
 8662TIP3    H150181   3.886   4.467   7.645  0.2809  0.3368 -0.5007
 8662TIP3    H250182   3.781   4.520   7.741 -0.5748 -1.6868 -0.2590
 8663TIP3   OH250183   5.650   3.635   7.830 -0.7748  0.2758 -0.3319
 8663TIP3    H150184   5.695   3.638   7.745  0.3448  0.6390  0.2649
 8663TIP3    H250185   5.653   3.724   7.862  0.3517 -0.1600  0.8631
 8664TIP3   OH250186   0.327   1.007   7.621 -0.3286  0.0742 -0.2655
 8664TIP3    H150187   0.349   0.930   7.674  1.8032  0.2071 -0.8489
 8664TIP3    H250188   0.239   0.989   7.588 -0.8605 -0.9810  1.5698
 8665TIP3   OH250189   2.509   1.535   7.500  0.1543 -0.4159 -0.0121
 8665TIP3    H150190   2.430   1.554   7.551  0.6220 -3.2567  2.0307
 8665TIP3    H250191   2.480   1.472   7.434  0.4917 -0.6441  0.0543
 8666TIP3   OH250192   3.503   1.177   7.522 -0.3081  0.7129 -0.0366
 8666TIP3    H150193   3.486   1.200   7.613  0.3949  0.5544  0.1457
 8666TIP3    H250194   3.438   1.111   7.500  1.0928 -1.1739  1.1721
 8667TIP3   OH250195   5.258   2.621   8.172 -0.0850 -0.1920  0.3830
 8667TIP3    H150196   5.275   2.586   8.085  1.2048 -0.4997  0.7436
 8667TIP3    H250197   5.327   2.584   8.228  0.4125  1.6800  1.0899
 8668TIP3   OH250198   6.092   0.582   6.880  0.3846 -0.0216  0.1649
 8668TIP3    H150199   6.073   0.489   6.865  0.7292 -0.0012 -0.4046
 8668TIP3    H250200   6.053   0.600   6.966 -0.1050 -0.5691  0.0682
 8669TIP3   OH250201   5.625   2.857   8.784 -0.6503  0.4072 -0.0313
 8669TIP3    H150202   5.676   2.885   8.708 -1.8718 -0.3244 -1.1647
 8669TIP3    H250203   5.690   2.820   8.844  0.1695 -0.3638 -1.3549
 8670TIP3   OH250204   6.735   5.811   7.721  0.2012  0.0121  0.4593
 8670TIP3    H150205   6.825   5.810   7.753  0.1342  1.3214  0.7331
 8670TIP3    H250206   6.734   5.880   7.654 -0.4170 -0.5363 -0.1147
 8671TIP3   OH250207   5.511   3.420   9.713  0.1650  0.1857  0.1238
 8671TIP3    H150208   5.465   3.464   9.784  1.6167  0.3344  1.0103
 8671TIP3    H250209   5.452   3.349   9.686 -0.1984 -0.1935  1.8248
 8672TIP3   OH250210   1.816   1.011   7.230  0.4213 -0.1652 -0.5996
 8672TIP3    H150211   1.858   0.933   7.265  0.5483 -0.5620 -1.6070
 8672TIP3    H250212   1.840   1.012   7.137  0.2229  0.9380 -0.6522
 8673TIP3   OH250213   2.751   2.703   9.476  0.0616 -0.0114 -0.1551
 8673TIP3    H150214   2.790   2.789   9.457 -1.6957  0.6557 -0.9882
 8673TIP3    H250215   2.826   2.645   9.490  1.3025  1.5417 -0.0777
 8674TIP3   OH250216   3.466   3.807   8.189 -0.4283  0.0463 -0.1760
 8674TIP3    H150217   3.499   3.725   8.226 -1.5767  0.3971  1.7775
 8674TIP3    H250218   3.544   3.860   8.172  0.3317 -1.4446 -1.5715
 8675TIP3   OH250219   1.153   0.786   6.467 -0.2454  0.0591 -0.3721
 8675TIP3    H150220   1.221   0.735   6.421 -0.2345 -0.9754  0.7286
 8675TIP3    H250221   1.193   0.872   6.481  1.5477 -1.0150  1.7121
 8676TIP3   OH250222   6.159   4.547   8.855 -0.0486 -0.6017 -0.0520
 8676TIP3    H150223   6.105   4.520   8.930 -0.6833 -0.2991 -0.3871
 8676TIP3    H250224   6.153   4.474   8.794  0.9488 -1.1007  0.4268
 8677TIP3   OH250225   1.614   1.870   8.570 -0.2063 -0.1725  0.0904
 8677TIP3    H150226   1.574   1.919   8.641 -1.3266  0.0571 -0.6628
 8677TIP3    H250227   1.695   1.916   8.551 -0.5198  0.5067  0.3856
 8678TIP3   OH250228   0.520   3.204   7.671  0.2398  0.3333  0.5694
 8678TIP3    H150229   0.548   3.204   7.580  0.1877  1.5279  0.5352
 8678TIP3    H250230   0.543   3.117   7.704 -0.7119 -0.4987 -0.8670
 8679TIP3   OH250231   0.793   0.771   8.422 -0.2867  0.5974 -0.5133
 8679TIP3    H150232   0.801   0.759   8.328 -1.2373  1.3678 -0.6987
 8679TIP3    H250233   0.755   0.689   8.454  1.7107 -0.3953 -0.5245
 8680TIP3   OH250234   5.335   4.190   8.324 -0.2141  0.2023 -0.5006
 8680TIP3    H150235   5.287   4.114   8.289 -0.6175  1.2904 -2.4637
 8680TIP3    H250236   5.321   4.259   8.259  1.4782  1.4919  0.4262
 8681TIP3   OH250237   5.298   4.962   8.180 -0.3635  0.4090 -0.5499
 8681TIP3    H150238   5.344   5.037   8.218  0.5794 -0.7004  0.5585
 8681TIP3    H250239   5.359   4.926   8.116 -0.2285 -0.2633 -0.0499
 8682TIP3   OH250240   0.409   3.852   8.921 -0.0778 -0.6592 -0.0506
 8682TIP3    H150241   0.380   3.869   8.832 -0.7870 -0.0077  0.2876
 8682TIP3    H250242   0.375   3.765   8.942 -1.7543  0.0184  0.2819
 8683TIP3   OH250243   4.588   2.830   6.857 -0.1121  0.2412  0.3398
 8683TIP3    H150244   4.667   2.867   6.819  1.2832 -0.0244  2.7456
 8683TIP3    H250245   4.590   2.858   6.949 -1.5107 -1.7797  1.0746
 8684TIP3   OH250246   3.933   2.688   7.126 -0.1129 -0.5163  0.4596
 8684TIP3    H150247   4.018   2.704   7.169 -0.5920  2.3989  0.4934
 8684TIP3    H250248   3.905   2.774   7.095 -1.7259 -1.8688 -2.1839
 8685TIP3   OH250249   3.389   2.267   8.351 -0.1119  0.4350 -0.5602
 8685TIP3    H150250   3.372   2.263   8.445 -0.1370 -1.4160 -0.6012
 8685TIP3    H250251   3.308   2.302   8.314 -2.0090 -3.1587 -0.2542
 8686TIP3   OH250252   3.300   0.763   8.719  0.3215 -0.5372  0.3078
 8686TIP3    H150253   3.330   0.800   8.802 -1.7681  2.1220 -0.0132
 8686TIP3    H250254   3.229   0.704   8.743 -0.6231  0.6191  0.4197
 8687TIP3   OH250255   5.589   0.664   7.623 -0.5046  0.3797 -0.3168
 8687TIP3    H150256   5.597   0.736   7.685  1.0749  0.3898 -0.4989
 8687TIP3    H250257   5.637   0.693   7.545  0.3926 -0.9344 -0.3005
 8688TIP3   OH250258   6.712   0.288   8.972  0.2929 -0.3137 -0.8786
 8688TIP3    H150259   6.739   0.197   8.961  4.5418  0.6054  0.1214
 8688TIP3    H250260   6.743   0.332   8.893  1.9343  0.8576  0.3498
 8689TIP3   OH250261   0.698   4.231   8.111  0.6298  0.3196  0.1516
 8689TIP3    H150262   0.636   4.194   8.175 -0.1165  0.1005 -0.6818
 8689TIP3    H250263   0.717   4.159   8.052 -0.4506  1.0936 -1.2040
 8690TIP3   OH250264   4.153   1.740   7.900  0.3445 -0.2791  0.0804
 8690TIP3    H150265   4.196   1.656   7.912  2.6234  0.4806 -1.9812
 8690TIP3    H250266   4.078   1.721   7.844 -0.8719 -1.2769  1.9185
 8691TIP3   OH250267   0.053   2.622   9.146  0.1044 -0.5748 -1.1210
 8691TIP3    H150268  -0.030   2.634   9.194  1.2120 -1.4447  1.1443
 8691TIP3    H250269   0.051   2.690   9.079 -0.9545  1.7116  1.0592
 8692TIP3   OH250270   5.987   6.568   9.379 -0.6936  0.6795  0.3460
 8692TIP3    H150271   5.941   6.651   9.391 -1.7187  0.2668 -0.6109
 8692TIP3    H250272   5.983   6.526   9.465 -1.7265  0.8511  0.3953
 8693TIP3   OH250273   5.017   0.660   9.519 -0.2159  0.0338 -0.1593
 8693TIP3    H150274   4.932   0.693   9.547 -0.1916  2.1519 -2.2898
 8693TIP3    H250275   5.062   0.736   9.482  2.1011 -1.2945 -0.3155
 8694TIP3   OH250276   0.642   4.217   7.760  0.7931 -0.8366  0.3584
 8694TIP3    H150277   0.568   4.257   7.806  1.4555 -0.3008  0.9652
 8694TIP3    H250278   0.605   4.135   7.724 -0.1307 -0.5037  0.5091
 8695TIP3   OH250279   1.690   1.008   6.438 -0.2936 -0.3921  0.0235
 8695TIP3    H150280   1.690   0.912   6.433 -0.3394 -0.3199 -2.2139
 8695TIP3    H250281   1.782   1.032   6.437 -0.2205 -0.3531 -3.5380
 8696TIP3   OH250282   0.634   1.004   7.684 -0.3192 -0.2279  0.2076
 8696TIP3    H150283   0.588   1.087   7.669 -1.6597 -0.7543  1.2201
 8696TIP3    H250284   0.565   0.941   7.703  0.8254 -1.0198  1.9898
 8697TIP3   OH250285   4.823   5.141   8.171  0.4194 -0.9575  0.2417
 8697TIP3    H150286   4.901   5.193   8.153  0.0567 -0.2358  0.6719
 8697TIP3    H250287   4.806   5.155   8.264 -1.2367  0.3613 -0.1977
 8698TIP3   OH250288   1.350   1.545   9.789 -0.0044 -0.2191  0.0386
 8698TIP3    H150289   1.377   1.630   9.755  0.6121 -0.6593 -0.5998
 8698TIP3    H250290   1.414   1.524   9.857 -0.8052  0.3225  0.9817
 8699TIP3   OH250291   3.050   2.924   8.051  0.2521  0.0298  0.2392
 8699TIP3    H150292   2.990   2.854   8.078  1.5157 -1.1567  0.1064
 8699TIP3    H250293   3.047   2.922   7.955 -0.2421  0.6550  0.2364
 8700TIP3   OH250294   5.484   2.750   7.763  0.3954  0.5855  0.0391
 8700TIP3    H150295   5.469   2.804   7.685 -3.5585 -0.2707 -0.0118
 8700TIP3    H250296   5.478   2.811   7.836 -0.2983  0.8098 -0.1902
 8701TIP3   OH250297   6.679   6.116   7.999  0.0174 -0.6598 -0.4313
 8701TIP3    H150298   6.670   6.143   8.090 -1.6192 -2.0528 -0.1343
 8701TIP3    H250299   6.594   6.133   7.960  0.8539  0.4557 -1.8938
 8702TIP3   OH250300   1.993   3.863   7.739 -0.1923 -0.2001  0.4292
 8702TIP3    H150301   2.033   3.926   7.799  1.0181 -0.1925 -0.3362
 8702TIP3    H250302   2.030   3.778   7.766  1.2003 -0.0677 -0.9156
 8703TIP3   OH250303   3.784   1.891   7.745  0.0682  0.6816  0.2725
 8703TIP3    H150304   3.845   1.901   7.817 -0.6421 -0.8286  1.1372
 8703TIP3    H250305   3.839   1.882   7.667  0.9556 -0.1868  0.9695
 8704TIP3   OH250306   5.965   0.406   7.395  0.2636 -0.0321 -0.1647
 8704TIP3    H150307   5.941   0.434   7.307 -0.1967 -0.0858 -0.0611
 8704TIP3    H250308   5.893   0.349   7.422 -0.5966  1.5434  1.0087
 8705TIP3   OH250309   1.273   6.534  10.045  0.0656  0.2226 -0.1286
 8705TIP3    H150310   1.322   6.515   9.965 -0.7741  0.7616 -0.7744
 8705TIP3    H250311   1.280   6.628  10.056  2.9781 -0.1071  2.2870
 8706TIP3   OH250312   4.162   6.688   7.126  0.1265 -0.3374 -0.4450
 8706TIP3    H150313   4.082   6.721   7.168  0.6104  0.2851  0.0056
 8706TIP3    H250314   4.131   6.624   7.062 -0.5894 -1.9370  1.4084
 8707TIP3   OH250315   4.546   1.061   8.874  0.0031  0.3592 -0.3396
 8707TIP3    H150316   4.560   1.155   8.888  0.6133  0.3667 -0.9757
 8707TIP3    H250317   4.481   1.057   8.804 -1.0744  0.3030  0.6339
 8708TIP3   OH250318   2.855   1.060   8.022  0.4177  0.1621 -0.5382
 8708TIP3    H150319   2.924   1.103   8.071  0.5918  0.2988 -0.8981
 8708TIP3    H250320   2.796   1.131   7.996 -0.2462 -0.0385  0.3724
 8709TIP3   OH250321   1.241   2.966   8.502  0.1537  0.3858  0.8392
 8709TIP3    H150322   1.291   2.892   8.537 -0.9306 -0.1355  1.3505
 8709TIP3    H250323   1.230   3.025   8.576 -0.6851  0.0880  0.9745
 8710TIP3   OH250324   0.196   2.257   6.931 -0.4657  0.0978  0.2219
 8710TIP3    H150325   0.225   2.168   6.913  0.2568  0.0959  1.2713
 8710TIP3    H250326   0.103   2.249   6.950 -0.4342 -0.4045  0.1809
 8711TIP3   OH250327   3.680   3.563   6.588 -0.5660 -0.1736 -0.8671
 8711TIP3    H150328   3.623   3.549   6.512 -0.8039 -0.9437 -0.5567
 8711TIP3    H250329   3.626   3.613   6.649 -0.4993  0.1310 -1.0566
 8712TIP3   OH250330   5.338   3.849   8.370 -0.3621 -0.0967  0.2258
 8712TIP3    H150331   5.354   3.759   8.341 -0.7551 -0.5708  1.4286
 8712TIP3    H250332   5.300   3.892   8.293  0.0186 -0.8910 -0.4258
 8713TIP3   OH250333   6.521   4.767   8.353 -0.1154  1.1210  0.0005
 8713TIP3    H150334   6.582   4.736   8.420 -2.3088 -2.3196  0.6719
 8713TIP3    H250335   6.490   4.852   8.385  1.3411  1.0958  1.6092
 8714TIP3   OH250336   6.686   3.311   8.705 -0.0195  0.3777  0.2103
 8714TIP3    H150337   6.728   3.398   8.702  0.2387  0.4152  2.9862
 8714TIP3    H250338   6.757   3.251   8.682  0.1245  0.8057 -0.5059
 8715TIP3   OH250339   1.879   6.709   6.993 -0.0274  0.4456 -0.6384
 8715TIP3    H150340   1.848   6.791   7.031 -1.2788 -0.1098 -0.4115
 8715TIP3    H250341   1.800   6.667   6.959  0.9801  0.9269 -3.9771
 8716TIP3   OH250342   5.257   0.014   8.071 -0.0035  0.0731 -0.0588
 8716TIP3    H150343   5.317  -0.009   8.142  0.0109  0.6100  0.1089
 8716TIP3    H250344   5.298  -0.021   7.992 -1.0899 -2.5134  0.4270
 8717TIP3   OH250345   0.219   2.959   9.342  0.4416  0.3535  0.4215
 8717TIP3    H150346   0.239   2.866   9.349 -1.0064 -0.0276 -0.0732
 8717TIP3    H250347   0.143   2.963   9.283  0.6123  1.8630  0.2483
 8718TIP3   OH250348   4.951   1.164   7.041  0.0577  0.2913 -0.3591
 8718TIP3    H150349   4.951   1.078   6.999  3.1038 -0.2716  0.5132
 8718TIP3    H250350   4.988   1.223   6.974 -1.1574  0.7842 -0.6300
 8719TIP3   OH250351   1.818   5.884   7.286  0.0847 -0.1005  0.0589
 8719TIP3    H150352   1.885   5.952   7.287  0.7925 -0.7774  1.3534
 8719TIP3    H250353   1.755   5.911   7.353  0.2888 -0.6143  0.4704
 8720TIP3   OH250354   4.043   2.345   7.168 -0.0324 -0.2147  0.1707
 8720TIP3    H150355   4.084   2.431   7.170 -0.2526 -0.0984  2.4683
 8720TIP3    H250356   4.094   2.292   7.230 -0.2305 -1.5927 -0.7916
 8721TIP3   OH250357   3.829   2.422   7.361 -0.2850 -0.3028  0.3605
 8721TIP3    H150358   3.888   2.380   7.299 -1.9079 -0.8127 -0.8959
 8721TIP3    H250359   3.883   2.440   7.438  1.7892  0.3467 -1.1711
 8722TIP3   OH250360   1.947   0.580   7.182 -0.3930 -0.0309  0.0695
 8722TIP3    H150361   1.990   0.658   7.216 -0.4606 -0.2447  0.6723
 8722TIP3    H250362   1.873   0.613   7.132  0.4800  0.3452 -1.0199
 8723TIP3   OH250363   4.757   1.056   7.364  0.4903 -0.3244  0.3290
 8723TIP3    H150364   4.788   0.982   7.313  0.9803  0.3345 -0.3583
 8723TIP3    H250365   4.668   1.031   7.391  0.0147 -0.5013 -1.2755
 8724TIP3   OH250366   5.351   1.905   9.607  0.0201 -0.0789 -0.0209
 8724TIP3    H150367   5.388   1.881   9.692  1.3666 -0.3578 -0.6710
 8724TIP3    H250368   5.297   1.830   9.583  0.6932 -0.5691 -0.0154
 8725TIP3   OH250369   0.294   0.244   8.542  0.1883 -0.1558 -0.2636
 8725TIP3    H150370   0.256   0.318   8.590  0.9177 -0.3242  0.5895
 8725TIP3    H250371   0.304   0.175   8.607  0.6976 -0.5715 -0.7717
 8726TIP3   OH250372   0.119   5.360   8.269  0.5394  0.2936  0.1566
 8726TIP3    H150373   0.088   5.418   8.200  2.0328 -0.4563 -1.2354
 8726TIP3    H250374   0.077   5.392   8.349 -1.5743  0.9427 -1.1417
 8727TIP3   OH250375   6.702   3.803   8.329  0.3508 -0.0123  0.0388
 8727TIP3    H150376   6.663   3.727   8.372  0.7308 -0.5292 -0.5141
 8727TIP3    H250377   6.790   3.774   8.305 -0.4542 -0.4072 -2.7572
 8728TIP3   OH250378   4.817   3.469  10.205  0.1809 -0.5757 -0.3113
 8728TIP3    H150379   4.735   3.420  10.214 -0.8813  1.3007  0.7963
 8728TIP3    H250380   4.810   3.512  10.120  0.0146 -0.3957 -0.2049
 8729TIP3   OH250381   5.132   4.292   9.842  0.3341 -0.4101  0.2420
 8729TIP3    H150382   5.078   4.369   9.861 -0.3646 -0.5713 -0.9726
 8729TIP3    H250383   5.147   4.251   9.928  1.8140  1.7475  1.1054
 8730TIP3   OH250384   2.686   6.614   8.160 -0.1776  0.3757 -0.3891
 8730TIP3    H150385   2.675   6.604   8.066 -1.8304  0.6458 -0.2447
 8730TIP3    H250386   2.693   6.524   8.193  0.2849  0.2778 -0.7508
 8731TIP3   OH250387   0.380   4.894   6.917 -0.1432  0.1055 -0.7313
 8731TIP3    H150388   0.353   4.837   6.845  1.1526 -0.4288 -0.8197
 8731TIP3    H250389   0.474   4.906   6.903 -0.1818  1.3335 -0.0540
 8732TIP3   OH250390   2.599   3.909   8.422 -0.0096 -0.6123  0.2588
 8732TIP3    H150391   2.629   3.867   8.503  0.1615 -0.7586  0.1194
 8732TIP3    H250392   2.649   3.991   8.418  1.0178 -1.2556 -0.4190
 8733TIP3   OH250393   5.915   5.005   6.836  0.0241 -0.2257  0.1685
 8733TIP3    H150394   5.846   4.939   6.835  0.0944 -0.3035  0.3120
 8733TIP3    H250395   5.987   4.963   6.883  0.3776 -0.3475 -0.4719
 8734TIP3   OH250396   6.670   6.068   6.823  0.0789 -0.2336 -0.0144
 8734TIP3    H150397   6.726   6.027   6.757 -0.3489 -1.0744  0.1383
 8734TIP3    H250398   6.686   6.019   6.903  0.5228  0.7202  0.5023
 8735TIP3   OH250399   6.767   2.834   8.236  0.2704  0.5955 -0.4971
 8735TIP3    H150400   6.838   2.834   8.172  0.4680 -1.1316 -0.3267
 8735TIP3    H250401   6.718   2.753   8.218  0.3333  0.0558  1.4980
 8736TIP3   OH250402   5.452   4.661   7.570  0.3331 -0.7201  0.2233
 8736TIP3    H150403   5.477   4.742   7.527 -0.0145 -0.9874 -0.4965
 8736TIP3    H250404   5.389   4.687   7.637 -2.3443 -0.6766 -2.1322
 8737TIP3   OH250405   2.681   4.536   9.269  0.6716  0.1307  0.3024
 8737TIP3    H150406   2.715   4.607   9.323  0.7327 -0.7925  1.5182
 8737TIP3    H250407   2.593   4.565   9.243  0.7600  0.7177  0.6463
 8738TIP3   OH250408   6.583   0.058   7.991  0.2017  0.2852  0.4884
 8738TIP3    H150409   6.560   0.132   8.047 -1.5209  0.7492 -0.7496
 8738TIP3    H250410   6.594   0.096   7.904  0.9545 -0.6854  0.1447
 8739TIP3   OH250411   6.113   6.092   7.732  0.2468 -0.1037 -0.4479
 8739TIP3    H150412   6.050   6.037   7.779 -0.2660  0.7901 -0.0541
 8739TIP3    H250413   6.143   6.155   7.797  1.6213 -0.5481 -0.6143
 8740TIP3   OH250414   6.185   1.111   6.842  0.2648 -0.3533 -0.1555
 8740TIP3    H150415   6.248   1.084   6.776  0.4601 -0.5726  0.1198
 8740TIP3    H250416   6.215   1.070   6.923  1.0342  1.3245  0.4632
 8741TIP3   OH250417   4.943   2.016   8.202  0.5486  0.4252 -0.1772
 8741TIP3    H150418   4.891   2.033   8.123  0.7192 -0.0046 -0.3900
 8741TIP3    H250419   5.001   1.943   8.176 -1.1261 -1.4597  1.1071
 8742TIP3   OH250420   5.028   2.534   7.708 -0.2417 -0.1198 -0.3082
 8742TIP3    H150421   5.064   2.523   7.620  1.9400 -0.4397  0.5604
 8742TIP3    H250422   5.048   2.452   7.753  1.3091  1.0608  1.3090
 8743TIP3   OH250423   2.171   4.443   8.241  0.4130  0.3097 -0.0257
 8743TIP3    H150424   2.131   4.523   8.207 -0.5443 -0.9499 -2.0037
 8743TIP3    H250425   2.227   4.411   8.171  0.3522 -1.0550  0.5084
 8744TIP3   OH250426   3.865   3.159   7.657 -0.0709 -0.2443  0.7454
 8744TIP3    H150427   3.822   3.110   7.727 -0.9693  0.7747  0.9419
 8744TIP3    H250428   3.851   3.251   7.679 -0.0848  0.1072 -0.5902
 8745TIP3   OH250429   3.616   5.026   7.492  0.6162  0.3417  0.7125
 8745TIP3    H150430   3.628   5.119   7.510  2.1967  0.1037  0.9957
 8745TIP3    H250431   3.585   4.990   7.575 -0.9138  0.7275  0.3548
 8746TIP3   OH250432   0.749   1.515   6.939 -0.2349  0.1438  0.0632
 8746TIP3    H150433   0.830   1.532   6.890  0.7709 -2.1593  0.8017
 8746TIP3    H250434   0.692   1.470   6.876  0.3342 -1.1327  0.4394
 8747TIP3   OH250435   0.939   2.257   8.043  0.4253 -0.6391 -0.4920
 8747TIP3    H150436   1.018   2.203   8.039  1.4554  0.7536  0.1089
 8747TIP3    H250437   0.876   2.213   7.986  0.7706 -3.1416  0.8981
 8748TIP3   OH250438   3.491   2.623   9.445 -0.3192  0.5694 -0.2251
 8748TIP3    H150439   3.502   2.620   9.350 -1.3485 -1.4602 -0.3322
 8748TIP3    H250440   3.405   2.586   9.461 -0.0747  0.6624  1.5287
 8749TIP3   OH250441   1.725   2.113   8.374  0.5822 -0.1233  0.0061
 8749TIP3    H150442   1.819   2.131   8.383  0.6719 -1.3314  2.3929
 8749TIP3    H250443   1.687   2.197   8.348  2.2122  0.6099 -0.1735
 8750TIP3   OH250444   0.933   5.608   7.842  0.0510 -0.1900  0.4607
 8750TIP3    H150445   0.962   5.601   7.751  0.3119 -0.5989  0.5751
 8750TIP3    H250446   0.928   5.518   7.873 -0.8435 -0.1045  0.6037
 8751TIP3   OH250447   3.826   3.152   8.507  0.3812  0.1457 -0.2708
 8751TIP3    H150448   3.754   3.139   8.445  1.4028 -0.7269 -1.3280
 8751TIP3    H250449   3.856   3.241   8.491  0.2311  0.1399 -0.5939
 8752TIP3   OH250450   1.731   2.547   7.749 -0.5754  0.0021 -0.2918
 8752TIP3    H150451   1.696   2.635   7.737 -0.6187  0.1533  0.8457
 8752TIP3    H250452   1.789   2.554   7.825 -0.5811 -0.9463 -0.1817
 8753TIP3   OH250453   6.299   2.328   7.252  0.2602  0.1151 -0.2293
 8753TIP3    H150454   6.281   2.398   7.314  2.5839 -0.7470  1.5814
 8753TIP3    H250455   6.213   2.305   7.216 -0.6324  3.6881 -0.8036
 8754TIP3   OH250456   4.507   1.419   7.464 -0.1811 -0.0952  0.0413
 8754TIP3    H150457   4.570   1.459   7.404  0.2432  0.6195  0.9446
 8754TIP3    H250458   4.421   1.449   7.433  0.0250  0.2151 -0.2329
 8755TIP3   OH250459   0.275   2.614   6.661 -0.1843  0.4665 -0.2685
 8755TIP3    H150460   0.286   2.546   6.595  2.8112 -1.8826  2.2877
 8755TIP3    H250461   0.181   2.618   6.677 -0.6210 -1.7095 -1.8791
 8756TIP3   OH250462   1.408   1.756   7.436  0.3411 -0.0528 -0.2023
 8756TIP3    H150463   1.436   1.664   7.441  1.7087  0.2793 -1.2059
 8756TIP3    H250464   1.451   1.798   7.510 -1.1705 -0.4114  0.9134
 8757TIP3   OH250465   5.344   6.175   9.437 -0.4473 -0.2461 -0.1403
 8757TIP3    H150466   5.433   6.159   9.467 -0.4052 -0.6341 -0.4661
 8757TIP3    H250467   5.305   6.088   9.430 -1.0994 -0.0518  0.7374
 8758TIP3   OH250468   3.168   0.321   9.156 -0.0303 -0.8329  0.0672
 8758TIP3    H150469   3.091   0.335   9.101  0.3284 -2.1548 -0.8054
 8758TIP3    H250470   3.164   0.392   9.220 -1.0522  0.1098 -0.9859
 8759TIP3   OH250471   5.347   4.062   8.905  0.1087 -0.3791 -0.2401
 8759TIP3    H150472   5.404   3.998   8.948  0.4558  0.4746  0.6023
 8759TIP3    H250473   5.270   4.012   8.878  0.1571 -1.0636  0.8425
 8760TIP3   OH250474   4.824   3.134   7.993 -0.0415  0.3525  0.1012
 8760TIP3    H150475   4.859   3.055   8.036  1.2520  0.7332 -0.2091
 8760TIP3    H250476   4.821   3.111   7.900  1.7618  1.1438 -0.1848
 8761TIP3   OH250477   0.970   6.194   8.081  0.3132 -0.1969 -0.5646
 8761TIP3    H150478   0.896   6.236   8.125  0.4385 -0.3012 -0.2479
 8761TIP3    H250479   1.043   6.205   8.142  0.0568 -2.0128  0.1457
 8762TIP3   OH250480   5.311   4.554   8.077 -0.1939 -0.4431 -0.1029
 8762TIP3    H150481   5.253   4.577   8.005  0.4027  0.7127 -0.2459
 8762TIP3    H250482   5.290   4.463   8.098 -0.6124 -0.6861 -1.5051
 8763TIP3   OH250483   1.601   5.993   7.906  0.0812  0.2896  0.2870
 8763TIP3    H150484   1.632   6.080   7.880 -0.0063  0.0145 -0.7748
 8763TIP3    H250485   1.603   5.995   8.002  1.1215  1.0878  0.2709
 8764TIP3   OH250486   0.661   1.975  14.870  0.4296 -0.2501 -0.0562
 8764TIP3    H150487   0.636   1.928  14.949 -0.2732 -0.6863 -0.5306
 8764TIP3    H250488   0.579   2.003  14.831  0.7649 -0.0438 -0.6338
 8765TIP3   OH250489   6.090   1.417   6.928 -0.0628  0.0661  0.3779
 8765TIP3    H150490   6.073   1.378   6.842 -0.7233 -1.3069  1.0934
 8765TIP3    H250491   6.139   1.497   6.909  0.3299 -0.5193 -1.2363
 8766TIP3   OH250492   2.469   3.211   9.275  0.3893 -0.8424  0.5255
 8766TIP3    H150493   2.554   3.173   9.258  0.6121  0.2396 -0.9951
 8766TIP3    H250494   2.464   3.219   9.370  2.4432  0.0633  0.5923
 8767TIP3   OH250495   4.372   2.730   7.917  0.1692  0.1091 -0.0268
 8767TIP3    H150496   4.295   2.710   7.864  0.8746  0.7010 -1.3384
 8767TIP3    H250497   4.347   2.807   7.968 -0.3231 -0.0997  0.0505
 8768TIP3   OH250498   4.694   0.560   8.273 -0.0547  0.2166  0.4308
 8768TIP3    H150499   4.606   0.532   8.245  0.2009 -0.9524  0.7683
 8768TIP3    H250500   4.691   0.557   8.368  1.5980 -4.1531  0.5536
 8769TIP3   OH250501   3.901   3.433   8.919 -0.2519  0.3512 -0.0981
 8769TIP3    H150502   3.863   3.350   8.949 -0.2573 -0.0571 -1.1754
 8769TIP3    H250503   3.865   3.445   8.831 -0.7286  1.8244  0.2686
 8770TIP3   OH250504   2.838   2.793   7.379  1.0100 -0.2429  0.5775
 8770TIP3    H150505   2.790   2.818   7.458  1.0509  1.6108  0.0704
 8770TIP3    H250506   2.930   2.805   7.402  1.0935 -0.9918  0.6522
 8771TIP3   OH250507   3.520   3.621   9.387  0.0443 -0.4741  0.0074
 8771TIP3    H150508   3.563   3.537   9.405  0.5161 -0.0641  0.8741
 8771TIP3    H250509   3.426   3.602   9.394  0.1669 -0.6832  1.4989
 8772TIP3   OH250510   0.365   0.594   8.466  0.0770  0.1489 -0.7055
 8772TIP3    H150511   0.344   0.563   8.378 -1.6070  0.3834 -0.4299
 8772TIP3    H250512   0.434   0.659   8.453  1.1766 -1.1714 -1.6359
 8773TIP3   OH250513   6.325   2.892   8.524  0.0183  0.9155  0.0474
 8773TIP3    H150514   6.292   2.837   8.595 -0.3147  1.1367  0.0687
 8773TIP3    H250515   6.405   2.848   8.494  0.0168  0.6817  0.3840
 8774TIP3   OH250516   4.359   1.374   7.931 -0.0951  0.1521 -0.1789
 8774TIP3    H150517   4.437   1.380   7.878 -0.3069  2.0823 -0.3217
 8774TIP3    H250518   4.370   1.292   7.980  1.3834 -0.2557 -1.1315
 8775TIP3   OH250519   1.288   6.288   7.952 -0.3883  0.7001 -0.2405
 8775TIP3    H150520   1.376   6.312   7.923 -0.8351  1.7035 -0.8150
 8775TIP3    H250521   1.255   6.367   7.995 -1.0393  0.3590 -0.1043
 8776TIP3   OH250522   6.083   4.291  17.838  0.2618 -0.0577 -0.6207
 8776TIP3    H150523   6.042   4.206  17.823 -0.4249  0.4712 -1.8908
 8776TIP3    H250524   6.176   4.271  17.850 -0.1434 -1.1563  1.1181
 8777TIP3   OH250525   6.430   1.935   8.588  0.3235  0.1516  0.0990
 8777TIP3    H150526   6.463   1.859   8.636  1.3345 -0.5490 -1.6126
 8777TIP3    H250527   6.506   1.991   8.576 -0.3120  1.2296  0.8994
 8778TIP3   OH250528   3.306   4.856   7.010 -0.6023 -0.0456 -0.3816
 8778TIP3    H150529   3.278   4.942   6.978  1.2232  0.0238 -1.9894
 8778TIP3    H250530   3.235   4.797   6.985 -1.0302  0.6963 -0.9851
 8779TIP3   OH250531   0.322   0.106   9.551  0.1085  0.8266 -0.2444
 8779TIP3    H150532   0.279   0.183   9.514 -1.9442  1.1488  2.4721
 8779TIP3    H250533   0.256   0.036   9.545  1.5730 -0.5233 -1.7399
 8780TIP3   OH250534   1.729   3.214   8.155  0.4541 -0.7477 -0.6985
 8780TIP3    H150535   1.740   3.301   8.194 -1.5740  0.4127 -2.4918
 8780TIP3    H250536   1.690   3.162   8.225  0.9879 -0.0090  0.1756
 8781TIP3   OH250537   3.881   1.396   8.056 -0.1352 -0.7896  0.1395
 8781TIP3    H150538   3.837   1.417   7.974 -0.3122 -1.2258  0.1241
 8781TIP3    H250539   3.899   1.482   8.096  1.2128 -0.5035 -1.0059
 8782TIP3   OH250540   4.774   4.343   9.892  0.4998 -0.1632 -0.1730
 8782TIP3    H150541   4.831   4.392   9.951 -0.9452  0.0174  1.1592
 8782TIP3    H250542   4.713   4.408   9.858 -0.5874 -0.7728  0.5521
 8783TIP3   OH250543   0.571   2.020   6.664 -0.4340  0.0285  0.0211
 8783TIP3    H150544   0.507   1.955   6.634 -2.3754  0.2330  3.2374
 8783TIP3    H250545   0.645   1.968   6.694  0.3641 -0.3057 -2.3809
 8784TIP3   OH250546   4.477   3.603   9.050  0.4692  0.3492 -0.0003
 8784TIP3    H150547   4.513   3.613   9.138 -0.3080 -0.4479  0.4245
 8784TIP3    H250548   4.482   3.509   9.032 -0.9585  0.2677 -0.0905
 8785TIP3   OH250549   3.060   1.490   7.596  0.3673  0.4377 -0.1063
 8785TIP3    H150550   3.028   1.463   7.682 -1.4457 -0.2412 -0.9426
 8785TIP3    H250551   3.118   1.419   7.569  1.8402  1.1688  0.9682
 8786TIP3   OH250552   0.923   5.960   8.308 -0.2604  0.0673 -0.3503
 8786TIP3    H150553   0.950   5.940   8.218  2.3899  0.8422  0.2033
 8786TIP3    H250554   0.869   6.038   8.300  0.2121  0.3188 -1.2438
 8787TIP3   OH250555   1.080   0.894   6.864 -0.1023  0.3960  0.2422
 8787TIP3    H150556   0.987   0.902   6.845  0.0242  0.6869 -0.2566
 8787TIP3    H250557   1.097   0.960   6.931 -0.5380 -0.6035  1.3685
 8788TIP3   OH250558   6.147   0.688   8.263 -0.1160 -0.1762  0.5057
 8788TIP3    H150559   6.145   0.691   8.167 -1.8614  0.9528  0.5237
 8788TIP3    H250560   6.239   0.675   8.284  0.1029 -2.3504 -1.3290
 8789TIP3   OH250561   6.368   4.467   7.655  0.6958  0.1050 -0.1114
 8789TIP3    H150562   6.401   4.489   7.742  2.3154 -2.6109  0.0701
 8789TIP3    H250563   6.292   4.411   7.671  1.4205 -0.9884 -0.3899
 8790TIP3   OH250564   5.752   0.794   8.406 -0.3123 -0.0581 -0.0365
 8790TIP3    H150565   5.744   0.767   8.314  2.6911 -1.0301 -0.1285
 8790TIP3    H250566   5.780   0.886   8.401  0.1610 -0.2038 -0.1199
 8791TIP3   OH250567   2.582   4.556   8.228 -0.3148  0.3813  0.3265
 8791TIP3    H150568   2.616   4.518   8.147 -1.2677 -0.3450  0.2513
 8791TIP3    H250569   2.500   4.599   8.203 -1.5679 -1.3590  1.1490
 8792TIP3   OH250570   4.024   0.742   8.581  0.1814  0.1960  0.2136
 8792TIP3    H150571   4.004   0.669   8.522 -0.9627 -0.3810  1.2503
 8792TIP3    H250572   4.110   0.721   8.617  1.3953  1.1060 -1.9937
 8793TIP3   OH250573   4.088   5.063   9.054  0.1364  0.0339 -0.4434
 8793TIP3    H150574   4.176   5.097   9.073 -0.1604 -0.5338  2.3542
 8793TIP3    H250575   4.040   5.074   9.136 -1.8877 -1.3178 -1.3745
 8794TIP3   OH250576   3.554   1.292   7.806 -0.2844 -0.2725  0.5962
 8794TIP3    H150577   3.519   1.315   7.892 -2.2059 -1.4989  0.2050
 8794TIP3    H250578   3.553   1.196   7.805 -0.9765 -0.2720 -1.0554
 8795TIP3   OH250579   0.448   0.073   7.271 -0.0993  0.2681 -0.4305
 8795TIP3    H150580   0.542   0.084   7.282 -0.1249 -0.8347  1.3148
 8795TIP3    H250581   0.409   0.124   7.342 -0.7904  0.1296 -0.6951
 8796TIP3   OH250582   3.081   3.195   9.718 -0.6084 -0.3820  0.0024
 8796TIP3    H150583   3.071   3.126   9.652  0.6389  0.2688 -0.9265
 8796TIP3    H250584   3.054   3.155   9.800 -0.5362 -1.7637 -0.6253
 8797TIP3   OH250585   6.246   6.658   8.283 -0.1826 -0.0301 -0.8050
 8797TIP3    H150586   6.218   6.689   8.369 -0.5774 -2.1884 -0.0857
 8797TIP3    H250587   6.165   6.637   8.238  0.0263  1.0612 -1.7425
 8798TIP3   OH250588   3.447   2.502   6.717 -0.0411 -0.1612 -0.1482
 8798TIP3    H150589   3.518   2.535   6.661 -0.0983  1.0829  0.4816
 8798TIP3    H250590   3.486   2.495   6.804 -0.3766 -0.6286 -0.0295
 8799TIP3   OH250591   4.069   2.103   9.903 -0.1628  0.0848  0.1496
 8799TIP3    H150592   4.089   2.127   9.994 -0.5543  0.7522  0.0716
 8799TIP3    H250593   4.152   2.115   9.857 -0.3507  1.4243  0.1038
 8800TIP3   OH250594   1.439   6.715   6.998 -0.3548  0.4747 -0.2596
 8800TIP3    H150595   1.498   6.651   7.037 -0.0270  1.7970  1.5542
 8800TIP3    H250596   1.489   6.753   6.926  0.2943  0.2642  0.0749
 8801TIP3   OH250597   3.898   5.323   9.562 -0.1354 -0.2805 -0.4490
 8801TIP3    H150598   3.812   5.337   9.602  0.3285  1.5916 -0.0003
 8801TIP3    H250599   3.928   5.411   9.538  1.4300 -0.9451 -1.0675
 8802TIP3   OH250600   4.264   1.894   8.919 -0.1630 -0.8793  0.3892
 8802TIP3    H150601   4.225   1.940   8.993 -0.8806  0.4184 -0.7441
 8802TIP3    H250602   4.353   1.928   8.913  0.1612 -1.5672  1.1060
 8803TIP3   OH250603   6.027   3.330   8.787  0.3286  0.2755  0.3626
 8803TIP3    H150604   5.932   3.324   8.774  0.0514 -0.4289  2.3686
 8803TIP3    H250605   6.055   3.240   8.803  1.2321  0.5528  0.4132
 8804TIP3   OH250606   1.625   3.746   8.727  0.2347  0.2099 -0.8500
 8804TIP3    H150607   1.592   3.811   8.789 -1.1171 -0.2854 -1.0147
 8804TIP3    H250608   1.694   3.699   8.775  1.2193  1.7181 -0.7211
 8805TIP3   OH250609   3.368   2.277   7.238  1.0251  0.7574  0.5305
 8805TIP3    H150610   3.369   2.194   7.191 -0.3405  1.5839 -1.0549
 8805TIP3    H250611   3.447   2.274   7.293  1.2381 -1.3770  0.1993
 8806TIP3   OH250612   3.534   1.040   8.769 -0.5231 -0.2166  0.0496
 8806TIP3    H150613   3.577   1.093   8.701 -1.5805 -0.4517 -0.8332
 8806TIP3    H250614   3.443   1.071   8.770 -0.8626 -1.1816  0.3668
 8807TIP3   OH250615   4.985   4.305   7.981  0.2723 -0.6885 -0.7195
 8807TIP3    H150616   4.918   4.281   7.917 -0.8174  0.0622  0.0967
 8807TIP3    H250617   4.944   4.374   8.034  1.9610  0.3439 -0.6693
 8808TIP3   OH250618   3.326   1.406   8.007  0.1499 -0.4624  0.2359
 8808TIP3    H150619   3.359   1.492   7.982  1.6613 -1.2207 -0.5577
 8808TIP3    H250620   3.350   1.396   8.099 -0.2067  0.0380  0.3832
 8809TIP3   OH250621   0.885   0.224   8.786 -0.6052 -0.0710 -0.2286
 8809TIP3    H150622   0.952   0.163   8.756 -1.6501 -0.1243 -2.6461
 8809TIP3    H250623   0.933   0.306   8.803  0.3791 -0.7517  0.3506
 8810TIP3   OH250624   4.231   0.324   7.407  0.5769  0.1934  0.0410
 8810TIP3    H150625   4.282   0.258   7.453  0.7089 -0.8770 -1.5774
 8810TIP3    H250626   4.140   0.306   7.431  0.6342 -0.4489 -0.2111
 8811TIP3   OH250627   1.959   1.043   6.452 -0.0761 -0.1588  0.3154
 8811TIP3    H150628   2.023   1.101   6.493  0.0536  0.4912 -0.7682
 8811TIP3    H250629   2.010   0.988   6.393 -0.3909 -0.3456  0.2127
 8812TIP3   OH250630   4.553   1.331   8.915  0.0548  0.4091 -0.2408
 8812TIP3    H150631   4.630   1.378   8.948  1.4062 -1.1614 -1.0009
 8812TIP3    H250632   4.523   1.384   8.841 -0.8955  2.1082  1.2613
 8813TIP3   OH250633   4.511   5.264   8.635  0.1548  0.1308  0.0478
 8813TIP3    H150634   4.561   5.187   8.661 -0.4913 -1.1816 -2.2872
 8813TIP3    H250635   4.421   5.232   8.629 -0.0217  0.8563 -1.5969
 8814TIP3   OH250636   0.435   3.797   9.856 -0.4585  0.2735  0.3943
 8814TIP3    H150637   0.347   3.764   9.840  0.2633 -1.5590 -0.0847
 8814TIP3    H250638   0.425   3.859   9.928 -1.9814 -0.7392  1.1105
 8815TIP3   OH250639   2.439   3.284   9.540  0.2283  0.3390  0.3771
 8815TIP3    H150640   2.346   3.265   9.553  0.0582 -1.4309 -2.5547
 8815TIP3    H250641   2.471   3.308   9.628 -2.3075 -1.9428  2.0909
 8816TIP3   OH250642   1.467   3.673   7.609  0.3391 -0.3836 -0.6466
 8816TIP3    H150643   1.433   3.586   7.591 -2.2627  0.9045 -2.6063
 8816TIP3    H250644   1.556   3.658   7.641 -0.0618 -3.7191 -0.7760
 8817TIP3   OH250645   0.567   3.419   8.687  0.3525 -0.4158  0.4605
 8817TIP3    H150646   0.549   3.326   8.674 -2.7322  0.1453 -0.0688
 8817TIP3    H250647   0.528   3.463   8.611  2.4805  1.3086  0.2528
 8818TIP3   OH250648   1.361   2.687   9.527 -0.4701 -0.6413  0.4737
 8818TIP3    H150649   1.443   2.710   9.571  0.6027 -0.7029 -1.4223
 8818TIP3    H250650   1.294   2.731   9.579  1.0929  2.9870 -0.2477
 8819TIP3   OH250651   3.825   0.374   8.306  0.4124  0.0710 -0.3647
 8819TIP3    H150652   3.787   0.290   8.281 -1.6648  0.8882 -0.1604
 8819TIP3    H250653   3.809   0.381   8.400  0.0123  0.9607 -0.4924
 8820TIP3   OH250654   3.836   5.990   8.062 -0.1637  0.1102 -0.0619
 8820TIP3    H150655   3.800   6.017   8.146  4.0910  1.1171  1.6375
 8820TIP3    H250656   3.863   5.899   8.075  0.6711  0.3224 -0.2989
 8821TIP3   OH250657   2.342   4.071   7.239  0.3802  0.4822  0.0248
 8821TIP3    H150658   2.280   4.105   7.174 -1.0503 -1.4562  0.2781
 8821TIP3    H250659   2.410   4.028   7.188 -0.7044 -0.9790 -0.2294
 8822TIP3   OH250660   2.910   2.477   8.690  0.1701 -0.1089  0.1409
 8822TIP3    H150661   2.822   2.497   8.721  0.3557 -0.9862  1.3296
 8822TIP3    H250662   2.957   2.448   8.769  1.5910  0.5463 -0.4244
 8823TIP3   OH250663   1.582   6.178   9.871 -0.4272  1.1954 -0.1143
 8823TIP3    H150664   1.668   6.151   9.839 -1.1615 -2.1863  0.4009
 8823TIP3    H250665   1.521   6.153   9.801 -1.1528  2.1800  0.1412
 8824TIP3   OH250666   2.535   2.888   9.357 -0.1821 -0.2652 -0.2742
 8824TIP3    H150667   2.604   2.938   9.402 -0.2094  0.2729 -0.8096
 8824TIP3    H250668   2.570   2.872   9.270 -1.3441  1.4435 -1.1239
 8825TIP3   OH250669   0.335   5.200   7.925  0.0485  0.2159 -0.2560
 8825TIP3    H150670   0.398   5.129   7.935  0.1368  0.2274 -0.7200
 8825TIP3    H250671   0.253   5.157   7.903 -0.1675  0.1851  0.5749
 8826TIP3   OH250672   0.093   1.879   7.914 -0.2281 -0.1219 -0.5036
 8826TIP3    H150673   0.098   1.861   7.821  0.6993  0.5486 -0.5998
 8826TIP3    H250674  -0.000   1.869   7.936 -0.4428 -0.3315 -1.4798
 8827TIP3   OH250675   5.887   6.096   6.813  0.1606 -0.4118  0.1075
 8827TIP3    H150676   5.974   6.118   6.779 -0.2489 -0.2876 -0.9113
 8827TIP3    H250677   5.873   6.006   6.786 -0.0211 -0.4341  0.2770
 8828TIP3   OH250678   2.360   4.599   8.743  0.1112 -0.3059  0.6678
 8828TIP3    H150679   2.358   4.530   8.677 -0.5619 -0.1874  0.5527
 8828TIP3    H250680   2.421   4.664   8.708 -1.3987  0.5029 -0.6220
 8829TIP3   OH250681   2.266   4.978   8.625 -0.7715 -0.0772  0.6485
 8829TIP3    H150682   2.299   5.022   8.703  0.6871 -0.5189  0.3160
 8829TIP3    H250683   2.328   5.003   8.555 -2.9047  1.5840 -0.7687
 8830TIP3   OH250684   3.359   3.243   7.968  0.1813  0.4065  0.7338
 8830TIP3    H150685   3.273   3.207   7.948 -0.0947  1.0588  0.7180
 8830TIP3    H250686   3.369   3.315   7.905  0.8361  0.1859  0.5798
 8831TIP3   OH250687   6.308   5.247   8.710  0.2035  0.1845 -0.7025
 8831TIP3    H150688   6.213   5.248   8.695  0.2523  0.7117 -0.9864
 8831TIP3    H250689   6.336   5.337   8.694  0.8018 -0.0362 -0.9148
 8832TIP3   OH250690   1.677   4.346   8.999 -0.2893 -0.4669 -0.1494
 8832TIP3    H150691   1.706   4.306   9.081 -0.2877  1.4078  0.8220
 8832TIP3    H250692   1.694   4.279   8.933 -1.0625 -2.3836  1.4489
 8833TIP3   OH250693   5.405   5.754   8.859  0.3312  0.0476 -0.3576
 8833TIP3    H150694   5.462   5.803   8.917 -0.7491 -0.4424  1.1765
 8833TIP3    H250695   5.317   5.765   8.896  0.0251 -3.0210  0.1420
 8834TIP3   OH250696   5.725   5.305   9.097 -0.6373 -0.2413  0.0793
 8834TIP3    H150697   5.693   5.225   9.138  0.3887 -0.4762  0.4562
 8834TIP3    H250698   5.809   5.322   9.140  0.2361 -0.2231 -1.5657
 8835TIP3   OH250699   5.492   5.904   9.082 -0.8254 -0.7072  0.0079
 8835TIP3    H150700   5.458   5.991   9.061 -0.5824 -0.7066 -0.3863
 8835TIP3    H250701   5.511   5.908   9.176 -2.6029 -0.9431  0.4026
 8836TIP3   OH250702   1.263   4.384   8.846 -0.0187  0.5250  0.3002
 8836TIP3    H150703   1.277   4.442   8.921 -0.0078  0.9260 -0.0098
 8836TIP3    H250704   1.185   4.334   8.869 -1.4486  2.3311 -0.4486
 8837TIP3   OH250705   1.188   0.914   8.917 -0.3005  0.0009 -0.1697
 8837TIP3    H150706   1.107   0.918   8.967 -1.1708 -1.0175 -1.4250
 8837TIP3    H250707   1.175   0.975   8.845 -0.0481 -0.3383 -0.5050
 8838TIP3   OH250708   1.713   4.183   8.750 -0.1876 -0.2392 -0.2860
 8838TIP3    H150709   1.804   4.152   8.751  0.2481  0.9735 -0.2006
 8838TIP3    H250710   1.675   4.145   8.671 -0.0035 -1.8252  0.3590
 8839TIP3   OH250711   3.539   6.096   7.129  0.1049  0.0684 -0.5199
 8839TIP3    H150712   3.461   6.048   7.155 -0.2199  0.5035 -0.6832
 8839TIP3    H250713   3.551   6.162   7.197  0.5875 -0.2820 -0.2601
 8840TIP3   OH250714   1.216   2.283   6.987 -0.1893  0.2552 -0.1999
 8840TIP3    H150715   1.210   2.310   6.895 -0.5473 -0.9071 -0.5358
 8840TIP3    H250716   1.304   2.308   7.013  0.5619 -1.0059 -1.4087
 8841TIP3   OH250717   5.796   1.292   8.332 -0.3876  0.5512  0.0544
 8841TIP3    H150718   5.858   1.351   8.375 -0.3980 -0.4858  1.5560
 8841TIP3    H250719   5.735   1.351   8.287  0.7803  1.6219 -0.1759
 8842TIP3   OH250720   6.060   5.732   8.341  0.3419 -0.1618  0.1663
 8842TIP3    H150721   5.980   5.773   8.307 -0.9143 -0.0531  2.9557
 8842TIP3    H250722   6.112   5.804   8.375  1.4566 -0.2833 -1.2060
 8843TIP3   OH250723   6.165   3.779   8.375 -0.1707 -0.1007  0.4173
 8843TIP3    H150724   6.196   3.701   8.421 -2.4157 -1.5268 -0.3164
 8843TIP3    H250725   6.119   3.745   8.298 -2.6495  1.8229  0.9156
 8844TIP3   OH250726   1.868   5.037   7.689  0.5320 -0.6079 -0.0240
 8844TIP3    H150727   1.924   5.006   7.760  0.7519  0.8820  0.4839
 8844TIP3    H250728   1.780   5.012   7.715  0.6346 -0.2506  0.6839
 8845TIP3   OH250729   3.893   4.162   7.114  0.6691 -0.3718 -0.2027
 8845TIP3    H150730   3.939   4.199   7.190 -1.2581 -2.2929  2.0854
 8845TIP3    H250731   3.845   4.237   7.078 -0.0714  0.2487  1.8787
 8846TIP3   OH250732   0.576   6.556   7.467  0.3724 -0.1676 -0.6735
 8846TIP3    H150733   0.642   6.622   7.445 -1.2080  1.6609 -0.2185
 8846TIP3    H250734   0.625   6.475   7.477  2.5425  1.1152 -0.3133
 8847TIP3   OH250735   0.293   0.240   8.020 -0.0646 -0.4320 -0.2363
 8847TIP3    H150736   0.333   0.177   7.959 -1.7114 -1.7296 -0.0680
 8847TIP3    H250737   0.365   0.297   8.046  0.8579 -0.2551 -2.8481
 8848TIP3   OH250738   1.939   2.675   6.565 -0.5169 -0.3922  0.1974
 8848TIP3    H150739   1.987   2.716   6.637  1.0131 -0.4979 -0.7406
 8848TIP3    H250740   1.990   2.597   6.543 -2.8845 -2.4263  1.3530
 8849TIP3   OH250741   2.307   1.617   7.661  0.0073  0.0062  0.2570
 8849TIP3    H150742   2.358   1.698   7.672  2.6769 -1.1112 -2.3244
 8849TIP3    H250743   2.249   1.615   7.737  2.9960  2.0754  2.9101
 8850TIP3   OH250744   1.131   5.181   9.783 -0.3357  0.2040  0.5808
 8850TIP3    H150745   1.131   5.095   9.824 -2.0928  0.2495  0.7378
 8850TIP3    H250746   1.112   5.242   9.855 -2.6258  0.3581 -0.0618
 8851TIP3   OH250747   5.476   4.659   8.994  0.5812 -0.5609  0.1555
 8851TIP3    H150748   5.386   4.673   9.022  1.0370  1.6065  0.7848
 8851TIP3    H250749   5.500   4.741   8.950  1.9470 -1.4557 -0.8340
 8852TIP3   OH250750   2.979   4.461   8.112  0.0188 -0.0954 -0.6522
 8852TIP3    H150751   3.047   4.482   8.049  1.2374  0.0392  0.6463
 8852TIP3    H250752   2.987   4.367   8.126 -0.7106 -0.2504 -1.1789
 8853TIP3   OH250753   1.705   5.569   6.694 -0.2243 -0.0104 -0.4289
 8853TIP3    H150754   1.633   5.528   6.743 -0.2637 -0.1264 -0.5831
 8853TIP3    H250755   1.778   5.571   6.756 -0.4500  0.3862 -0.1689
 8854TIP3   OH250756   6.625   2.123   7.427 -0.1210  0.5371 -0.9356
 8854TIP3    H150757   6.577   2.045   7.455 -2.5443  2.3912  0.4770
 8854TIP3    H250758   6.717   2.097   7.430 -0.7876 -2.0059  0.2746
 8855TIP3   OH250759   4.398   0.012   7.481 -0.5124  0.1174 -0.1601
 8855TIP3    H150760   4.437  -0.028   7.404  0.6224  1.9458 -0.6023
 8855TIP3    H250761   4.305  -0.009   7.475 -0.1518 -1.3695 -0.9762
 8856TIP3   OH250762   6.013   0.504   8.742 -0.0746  0.3121 -0.1631
 8856TIP3    H150763   6.006   0.520   8.648 -0.8828 -1.0301 -0.3545
 8856TIP3    H250764   5.995   0.411   8.752 -0.1324  0.4624  1.3425
 8857TIP3   OH250765   1.238   0.698   9.080  0.2104 -0.2923 -0.4637
 8857TIP3    H150766   1.233   0.754   9.003 -0.7691 -0.7146 -0.7263
 8857TIP3    H250767   1.309   0.735   9.132 -0.9686  1.7358 -0.1946
 8858TIP3   OH250768   1.058   0.807   9.878  0.0111 -0.4906  0.2374
 8858TIP3    H150769   0.986   0.761   9.920  0.8385 -1.1388  0.9687
 8858TIP3    H250770   1.120   0.739   9.854  0.1557 -0.0016 -0.8952
 8859TIP3   OH250771   5.088   4.919   7.495  0.6909  0.0592 -0.4065
 8859TIP3    H150772   4.998   4.933   7.524  1.3456  2.1214  0.8782
 8859TIP3    H250773   5.093   4.825   7.476 -0.8103 -0.7860  2.7416
 8860TIP3   OH250774   2.059   5.090   8.986 -0.2718 -0.5665 -0.0102
 8860TIP3    H150775   2.138   5.126   8.946 -0.2920 -1.1402 -0.5780
 8860TIP3    H250776   2.011   5.051   8.914 -2.3806  2.0103 -0.1656
 8861TIP3   OH250777   0.945   0.591   7.552  0.2601  0.2049  0.1473
 8861TIP3    H150778   0.994   0.509   7.542 -0.4351 -0.2915  0.6133
 8861TIP3    H250779   1.001   0.658   7.513 -0.6073 -0.9586 -3.5599
 8862TIP3   OH250780   2.223   1.818   7.843 -0.5389  0.1135 -0.3956
 8862TIP3    H150781   2.296   1.821   7.906 -0.9115 -2.1139  0.2062
 8862TIP3    H250782   2.229   1.902   7.797  2.3615  0.0770 -0.3067
 8863TIP3   OH250783   2.326   4.025   8.438  0.2911 -0.1036  0.3171
 8863TIP3    H150784   2.301   4.084   8.367 -1.9272 -2.0852 -0.7001
 8863TIP3    H250785   2.407   3.984   8.409  1.5979  2.0071  0.8269
 8864TIP3   OH250786   6.508   0.105   8.610 -0.0315  0.9265  0.1335
 8864TIP3    H150787   6.573   0.110   8.540 -0.5910 -1.2799 -0.6185
 8864TIP3    H250788   6.428   0.074   8.567  0.0377 -2.0563  1.9123
 8865TIP3   OH250789   1.062   1.833   6.812  0.1341  0.0357 -0.2460
 8865TIP3    H150790   1.157   1.834   6.801  0.4291 -0.9036  1.7955
 8865TIP3    H250791   1.039   1.923   6.836  0.5141  0.2262 -0.5919
 8866TIP3   OH250792   0.402   5.013   7.240  0.0650  0.1443 -0.9252
 8866TIP3    H150793   0.385   5.005   7.146 -1.2276 -0.8955 -0.6403
 8866TIP3    H250794   0.372   5.102   7.262 -1.8292 -0.4061 -1.1103
 8867TIP3   OH250795   2.081   6.487   7.566 -0.2909 -0.0501 -0.0811
 8867TIP3    H150796   2.034   6.464   7.486  0.6823 -1.6439 -0.2344
 8867TIP3    H250797   2.025   6.553   7.609 -1.4954 -0.1873 -1.3765
 8868TIP3   OH250798   3.601   1.547   6.579 -0.0781  0.0077 -0.6243
 8868TIP3    H150799   3.685   1.508   6.556 -0.6594 -0.9112 -1.2353
 8868TIP3    H250800   3.583   1.514   6.668  0.8870  1.3975  0.1208
 8869TIP3   OH250801   0.552   5.367   8.837  0.1863 -0.0909 -0.1516
 8869TIP3    H150802   0.519   5.332   8.754  1.4035 -3.6728  0.6825
 8869TIP3    H250803   0.473   5.396   8.883 -0.9580 -1.4516 -1.1348
 8870TIP3   OH250804   4.058   6.489   9.099  0.7328  0.4491 -0.2110
 8870TIP3    H150805   3.998   6.563   9.093  0.9756  0.8122  1.3497
 8870TIP3    H250806   4.041   6.438   9.020 -1.9218  0.3230  0.3345
 8871TIP3   OH250807   6.519   0.411   8.011  0.6915 -0.0171  0.7849
 8871TIP3    H150808   6.613   0.415   8.031  0.6306  1.4687  0.8480
 8871TIP3    H250809   6.483   0.353   8.079  1.9559 -3.0886 -0.9825
 8872TIP3   OH250810   3.464   2.405  10.238 -0.2191  0.1090 -0.3124
 8872TIP3    H150811   3.540   2.351  10.261 -0.3920  0.4878  1.3171
 8872TIP3    H250812   3.486   2.492  10.272 -0.8790  0.5280 -0.9304
 8873TIP3   OH250813   3.655   2.641   7.284  0.4877  0.5623 -0.1679
 8873TIP3    H150814   3.582   2.613   7.229 -0.6857  0.4016  1.3965
 8873TIP3    H250815   3.732   2.599   7.247  0.0041  1.6231 -2.5393
 8874TIP3   OH250816   4.223   2.771   8.891  0.8469  0.1289 -0.4960
 8874TIP3    H150817   4.300   2.733   8.849 -0.2297 -1.5173 -1.1149
 8874TIP3    H250818   4.199   2.707   8.959  0.1996  0.7461 -0.1348
 8875TIP3   OH250819   3.085   4.603   8.611  0.4285 -0.3729 -0.1211
 8875TIP3    H150820   3.013   4.626   8.671 -0.3837 -1.1325 -0.7826
 8875TIP3    H250821   3.041   4.569   8.533  1.4487  0.8657 -1.2886
 8876TIP3   OH250822   6.200   6.350   7.858 -0.3955  0.0932 -0.0577
 8876TIP3    H150823   6.247   6.428   7.889 -1.0235  0.3242  0.3411
 8876TIP3    H250824   6.132   6.385   7.800  0.4677 -0.3005 -1.3568
 8877TIP3   OH250825   5.834   1.044   7.666 -0.3717 -0.2537  0.5955
 8877TIP3    H150826   5.839   1.104   7.591  0.9704  1.2293  1.8077
 8877TIP3    H250827   5.878   0.964   7.634  1.5392  0.8773  0.2098
 8878TIP3   OH250828   0.971   1.955   7.165  0.0484  0.2930 -0.2990
 8878TIP3    H150829   0.972   2.050   7.173 -0.0116  0.1234  3.3067
 8878TIP3    H250830   0.880   1.935   7.139  0.5965  1.1810 -3.3354
 8879TIP3   OH250831   2.521   6.673   8.408 -0.9760  0.2118  0.3667
 8879TIP3    H150832   2.575   6.692   8.331 -1.4478 -1.0311 -0.3004
 8879TIP3    H250833   2.521   6.755   8.458  0.1406  0.7407 -0.4603
 8880TIP3   OH250834   1.068   4.538   6.886 -0.8030 -0.6356 -0.3143
 8880TIP3    H150835   1.003   4.564   6.821 -1.0687  0.4045  0.3566
 8880TIP3    H250836   1.142   4.596   6.871  0.3195 -2.2947 -1.5652
 8881TIP3   OH250837   2.630   6.222   7.113  0.0087  0.2748 -0.1317
 8881TIP3    H150838   2.575   6.198   7.038 -0.1555 -0.4274  0.2075
 8881TIP3    H250839   2.678   6.142   7.134  0.2216  0.5336  0.3706
 8882TIP3   OH250840   1.041   6.026   8.552 -0.3188 -0.3054 -0.0870
 8882TIP3    H150841   1.016   5.958   8.615  0.2363  0.1879  0.6715
 8882TIP3    H250842   1.002   5.996   8.470 -1.3564 -0.7895  0.5467
 8883TIP3   OH250843   3.873   3.370   6.934  0.3517  0.0295  0.3341
 8883TIP3    H150844   3.900   3.460   6.952  0.4618  0.0552  0.0514
 8883TIP3    H250845   3.867   3.366   6.838 -2.1283  0.4736  0.4003
 8884TIP3   OH250846   5.380   3.222   8.170 -0.0431  0.0724 -0.2154
 8884TIP3    H150847   5.435   3.149   8.141  0.7712  1.6583 -2.9937
 8884TIP3    H250848   5.440   3.295   8.180 -1.3992  1.5873 -2.2871
 8885TIP3   OH250849   3.732   3.973   9.107 -0.1675 -0.2069  0.6487
 8885TIP3    H150850   3.755   4.063   9.085 -0.1872 -0.0540  1.2369
 8885TIP3    H250851   3.681   3.980   9.188  0.5972 -0.8156  1.1991
 8886TIP3   OH250852   4.366   3.331   8.006 -0.2339  0.5967 -0.4961
 8886TIP3    H150853   4.451   3.290   7.987 -0.5893 -0.6837  0.5099
 8886TIP3    H250854   4.327   3.347   7.920 -0.6485 -2.4992 -1.0037
 8887TIP3   OH250855   2.653   2.017   8.474  0.2518 -0.2765 -0.4394
 8887TIP3    H150856   2.652   1.963   8.553  1.0420  0.3218 -0.0113
 8887TIP3    H250857   2.607   2.097   8.499 -0.4950 -0.5391 -0.9315
 8888TIP3   OH250858   6.215   5.460   7.111  0.1927  0.5579  0.6188
 8888TIP3    H150859   6.215   5.388   7.173 -0.1397  1.5761  1.8561
 8888TIP3    H250860   6.131   5.453   7.065  0.3531 -0.0814  0.4174
 8889TIP3   OH250861   4.578   6.322   8.968 -0.0784 -0.5797 -0.5575
 8889TIP3    H150862   4.614   6.406   8.938 -0.1756  0.0129  0.9182
 8889TIP3    H250863   4.613   6.258   8.905  2.3394  0.1746 -0.0878
 8890TIP3   OH250864   1.263   1.973   8.978 -0.7077  0.1004  0.4818
 8890TIP3    H150865   1.179   1.978   9.024 -0.8896  0.1158  0.1477
 8890TIP3    H250866   1.262   2.048   8.918 -0.1196  0.5575  1.0355
 8891TIP3   OH250867   2.864   1.020   6.874  0.6165  0.7262  0.5900
 8891TIP3    H150868   2.798   1.049   6.937 -1.9365  2.0287 -2.4356
 8891TIP3    H250869   2.877   0.927   6.894 -0.3140  1.0051  2.7705
 8892TIP3   OH250870   0.757   0.681   7.169  0.1094  0.1853 -0.0905
 8892TIP3    H150871   0.833   0.625   7.151  0.5746  1.2919 -1.8386
 8892TIP3    H250872   0.683   0.635   7.128 -0.2599 -1.0026  1.8027
 8893TIP3   OH250873   3.423   3.917   7.820 -0.2374  0.0717 -0.4227
 8893TIP3    H150874   3.446   4.007   7.844 -0.3427  0.2131 -0.8328
 8893TIP3    H250875   3.484   3.895   7.749 -0.8693  0.1839 -1.0103
 8894TIP3   OH250876   2.001   0.316   9.364  0.2097  0.4343  0.2059
 8894TIP3    H150877   1.979   0.351   9.278 -1.0139 -0.1874  0.2348
 8894TIP3    H250878   2.091   0.343   9.379  0.6213  0.1189 -1.4983
 8895TIP3   OH250879   3.647   2.969   9.308  0.8857 -0.0900  0.1693
 8895TIP3    H150880   3.613   2.898   9.253  1.0628  0.1367 -0.2355
 8895TIP3    H250881   3.639   3.047   9.255  0.2352  0.2822  0.7996
 8896TIP3   OH250882   5.510   6.495   7.247 -0.6533  0.1493 -0.1399
 8896TIP3    H150883   5.500   6.486   7.342 -1.4192  0.9401 -0.1282
 8896TIP3    H250884   5.453   6.428   7.211  2.0870 -2.3874 -0.0832
 8897TIP3   OH250885   4.692   5.693   8.641  0.4884 -0.1852 -0.1933
 8897TIP3    H150886   4.683   5.773   8.693 -0.3824  0.0698 -0.7108
 8897TIP3    H250887   4.604   5.654   8.643 -0.1196  0.8028 -2.9773
 8898TIP3   OH250888   2.437   5.343   6.844 -0.4600 -0.0488  0.0784
 8898TIP3    H150889   2.404   5.433   6.854 -0.2838  0.0034  0.1965
 8898TIP3    H250890   2.495   5.331   6.919 -0.3461 -0.2011 -0.0359
 8899TIP3   OH250891   3.327   3.337   8.900 -0.5930 -0.0470 -0.2097
 8899TIP3    H150892   3.328   3.258   8.846 -0.1645  0.5443 -1.1000
 8899TIP3    H250893   3.409   3.382   8.878 -0.6820  0.4946  0.5209
 8900TIP3   OH250894   3.095   4.392   8.883 -0.5099 -0.6727 -0.1336
 8900TIP3    H150895   3.016   4.404   8.937 -1.1836  0.0193 -1.2219
 8900TIP3    H250896   3.167   4.414   8.941 -1.2688  0.9438  0.2573
 8901TIP3   OH250897   4.652   2.841   9.553  0.8412 -0.4788  0.3555
 8901TIP3    H150898   4.588   2.873   9.616  2.1809 -0.2184  1.6181
 8901TIP3    H250899   4.713   2.788   9.604  2.2689  0.1730 -0.6098
 8902TIP3   OH250900   3.170   2.736   7.808  0.2905  0.5269  0.0749
 8902TIP3    H150901   3.257   2.733   7.767  0.9349 -0.4687  1.4681
 8902TIP3    H250902   3.139   2.646   7.805 -0.0348  0.6052  0.9668
 8903TIP3   OH250903   3.527   5.648   8.105  0.0270 -0.0860  0.2968
 8903TIP3    H150904   3.545   5.711   8.175 -0.9027  0.1296  0.3581
 8903TIP3    H250905   3.475   5.580   8.147  0.7147 -0.7212  0.1451
 8904TIP3   OH250906   5.723   5.462   8.669  0.0217 -0.1972  0.0743
 8904TIP3    H150907   5.700   5.438   8.579  0.6872  1.8213 -0.6727
 8904TIP3    H250908   5.817   5.478   8.667 -0.1261  0.8874  0.8691
 8905TIP3   OH250909   4.573   3.482   8.114 -0.1075 -0.2317  0.4425
 8905TIP3    H150910   4.545   3.514   8.200  0.5997  0.3436  0.4718
 8905TIP3    H250911   4.492   3.464   8.067 -0.5055  0.2458  0.9347
 8906TIP3   OH250912   4.606   1.740   8.715 -0.1390 -0.2652 -0.2104
 8906TIP3    H150913   4.645   1.776   8.635  1.4598  0.6620  0.9228
 8906TIP3    H250914   4.513   1.730   8.694 -0.0906  1.6018 -1.6337
 8907TIP3   OH250915   3.522   2.629   7.627 -0.1656 -0.4785  0.0540
 8907TIP3    H150916   3.601   2.675   7.654 -0.4477  0.0095  0.0516
 8907TIP3    H250917   3.554   2.552   7.580  0.3152 -0.8768  1.0171
 8908TIP3   OH250918   6.483   1.174   7.934 -0.2657 -0.1997  0.1339
 8908TIP3    H150919   6.429   1.210   7.864 -2.0970  0.7854  1.9467
 8908TIP3    H250920   6.441   1.091   7.957 -0.2390 -0.0757  0.6556
 8909TIP3   OH250921   1.172   1.806   8.201 -0.4535 -0.0221 -0.3191
 8909TIP3    H150922   1.121   1.808   8.120 -0.8934 -1.1723 -0.1023
 8909TIP3    H250923   1.108   1.777   8.267  0.4345 -1.3792 -0.0165
 8910TIP3   OH250924   0.021   0.049   9.428  0.4975  0.0139  0.2276
 8910TIP3    H150925   0.073   0.005   9.496  0.5793  1.4970  1.1657
 8910TIP3    H250926   0.056   0.138   9.426 -0.8522  0.5450 -0.3702
 8911TIP3   OH250927   4.857   1.578   6.814 -0.3865 -0.3455  0.1191
 8911TIP3    H150928   4.809   1.618   6.742  0.3839  1.3794  0.5364
 8911TIP3    H250929   4.802   1.594   6.891 -0.4145 -0.7312  0.1825
 8912TIP3   OH250930   6.424   3.419   7.128 -0.3630  0.5731 -0.4815
 8912TIP3    H150931   6.389   3.442   7.043 -1.6613  1.1424  0.1833
 8912TIP3    H250932   6.348   3.392   7.180  0.0304  2.4570  1.2044
 8913TIP3   OH250933   0.076   5.259   7.324  0.1969 -0.2823 -0.0052
 8913TIP3    H150934   0.043   5.346   7.300 -0.5061 -1.0660 -2.1011
 8913TIP3    H250935   0.035   5.200   7.262  2.4508 -1.8383 -0.1318
 8914TIP3   OH250936   6.135   1.099   9.135  0.1278  0.6587 -0.2775
 8914TIP3    H150937   6.085   1.115   9.216  0.0792 -0.2002 -0.1224
 8914TIP3    H250938   6.097   1.159   9.071 -0.4852  0.6766  0.0887
 8915TIP3   OH250939   3.627   0.797   7.671 -0.2970 -0.6857  0.3668
 8915TIP3    H150940   3.713   0.813   7.634 -1.4167  1.1730 -1.7395
 8915TIP3    H250941   3.643   0.752   7.753  2.6853  0.1275  0.3264
 8916TIP3   OH250942   1.220   0.463   7.310  0.1922  0.5983 -0.7822
 8916TIP3    H150943   1.229   0.536   7.371 -1.3569  0.0648  0.1654
 8916TIP3    H250944   1.303   0.416   7.316 -0.1983  0.0397  1.7037
 8917TIP3   OH250945   6.057   2.896   7.167 -0.0216  0.4606 -0.2672
 8917TIP3    H150946   6.120   2.920   7.235 -0.0270 -0.1840 -0.0262
 8917TIP3    H250947   6.110   2.879   7.089  0.3869 -2.3145  0.5128
 8918TIP3   OH250948   5.056   1.457   9.408 -0.2312 -0.4361 -0.0647
 8918TIP3    H150949   5.131   1.511   9.382  0.7577 -1.1952  1.0475
 8918TIP3    H250950   4.993   1.518   9.445 -1.0065  0.4594 -2.6667
 8919TIP3   OH250951   6.128   1.954   9.126 -0.3295  0.7560 -0.1226
 8919TIP3    H150952   6.063   2.024   9.130  0.9011  1.8893  1.8493
 8919TIP3    H250953   6.162   1.948   9.215 -0.9925 -3.0231  0.0069
 8920TIP3   OH250954   5.996   4.952   8.238 -0.1375 -0.0047  0.6929
 8920TIP3    H150955   6.067   5.012   8.214  0.2284 -0.8373 -0.3773
 8920TIP3    H250956   5.923   4.978   8.182  0.4856 -1.4720 -0.8916
 8921TIP3   OH250957   4.214   2.423   7.530 -0.5238  0.5759  0.2694
 8921TIP3    H150958   4.255   2.350   7.484  0.5117  2.2422 -1.5620
 8921TIP3    H250959   4.282   2.456   7.589  0.1341  2.0168 -1.2360
 8922TIP3   OH250960   6.686   0.075   8.402 -0.1913  0.2285  0.2952
 8922TIP3    H150961   6.757   0.127   8.364  0.8793 -0.6530  1.0057
 8922TIP3    H250962   6.642   0.036   8.326  0.8171 -0.1267 -0.1294
 8923TIP3   OH250963   4.773   5.104   7.020  0.0142 -0.3218  0.1969
 8923TIP3    H150964   4.734   5.150   7.095 -0.8506 -1.0678  0.2353
 8923TIP3    H250965   4.770   5.167   6.948 -0.6935 -0.1412  0.3728
 8924TIP3   OH250966   4.740   6.469   6.916 -0.7214 -0.4001 -0.8666
 8924TIP3    H150967   4.739   6.524   6.995  0.0997  0.9940 -1.7961
 8924TIP3    H250968   4.833   6.455   6.899 -0.9147 -1.6232 -0.9865
 8925TIP3   OH250969   4.791   6.284   8.746  0.0120 -0.1326 -0.2163
 8925TIP3    H150970   4.840   6.253   8.823  0.0475 -0.1172 -0.2327
 8925TIP3    H250971   4.821   6.374   8.733  0.9835 -0.5563 -1.0278
 8926TIP3   OH250972   0.439   1.431   8.297  0.0726 -0.1713  0.0737
 8926TIP3    H150973   0.404   1.342   8.306  2.5138 -1.3364 -0.9668
 8926TIP3    H250974   0.369   1.488   8.329 -1.7709 -2.4243  0.3062
 8927TIP3   OH250975   2.556   4.362   9.066 -0.0520  0.0302 -0.4996
 8927TIP3    H150976   2.606   4.371   9.147 -1.4803 -0.2445  0.4471
 8927TIP3    H250977   2.492   4.293   9.084  0.6850 -1.2438 -2.4518
 8928TIP3   OH250978   1.579   6.445   7.418 -0.0982 -0.0983  0.3582
 8928TIP3    H150979   1.509   6.409   7.473 -0.0075  0.1263  0.6246
 8928TIP3    H250980   1.612   6.370   7.369  0.3512 -0.4596  1.1927
 8929TIP3   OH250981   1.460   2.109   9.147 -0.1473  0.5920  0.0040
 8929TIP3    H150982   1.494   2.033   9.100  0.5148  1.9519 -1.8332
 8929TIP3    H250983   1.376   2.128   9.106 -0.9159  0.1155  1.3117
 8930TIP3   OH250984   0.334   6.672   7.555 -0.3278 -0.5345 -0.1587
 8930TIP3    H150985   0.303   6.582   7.550 -1.1011 -0.3120  0.4293
 8930TIP3    H250986   0.424   6.669   7.523 -0.0626 -1.6502  0.6671
 8931TIP3   OH250987   4.134   4.559   7.135  0.0949  0.1087 -0.0182
 8931TIP3    H150988   4.204   4.585   7.075  0.0954  0.2692  0.0508
 8931TIP3    H250989   4.054   4.570   7.085  0.0345  0.9676  0.2471
 8932TIP3   OH250990   0.287   0.862   8.391 -0.4517  0.5721  0.0917
 8932TIP3    H150991   0.275   0.789   8.453 -1.2870  0.3113 -0.3670
 8932TIP3    H250992   0.382   0.874   8.387 -0.3635  0.3992  1.1959
 8933TIP3   OH250993   4.629   0.420   7.710 -0.2589  0.3361 -0.0080
 8933TIP3    H150994   4.572   0.343   7.713 -0.8412  0.7825  0.5347
 8933TIP3    H250995   4.620   0.453   7.621 -0.5277  0.1639 -0.0461
 8934TIP3   OH250996   2.479   0.161   6.747 -0.3664  0.2035 -0.2556
 8934TIP3    H150997   2.389   0.160   6.715  0.4141  2.2937 -2.9151
 8934TIP3    H250998   2.475   0.208   6.830 -1.7930 -0.4388  0.0712
 8935TIP3   OH250999   1.885   3.099   8.785 -0.2602 -0.2358 -1.0074
 8935TIP3    H151000   1.973   3.098   8.748  0.4156  0.7898  0.4866
 8935TIP3    H251001   1.830   3.130   8.713  0.6143 -0.6928 -1.8952
 8936TIP3   OH251002   6.288   1.267   7.233  0.0995 -0.6678  0.5871
 8936TIP3    H151003   6.215   1.323   7.208  0.4372 -1.0363 -1.3447
 8936TIP3    H251004   6.326   1.310   7.310 -0.3854  1.0996 -0.1138
 8937TIP3   OH251005   4.408   2.107   7.094  0.2171  0.3584 -0.2352
 8937TIP3    H151006   4.442   2.094   7.006 -0.6552  1.7099 -0.8099
 8937TIP3    H251007   4.447   2.190   7.123  0.2402  0.0929  0.5279
 8938TIP3   OH251008   4.379   5.509   8.050  0.3665  0.2218 -0.1427
 8938TIP3    H151009   4.407   5.585   8.101 -0.3085  1.4369 -1.5040
 8938TIP3    H251010   4.411   5.434   8.099 -0.7463  1.2761  2.3940
 8939TIP3   OH251011   2.938   2.855  10.412  0.1462  0.3637 -0.0487
 8939TIP3    H151012   3.005   2.910  10.372 -1.8205  2.2307 -0.9795
 8939TIP3    H251013   2.885   2.915  10.464 -1.2938 -0.8885 -0.0010
 8940TIP3   OH251014   6.210   1.985   9.410 -0.4159  0.4264 -0.1395
 8940TIP3    H151015   6.299   1.973   9.443 -0.2268 -0.1108 -0.8283
 8940TIP3    H251016   6.158   2.007   9.488  0.1367 -0.2113  0.4183
 8941TIP3   OH251017   0.581   2.268   8.935 -0.5064  0.6819 -0.1539
 8941TIP3    H151018   0.624   2.189   8.901 -1.8923  0.6871 -2.0762
 8941TIP3    H251019   0.653   2.330   8.949  0.3599 -0.0488 -1.1629
 8942TIP3   OH251020   3.164   5.497   7.377 -0.3795 -0.0099  0.0422
 8942TIP3    H151021   3.159   5.403   7.362 -2.6693  0.1173 -0.5059
 8942TIP3    H251022   3.092   5.515   7.439 -0.3857  1.4325 -0.3440
 8943TIP3   OH251023   6.717   3.322   6.892 -0.1765 -0.3870  0.5983
 8943TIP3    H151024   6.765   3.292   6.815  0.4908  0.0931  0.8091
 8943TIP3    H251025   6.694   3.242   6.939  1.2889 -0.6100  0.9905
 8944TIP3   OH251026   0.454   0.453   9.296 -0.1550  0.0549  0.1883
 8944TIP3    H151027   0.373   0.432   9.251 -0.8316  1.9192  0.4653
 8944TIP3    H251028   0.506   0.372   9.290 -0.3328  0.0505 -3.5677
 8945TIP3   OH251029   2.431   0.624   8.120  0.3187 -0.1960  0.4272
 8945TIP3    H151030   2.381   0.701   8.148 -0.4647 -0.2903 -0.6467
 8945TIP3    H251031   2.399   0.553   8.175 -0.1511 -0.0781  0.3146
 8946TIP3   OH251032   1.279   3.565   6.540  0.3592  0.0261 -0.4650
 8946TIP3    H151033   1.346   3.632   6.531 -1.0139  1.3745 -0.9580
 8946TIP3    H251034   1.218   3.599   6.605 -0.3233 -0.7628 -0.6657
 8947TIP3   OH251035   0.975   6.300   6.679 -0.3990  0.5136 -0.3343
 8947TIP3    H151036   0.936   6.380   6.714 -2.4489 -0.1346 -0.9614
 8947TIP3    H251037   0.926   6.229   6.721  0.2102 -0.3690 -1.0684
 8948TIP3   OH251038   5.650   1.359   7.497  0.7075  0.5645 -0.1338
 8948TIP3    H151039   5.596   1.287   7.464  1.9700 -1.0559  1.1284
 8948TIP3    H251040   5.682   1.404   7.419  0.7125 -0.9146 -1.0180
 8949TIP3   OH251041   6.673   6.656  10.089 -0.1190 -0.2076  0.2687
 8949TIP3    H151042   6.578   6.664  10.082 -0.2877  0.1924  2.4683
 8949TIP3    H251043   6.704   6.745  10.106  0.8529 -0.0741 -1.8677
 8950TIP3   OH251044   0.020   4.546   8.421 -0.2101 -0.0402  0.0918
 8950TIP3    H151045   0.109   4.578   8.409 -0.1399 -1.0562 -2.6610
 8950TIP3    H251046  -0.018   4.604   8.487  2.1940  0.9463  0.6881
 8951TIP3   OH251047   3.305   1.534   7.376  0.0008 -0.3945 -0.6315
 8951TIP3    H151048   3.387   1.528   7.327  0.0867 -2.0430 -0.3334
 8951TIP3    H251049   3.327   1.500   7.463 -0.6934  0.3779 -0.1474
 8952TIP3   OH251050   1.688   0.393   8.388 -0.7386  1.2744  0.0504
 8952TIP3    H151051   1.691   0.349   8.303 -0.3030  2.0362 -0.3448
 8952TIP3    H251052   1.615   0.454   8.380 -1.1244  0.8748  0.4733
 8953TIP3   OH251053   0.476   1.051   8.118 -0.0199 -0.2974  0.3093
 8953TIP3    H151054   0.438   1.090   8.040 -0.4775  0.2371  0.7912
 8953TIP3    H251055   0.544   0.992   8.085  2.4808  2.7165 -0.3763
 8954TIP3   OH251056   0.310   0.592   7.759  0.4757  0.0660 -0.6404
 8954TIP3    H151057   0.242   0.598   7.692 -0.5153 -1.2718  0.1960
 8954TIP3    H251058   0.271   0.537   7.828  1.3410  1.6053  1.1737
 8955TIP3   OH251059   4.069   5.894   8.615  0.7618  0.0070  0.7741
 8955TIP3    H151060   4.147   5.916   8.563  0.8181 -0.5268  0.6284
 8955TIP3    H251061   4.015   5.841   8.556 -1.0992  2.7166 -0.1723
 8956TIP3   OH251062   4.714   1.821   8.095 -0.4375  0.4962 -0.3865
 8956TIP3    H151063   4.694   1.728   8.081  0.1510  0.3265 -0.1397
 8956TIP3    H251064   4.682   1.839   8.183  1.3136 -0.0309  0.3967
 8957TIP3   OH251065   1.798   6.274   7.064 -0.6394 -0.1034  0.3688
 8957TIP3    H151066   1.762   6.358   7.034  0.6368 -0.1667 -1.5169
 8957TIP3    H251067   1.803   6.221   6.985 -1.5591 -2.0562  1.5594
 8958TIP3   OH251068   1.683   5.959  10.084 -0.1581 -0.6859  0.1842
 8958TIP3    H151069   1.670   6.054  10.081  2.5670 -0.2239  0.7609
 8958TIP3    H251070   1.613   5.927  10.141 -1.5717  0.8452 -0.6085
 8959TIP3   OH251071   0.287   6.474   7.931 -0.3599  0.3343  0.0289
 8959TIP3    H151072   0.210   6.418   7.930  0.3342 -0.6493 -0.9706
 8959TIP3    H251073   0.292   6.506   8.021 -0.7685 -1.2427  0.6538
 8960TIP3   OH251074   1.599   6.320  10.104 -0.6669 -0.7954  0.2127
 8960TIP3    H151075   1.603   6.270  10.023  1.7015 -2.9426  1.5003
 8960TIP3    H251076   1.626   6.408  10.079 -1.0638 -1.1360 -1.5015
 8961TIP3   OH251077   0.331   5.802   8.610  0.2993 -0.1618  0.5213
 8961TIP3    H151078   0.351   5.876   8.553  2.3772 -0.2330  1.0684
 8961TIP3    H251079   0.303   5.843   8.693  0.8564  0.0130  0.6277
 8962TIP3   OH251080   5.666   1.461   8.826  0.0367  0.0150  0.2068
 8962TIP3    H151081   5.645   1.426   8.913  0.3519 -0.1167  0.2337
 8962TIP3    H251082   5.586   1.503   8.797 -0.3790 -0.8311  0.1207
 8963TIP3   OH251083   0.829   2.449   8.459 -0.6296 -0.0710 -0.5898
 8963TIP3    H151084   0.874   2.468   8.377 -0.3559  0.5638 -0.2985
 8963TIP3    H251085   0.876   2.500   8.525 -1.9626  0.8736 -0.3270
 8964TIP3   OH251086   2.168   5.618   7.818  0.2638  0.6154  0.1428
 8964TIP3    H151087   2.073   5.610   7.826  0.3944 -0.8194  0.5490
 8964TIP3    H251088   2.201   5.529   7.831  1.7168  1.2147  0.7878
 8965TIP3   OH251089   2.575   5.245   8.408 -0.3451  0.2092  0.8091
 8965TIP3    H151090   2.545   5.293   8.331  0.6686 -0.1191  0.1968
 8965TIP3    H251091   2.526   5.163   8.405 -0.1231  0.0903  0.3691
 8966TIP3   OH251092   1.020   3.304   7.533  0.5498  0.5428 -0.3266
 8966TIP3    H151093   0.945   3.363   7.527  0.0240 -0.2002 -1.6195
 8966TIP3    H251094   0.984   3.224   7.572  0.8140  0.4034 -0.3644
 8967TIP3   OH251095   3.642   4.786   8.163  0.6200 -0.9524  1.2871
 8967TIP3    H151096   3.587   4.851   8.206 -1.3142 -0.1714 -2.0196
 8967TIP3    H251097   3.600   4.702   8.183 -1.0628 -0.4824 -0.0447
 8968TIP3   OH251098   3.462   4.702   8.784 -0.1763 -0.0781  0.0603
 8968TIP3    H151099   3.522   4.636   8.819  0.1705  0.5438  0.6575
 8968TIP3    H251100   3.501   4.786   8.809  0.2084  0.4241 -1.9951
 8969TIP3   OH251101   2.213   5.499   8.986  0.4967 -0.0946 -0.1229
 8969TIP3    H151102   2.264   5.434   9.034 -0.0474 -0.8182 -0.4908
 8969TIP3    H251103   2.260   5.511   8.904  0.6989  0.1096  0.0251
 8970TIP3   OH251104   4.410   1.066   8.309 -0.5804  0.0089 -0.0909
 8970TIP3    H151105   4.386   1.138   8.367  0.6540  1.3035 -1.1327
 8970TIP3    H251106   4.366   0.990   8.347  0.4197  0.7026  2.7198
 8971TIP3   OH251107   1.472   0.686   7.529  0.1524 -0.0616 -0.1998
 8971TIP3    H151108   1.522   0.627   7.472 -0.5825 -1.5342  0.6251
 8971TIP3    H251109   1.537   0.746   7.565  1.3918 -1.9945  0.9512
 8972TIP3   OH251110   0.159   3.071   7.762 -0.5410 -0.1767 -0.5136
 8972TIP3    H151111   0.130   3.063   7.671 -0.8273  0.5880 -0.4923
 8972TIP3    H251112   0.079   3.080   7.813 -0.4813 -1.9952 -0.0052
 8973TIP3   OH251113   1.165   5.896   7.377 -0.0742 -0.1152  0.2721
 8973TIP3    H151114   1.245   5.870   7.422 -0.0501 -0.0700  0.2555
 8973TIP3    H251115   1.182   5.985   7.347 -0.4081  0.1751  0.9256
 8974TIP3   OH251116   3.912   3.487   7.416 -0.1941  0.2118  0.4348
 8974TIP3    H151117   3.997   3.464   7.379 -1.2739 -2.8605 -0.4226
 8974TIP3    H251118   3.859   3.514   7.341  0.1467  2.9418  1.0642
 8975TIP3   OH251119   0.533   6.349   7.234  0.6674 -0.2205 -0.1441
 8975TIP3    H151120   0.492   6.435   7.233  0.5924 -0.2390  0.4537
 8975TIP3    H251121   0.602   6.353   7.169 -1.3759 -0.7484 -2.5054
 8976TIP3   OH251122   5.107   5.655   7.219  0.4688  0.9990  0.3143
 8976TIP3    H151123   5.073   5.732   7.173  0.3869  1.5167  1.2264
 8976TIP3    H251124   5.047   5.585   7.196  0.8780  1.0411 -1.0155
 8977TIP3   OH251125   3.855   1.659   6.853 -0.2505 -0.3507 -0.1323
 8977TIP3    H151126   3.761   1.661   6.837 -0.1861 -1.4714 -0.7432
 8977TIP3    H251127   3.866   1.594   6.922  0.0271  0.2522  0.4044
 8978TIP3   OH251128   4.218   0.455   9.157  0.2077 -0.3035  0.4037
 8978TIP3    H151129   4.309   0.434   9.177  0.1126 -1.0833  0.0597
 8978TIP3    H251130   4.212   0.550   9.165  1.1311 -0.2196  0.0928
 8979TIP3   OH251131   1.861   2.643  10.068 -0.2890  0.0086 -0.4016
 8979TIP3    H151132   1.924   2.578  10.036  0.4766  0.5272  0.0146
 8979TIP3    H251133   1.910   2.693  10.133 -1.7691 -0.9715  1.5767
 8980TIP3   OH251134   6.336   2.323   9.551 -0.1780 -0.1179  0.1885
 8980TIP3    H151135   6.387   2.251   9.590  1.1196  0.6176 -0.0967
 8980TIP3    H251136   6.335   2.391   9.619 -0.0406  0.2121 -0.1419
 8981TIP3   OH251137   4.489   4.705   7.746  0.3236  0.0726  0.4020
 8981TIP3    H151138   4.552   4.768   7.781 -0.0491 -0.0391  1.2971
 8981TIP3    H251139   4.436   4.755   7.683  2.2408 -0.1643 -1.5378
 8982TIP3   OH251140   5.037   2.559   7.396  0.6282  0.1043 -0.0107
 8982TIP3    H151141   4.947   2.528   7.399  0.2708  1.1558  1.6444
 8982TIP3    H251142   5.071   2.529   7.312 -0.8459 -1.4237 -0.0975
 8983TIP3   OH251143   2.260   0.551   7.739  0.1171 -0.5515 -0.5063
 8983TIP3    H151144   2.278   0.504   7.820 -0.0730  2.7825  1.6293
 8983TIP3    H251145   2.335   0.531   7.683  1.0831 -1.6198  1.0924
 8984TIP3   OH251146   1.562   2.245   9.655 -0.2006  0.4855 -0.2239
 8984TIP3    H151147   1.494   2.182   9.679  0.8787 -0.7225 -0.2498
 8984TIP3    H251148   1.551   2.257   9.560 -1.3378  1.4939  0.0105
 8985TIP3   OH251149   2.990   4.946   7.212  0.7232 -0.7637 -0.0116
 8985TIP3    H151150   2.923   4.887   7.179  0.3712 -1.1554  1.3107
 8985TIP3    H251151   2.967   5.031   7.177 -0.5165 -0.8835  0.4729
 8986TIP3   OH251152   5.884   1.861   8.933  0.1056  0.9087  0.0654
 8986TIP3    H151153   5.945   1.918   8.885 -1.0704  1.4032 -0.9292
 8986TIP3    H251154   5.914   1.773   8.915  0.9339  1.1625  0.1729
 8987TIP3   OH251155   2.304   0.282   7.184 -0.0534  0.3579  0.2358
 8987TIP3    H151156   2.251   0.274   7.264  0.7649 -1.3343  0.6758
 8987TIP3    H251157   2.394   0.263   7.213  0.1585 -1.0370 -1.1733
 8988TIP3   OH251158   6.007   6.471   8.436 -0.4612  0.7811  0.5858
 8988TIP3    H151159   6.036   6.489   8.525 -0.5791  1.2739  0.5316
 8988TIP3    H251160   5.913   6.454   8.444 -0.0393 -1.8139  0.8983
 8989TIP3   OH251161   0.998   2.062   7.618  0.0978  0.5432  0.5818
 8989TIP3    H151162   1.049   2.041   7.540  1.1322  1.1792  1.0621
 8989TIP3    H251163   1.060   2.108   7.676 -1.1410  1.7968  0.9786
 8990TIP3   OH251164   6.666   6.725   9.023 -0.0524 -0.0038 -0.0111
 8990TIP3    H151165   6.714   6.723   8.940  1.0930 -1.4261  0.6320
 8990TIP3    H251166   6.591   6.668   9.008  1.1724 -1.8043  0.4688
 8991TIP3   OH251167   4.292   3.765   7.290 -0.2438  0.2418 -0.3395
 8991TIP3    H151168   4.349   3.736   7.219 -0.2647 -0.3597 -0.1165
 8991TIP3    H251169   4.313   3.858   7.301  0.3111  0.1542 -0.6093
 8992TIP3   OH251170   6.542   4.020   8.358  0.3934  0.3622  0.2152
 8992TIP3    H151171   6.454   3.991   8.333  0.1598  1.1222  0.1318
 8992TIP3    H251172   6.598   3.943   8.343 -0.2788 -0.1704  0.4099
 8993TIP3   OH251173   0.426   1.799   6.591 -0.0534  0.1666  0.4481
 8993TIP3    H151174   0.366   1.783   6.518 -1.5985 -0.7089  1.8349
 8993TIP3    H251175   0.372   1.788   6.669  1.7726  0.0369  1.7587
 8994TIP3   OH251176   2.867   2.574   8.398  0.1887  0.2094 -0.5313
 8994TIP3    H151177   2.877   2.558   8.492  0.6331  1.8469 -0.2534
 8994TIP3    H251178   2.772   2.569   8.383  0.2290 -1.6474 -0.3417
 8995TIP3   OH251179   4.805   1.027   8.945 -0.1769 -0.5865 -0.2779
 8995TIP3    H151180   4.833   1.100   8.891  0.9577  0.9443  2.2200
 8995TIP3    H251181   4.710   1.022   8.932 -0.1589  0.8104 -1.0930
 8996TIP3   OH251182   4.730   1.548   8.889  0.4314 -0.7834 -0.1146
 8996TIP3    H151183   4.684   1.626   8.859 -0.4334 -0.8337  1.0107
 8996TIP3    H251184   4.783   1.577   8.964  0.9213 -1.0697 -0.3400
 8997TIP3   OH251185   3.337   2.747   7.431  0.1783  0.7351 -0.7636
 8997TIP3    H151186   3.413   2.722   7.483 -1.3045  0.6446  1.4847
 8997TIP3    H251187   3.309   2.667   7.388 -0.2767  0.1082  0.6508
 8998TIP3   OH251188   4.794   3.508   9.896  0.1788  0.0241  0.4211
 8998TIP3    H151189   4.742   3.587   9.906  0.5892  0.2063  1.2652
 8998TIP3    H251190   4.880   3.540   9.868  0.4263 -0.0877  1.0350
 8999TIP3   OH251191   2.668   2.019   8.813  0.6521 -0.2020 -0.3530
 8999TIP3    H151192   2.573   2.024   8.803  0.8951  4.1514 -2.5692
 8999TIP3    H251193   2.684   2.050   8.902  0.0594 -1.2651  0.1490
 9000TIP3   OH251194   5.011   2.884   8.905 -0.4555  0.4486 -0.3121
 9000TIP3    H151195   4.967   2.966   8.882 -3.1799 -0.7178  0.3985
 9000TIP3    H251196   4.954   2.844   8.970  1.8530 -1.0925  0.8625
 9001TIP3   OH251197   1.298   0.918   6.700 -0.5194  0.4803 -0.2826
 9001TIP3    H151198   1.210   0.920   6.739 -0.1267  2.7721  0.6267
 9001TIP3    H251199   1.328   0.829   6.715 -2.1704  0.0217  0.6010
 9002TIP3   OH251200   1.612   6.238   7.266 -0.1999  0.4236  0.0144
 9002TIP3    H151201   1.545   6.257   7.201 -0.0282  0.7761 -0.0608
 9002TIP3    H251202   1.693   6.231   7.215  0.1376  1.8674  0.3143
 9003TIP3   OH251203   0.660   3.532   8.411  0.7622 -0.0051  0.1506
 9003TIP3    H151204   0.708   3.449   8.403  3.1641  1.3145 -0.2242
 9003TIP3    H251205   0.698   3.573   8.488 -0.0629  0.9671  0.0536
 9004TIP3   OH251206   6.319   2.532   8.460  0.1433 -0.3818 -0.3584
 9004TIP3    H151207   6.272   2.474   8.520 -0.5920  0.3369 -0.2303
 9004TIP3    H251208   6.255   2.598   8.434  1.1457  0.7836  0.0169
 9005TIP3   OH251209   2.169   3.319   7.870  0.2037  0.6762  0.6619
 9005TIP3    H151210   2.194   3.259   7.941  2.2411  0.3169 -0.2984
 9005TIP3    H251211   2.087   3.358   7.900 -0.4391 -1.5140  1.9772
 9006TIP3   OH251212   5.691   2.168   6.640 -0.2929  0.3635 -0.2525
 9006TIP3    H151213   5.675   2.081   6.675  0.5417  0.2569 -0.1023
 9006TIP3    H251214   5.641   2.227   6.697 -0.4180  0.0323 -0.0192
 9007TIP3   OH251215   2.452   5.914   8.486  0.4380 -0.3577 -0.3538
 9007TIP3    H151216   2.479   5.868   8.565 -0.9617 -0.4006  0.1359
 9007TIP3    H251217   2.489   5.863   8.414  0.5435 -1.1370  0.2398
 9008TIP3   OH251218   4.175   5.311   9.278  0.0363 -0.5224 -0.0741
 9008TIP3    H151219   4.236   5.374   9.317  0.3219 -0.7496 -0.1498
 9008TIP3    H251220   4.225   5.271   9.207 -0.2814 -0.5428 -0.2895
 9009TIP3   OH251221   6.240   4.116   6.635 -0.1118  0.4707 -0.2238
 9009TIP3    H151222   6.234   4.207   6.662 -0.6751 -0.0101  1.3732
 9009TIP3    H251223   6.330   4.106   6.605  0.5983  1.0456  1.5979
 9010TIP3   OH251224   4.544   0.880   9.713 -0.1896  0.3312  0.2713
 9010TIP3    H151225   4.480   0.820   9.674  0.5711 -0.6288  0.4434
 9010TIP3    H251226   4.530   0.872   9.807 -0.7163  1.1556  0.2672
 9011TIP3   OH251227   6.644   1.377   8.052  0.3483 -0.4696 -0.4633
 9011TIP3    H151228   6.715   1.338   8.104  0.8282 -0.0754 -0.8110
 9011TIP3    H251229   6.603   1.303   8.009  0.4633 -0.7189 -0.1490
 9012TIP3   OH251230   1.537   4.208   9.460 -0.9252  0.3659  0.1730
 9012TIP3    H151231   1.559   4.125   9.503  0.1199  0.5942  0.1099
 9012TIP3    H251232   1.446   4.224   9.484 -1.1132 -0.7514  0.2654
 9013TIP3   OH251233   0.741   1.525  10.445  0.1822  0.2649 -0.2618
 9013TIP3    H151234   0.649   1.501  10.445 -0.2549  1.7365  0.7867
 9013TIP3    H251235   0.748   1.590  10.516  1.8786  0.6818 -0.7669
 9014TIP3   OH251236   5.955   2.070   6.596 -0.0142 -0.2715  0.0056
 9014TIP3    H151237   5.931   1.981   6.572  0.8754 -0.5420  0.1028
 9014TIP3    H251238   5.871   2.116   6.604 -0.4413 -0.8563 -0.9572
 9015TIP3   OH251239   4.460   2.579   8.419 -0.3047 -0.5918  0.5846
 9015TIP3    H151240   4.552   2.601   8.434 -0.1625 -1.1086  0.5009
 9015TIP3    H251241   4.443   2.608   8.330 -0.6561  0.8849  1.1082
 9016TIP3   OH251242   1.372   6.569   9.290  0.1690 -0.4830  0.5776
 9016TIP3    H151243   1.417   6.597   9.210 -0.5286  2.0661  1.0095
 9016TIP3    H251244   1.377   6.473   9.287  3.0412 -0.4099 -0.8297
 9017TIP3   OH251245   1.084   1.459   7.727  0.3899 -0.0961  0.0815
 9017TIP3    H151246   1.085   1.505   7.643  0.1092 -0.3790 -0.0768
 9017TIP3    H251247   1.124   1.374   7.708 -1.5393 -0.9834 -0.2465
 9018TIP3   OH251248   1.994   5.309   7.504 -0.2266  0.7361 -0.4536
 9018TIP3    H151249   1.913   5.358   7.491 -0.3834  0.8309  0.8101
 9018TIP3    H251250   1.976   5.222   7.468 -1.1050  0.5612  0.3691
 9019TIP3   OH251251   6.175   2.030   7.787  0.4937 -0.2891  0.2450
 9019TIP3    H151252   6.217   2.106   7.748  0.1908 -0.4388 -0.3816
 9019TIP3    H251253   6.085   2.032   7.754  0.5959 -1.1437 -0.1103
 9020TIP3   OH251254   1.997   5.789   6.647 -0.3645  0.1529 -0.2530
 9020TIP3    H151255   2.072   5.790   6.707 -0.4030 -0.9050 -0.1603
 9020TIP3    H251256   2.008   5.868   6.594  0.9211 -0.0638 -0.3615
 9021TIP3   OH251257   0.993   4.337   7.056  0.8396 -0.0586 -0.4818
 9021TIP3    H151258   1.018   4.408   6.996  1.4550 -0.3296 -0.5496
 9021TIP3    H251259   0.941   4.277   7.002  1.6973 -0.4873 -0.8394
 9022TIP3   OH251260   3.116   3.469   8.997  0.0961 -0.1473 -0.0324
 9022TIP3    H151261   3.175   3.403   8.960 -0.1730 -0.1775 -0.4119
 9022TIP3    H251262   3.060   3.494   8.924 -0.1228  0.1472  0.2364
 9023TIP3   OH251263   3.448   1.859   8.773 -0.2768 -0.4590 -0.3081
 9023TIP3    H151264   3.362   1.887   8.803 -0.1185  0.5814 -0.7908
 9023TIP3    H251265   3.507   1.880   8.846 -0.3526 -0.7550 -0.1582
 9024TIP3   OH251266   4.056   1.224   7.916  0.3086  0.1680 -0.2842
 9024TIP3    H151267   3.982   1.284   7.913  0.5343  0.5579  1.0972
 9024TIP3    H251268   4.092   1.235   8.004  1.9488 -0.0863 -0.8912
 9025TIP3   OH251269   1.794   0.676   7.715 -0.4745 -0.1250  0.0197
 9025TIP3    H151270   1.825   0.718   7.796 -1.3794  1.4382 -0.4152
 9025TIP3    H251271   1.868   0.622   7.687  0.2201  0.0840  1.3499
 9026TIP3   OH251272   0.870   1.030   8.181 -0.1855 -0.2585  0.1603
 9026TIP3    H151273   0.843   1.112   8.222 -0.3109  0.0836 -0.5891
 9026TIP3    H251274   0.954   1.008   8.222  1.6629  2.0859 -2.0505
 9027TIP3   OH251275   5.472   1.369   9.599  0.0623 -0.3662  0.0003
 9027TIP3    H151276   5.453   1.310   9.527  2.6191  1.2923 -2.1971
 9027TIP3    H251277   5.557   1.407   9.579  0.0748  1.5907  2.9782
 9028TIP3   OH251278   2.559   4.830   7.046 -0.1326  0.4867 -0.6057
 9028TIP3    H151279   2.549   4.892   7.119  1.5247  0.4803 -0.3325
 9028TIP3    H251280   2.489   4.853   6.985 -0.1877  1.9501 -0.0297
 9029TIP3   OH251281   1.621   1.188   9.349 -0.3603  0.5740 -0.3809
 9029TIP3    H151282   1.663   1.245   9.285  0.5487 -1.7424 -1.9609
 9029TIP3    H251283   1.686   1.120   9.368 -2.2154 -1.2955 -0.4122
 9030TIP3   OH251284   1.103   1.330   9.835 -0.2341  0.0092  0.1590
 9030TIP3    H151285   1.195   1.307   9.850 -0.2680 -0.0567  0.2725
 9030TIP3    H251286   1.080   1.385   9.910 -0.6289 -0.9576  0.7742
 9031TIP3   OH251287   4.433   4.183   7.843 -0.2003  0.6985 -0.0115
 9031TIP3    H151288   4.390   4.241   7.905 -1.0965  0.5402 -0.4691
 9031TIP3    H251289   4.429   4.096   7.884  0.9551  0.9027  0.5780
 9032TIP3   OH251290   1.382   1.369   9.303  0.2128 -0.9972  0.1645
 9032TIP3    H151291   1.468   1.331   9.323  0.4237 -0.2887  0.6459
 9032TIP3    H251292   1.352   1.405   9.387  0.3300  0.4765 -0.3900
 9033TIP3   OH251293   3.983   1.519   8.699  0.1838 -0.0398  0.1584
 9033TIP3    H151294   4.024   1.433   8.696 -1.8398 -1.1817  1.7757
 9033TIP3    H251295   3.926   1.522   8.622  0.2231 -0.1815  0.1239
 9034TIP3   OH251296   2.279   6.057   9.121  0.6083 -0.2846 -0.6373
 9034TIP3    H151297   2.212   5.996   9.089 -0.7478  0.6320  0.3202
 9034TIP3    H251298   2.303   6.022   9.207  1.0362 -0.3468 -0.7793
 9035TIP3   OH251299   2.380   5.039   7.935  0.1975  0.1854  0.0771
 9035TIP3    H151300   2.438   4.965   7.921  0.3445  0.6161 -1.8966
 9035TIP3    H251301   2.329   5.045   7.854 -1.9716  0.3953  1.3697
 9036TIP3   OH251302   5.917   3.397   7.439 -0.1537 -0.3004 -0.7150
 9036TIP3    H151303   5.954   3.485   7.440  0.4567 -0.5563  0.2107
 9036TIP3    H251304   5.979   3.344   7.489 -2.0453 -0.6196  1.4967
 9037TIP3   OH251305   6.218   1.635   8.050  0.2862 -0.0976  0.2873
 9037TIP3    H151306   6.179   1.698   7.990  1.9522  1.1715  0.4332
 9037TIP3    H251307   6.176   1.552   8.030  1.6675 -0.0648 -3.6133
 9038TIP3   OH251308   2.145   3.285   7.594 -0.5249 -0.2700  0.6372
 9038TIP3    H151309   2.159   3.284   7.689  0.1174  0.6647  0.5683
 9038TIP3    H251310   2.128   3.377   7.574 -0.9482 -0.5074 -0.1254
 9039TIP3   OH251311   5.730   4.970   8.116 -0.0533 -0.3190 -0.8946
 9039TIP3    H151312   5.758   4.974   8.025 -0.0755 -2.7340 -1.0630
 9039TIP3    H251313   5.642   5.008   8.116 -0.0794 -0.3597 -1.8764
 9040TIP3   OH251314   6.058   3.879   8.915 -0.6182 -0.3045  0.2422
 9040TIP3    H151315   6.116   3.805   8.931  1.5857  1.1519 -0.6058
 9040TIP3    H251316   6.056   3.887   8.820  1.7982  2.5681  0.2933
 9041TIP3   OH251317   6.663   3.032   8.634  0.2091  0.5049  0.4040
 9041TIP3    H151318   6.737   3.011   8.691 -0.2474 -0.8418  0.5458
 9041TIP3    H251319   6.635   2.947   8.600 -0.0382  1.1971 -1.2020
 9042TIP3   OH251320   1.633   2.078   7.347  0.1964 -0.0746  0.2672
 9042TIP3    H151321   1.691   2.154   7.340  1.0258 -0.7183 -0.0238
 9042TIP3    H251322   1.692   2.003   7.351 -0.5591 -0.6335  1.8278
 9043TIP3   OH251323   6.055   4.526   7.161  0.6476 -0.5673 -0.0422
 9043TIP3    H151324   5.979   4.517   7.104  0.7089 -1.3746 -0.0150
 9043TIP3    H251325   6.019   4.523   7.250  0.7587 -1.6932 -0.0144
 9044TIP3   OH251326   3.930   3.484   9.266  0.4204  0.2865  0.3024
 9044TIP3    H151327   4.020   3.506   9.291  0.2428 -1.3889  2.7390
 9044TIP3    H251328   3.935   3.396   9.230 -0.2473  0.2325  0.3259
 9045TIP3   OH251329   1.897   0.566   8.396  0.2576  0.2572  0.5184
 9045TIP3    H151330   1.826   0.501   8.399 -1.1419  1.7146  0.3930
 9045TIP3    H251331   1.871   0.633   8.460  1.2186  1.1156  0.0384
 9046TIP3   OH251332   5.316   5.515   7.316 -0.1007  0.2752 -0.2857
 9046TIP3    H151333   5.351   5.456   7.250  0.0047  0.1968 -0.1607
 9046TIP3    H251334   5.243   5.560   7.273 -0.8819 -0.7234 -0.0477
 9047TIP3   OH251335   0.464   1.198   9.111 -0.0690  0.2403  0.4634
 9047TIP3    H151336   0.501   1.139   9.177  1.6147  1.5773  0.7950
 9047TIP3    H251337   0.427   1.271   9.162 -0.8839  0.1475  0.0157
 9048TIP3   OH251338   1.029   3.207   8.436 -0.1034  0.6812 -0.1734
 9048TIP3    H151339   1.090   3.148   8.392  0.6445 -0.9327  2.7386
 9048TIP3    H251340   1.080   3.287   8.450  0.5026  0.2762 -0.0141
 9049TIP3   OH251341   0.828   1.987   8.761 -0.2965 -0.7446  0.1091
 9049TIP3    H151342   0.798   1.908   8.716 -1.8933 -0.3242  0.4035
 9049TIP3    H251343   0.796   2.060   8.709 -0.1236 -0.2707  0.6507
 9050TIP3   OH251344   0.327   5.186   8.290  0.6537 -0.2337 -0.2099
 9050TIP3    H151345   0.265   5.258   8.297 -2.2240 -2.5298 -0.3078
 9050TIP3    H251346   0.340   5.174   8.196 -1.4531 -1.7815 -0.3687
 9051TIP3   OH251347   1.292   2.113   9.446 -0.0293  0.4306  0.1557
 9051TIP3    H151348   1.361   2.165   9.406  0.0399 -0.3837 -0.8441
 9051TIP3    H251349   1.333   2.073   9.522  0.0823  1.3466  0.5864
 9052TIP3   OH251350   3.785   2.242   6.638  0.0801  0.0277  0.0651
 9052TIP3    H151351   3.797   2.218   6.546 -0.3480 -1.6022  0.4088
 9052TIP3    H251352   3.868   2.220   6.680  0.5024  1.3598 -0.0115
 9053TIP3   OH251353   2.528   3.811   9.233  0.3562 -0.0454 -0.3880
 9053TIP3    H151354   2.619   3.838   9.221  0.9246 -1.8068 -0.3299
 9053TIP3    H251355   2.517   3.738   9.172 -0.5281 -0.8947  0.7471
 9054TIP3   OH251356   2.910   5.410   7.020  0.0887 -0.4444  0.0125
 9054TIP3    H151357   2.961   5.466   7.080 -0.1782 -1.0734  0.8409
 9054TIP3    H251358   2.955   5.420   6.936 -0.0670  1.1696  0.0766
 9055TIP3   OH251359   5.134   1.196   9.280 -0.4374  0.7667  0.7710
 9055TIP3    H151360   5.110   1.257   9.350 -1.0034 -0.1683  1.3988
 9055TIP3    H251361   5.070   1.214   9.211 -0.7893  0.6934  1.0705
 9056TIP3   OH251362   3.094   1.886   9.104 -0.0991 -0.2249 -0.1907
 9056TIP3    H151363   3.023   1.939   9.068  0.7216  0.7838 -0.3504
 9056TIP3    H251364   3.114   1.926   9.188  1.3487  0.5281 -0.8463
 9057TIP3   OH251365   5.589   4.070   8.231  0.3392 -0.0004  0.0443
 9057TIP3    H151366   5.534   4.021   8.170  0.2001  1.2462 -0.8583
 9057TIP3    H251367   5.527   4.125   8.279  0.6809  0.6015 -0.2052
 9058TIP3   OH251368   5.913   2.151   9.467 -0.4809  0.1021  0.5721
 9058TIP3    H151369   5.914   2.101   9.385  1.0689  2.3468 -0.8973
 9058TIP3    H251370   5.973   2.102   9.525  1.9461  0.7399 -1.2279
 9059TIP3   OH251371   4.716   5.290   7.607 -0.0015  0.0919  0.1207
 9059TIP3    H151372   4.692   5.205   7.569 -2.6543  0.6287  0.4440
 9059TIP3    H251373   4.718   5.350   7.533 -1.7439  0.4361  0.3132
 9060TIP3   OH251374   6.489   1.348   7.436 -0.2445  0.3361 -0.0025
 9060TIP3    H151375   6.516   1.336   7.527 -1.3007 -1.2734  0.1427
 9060TIP3    H251376   6.568   1.331   7.385  0.1672  0.4961  0.5673
 9061TIP3   OH251377   4.815   0.136   7.058  0.1072 -0.4061 -0.1796
 9061TIP3    H151378   4.859   0.186   7.126 -1.3475 -1.4036  1.5773
 9061TIP3    H251379   4.840   0.179   6.976  2.5271  0.3602  0.8932
 9062TIP3   OH251380   1.811   1.386   7.752  0.8063  0.8025  0.6040
 9062TIP3    H151381   1.810   1.367   7.846  0.0908  3.2556  1.1566
 9062TIP3    H251382   1.867   1.318   7.714 -2.4388 -3.1593  2.0651
 9063TIP3   OH251383   3.472   6.015   7.813  0.3784  0.1417  0.1690
 9063TIP3    H151384   3.505   5.925   7.819  0.3555  0.0340 -1.0371
 9063TIP3    H251385   3.402   6.019   7.879  1.9529  0.0209  1.9256
 9064TIP3   OH251386   5.734   5.863   7.042 -0.0532  0.7979  0.2293
 9064TIP3    H151387   5.815   5.882   7.088  1.2045 -1.4881 -0.8842
 9064TIP3    H251388   5.680   5.816   7.106  1.6579 -2.3154 -0.4271
 9065TIP3   OH251389   3.734   4.529   9.137  0.1895  0.0441 -0.0410
 9065TIP3    H151390   3.772   4.572   9.214 -0.2823 -0.2624  0.3655
 9065TIP3    H251391   3.642   4.515   9.159  0.6411 -2.5611  0.4790
 9066TIP3   OH251392   5.948   1.148   8.923  0.2669  0.0036 -0.3894
 9066TIP3    H151393   5.874   1.207   8.908  0.4058  1.2178  2.8214
 9066TIP3    H251394   6.014   1.174   8.859 -0.5520  1.8113 -0.5474
 9067TIP3   OH251395   2.676   1.247   7.971 -0.0580 -0.5895  0.2897
 9067TIP3    H151396   2.651   1.323   7.918  1.7593 -0.0082  0.2121
 9067TIP3    H251397   2.640   1.266   8.058 -0.7328 -0.2567 -0.0576
 9068TIP3   OH251398   6.178   6.740   7.888 -0.3973 -0.6744  0.0903
 9068TIP3    H151399   6.139   6.705   7.968  1.3416  1.0083  1.8039
 9068TIP3    H251400   6.265   6.701   7.885  1.6141  3.0893  2.0652
 9069TIP3   OH251401   1.850   2.266   7.373  0.0704  0.7336 -0.5219
 9069TIP3    H151402   1.845   2.220   7.457 -0.5865 -1.1088 -1.5066
 9069TIP3    H251403   1.899   2.346   7.393 -0.7829  0.7792  1.7727
 9070TIP3   OH251404   6.706   3.070   7.931  0.2362  0.3450 -0.0412
 9070TIP3    H151405   6.721   3.129   8.005  1.2915  0.2990 -0.1976
 9070TIP3    H251406   6.689   2.985   7.971 -2.0216  0.8523  0.2128
 9071TIP3   OH251407   1.851   0.954   8.552  0.0972  0.1187 -0.9275
 9071TIP3    H151408   1.901   0.884   8.595  0.5952  1.6296  1.1016
 9071TIP3    H251409   1.904   1.032   8.564 -1.6218  1.3216 -0.8856
 9072TIP3   OH251410   3.699   2.530   8.299  0.1137 -0.1490 -0.1263
 9072TIP3    H151411   3.679   2.537   8.392  0.3484 -2.7940  0.1852
 9072TIP3    H251412   3.753   2.607   8.281 -0.6946  0.9042  1.6756
 9073TIP3   OH251413   1.969   4.385   7.555 -0.3691  0.7583 -0.0905
 9073TIP3    H151414   1.960   4.304   7.506  2.2642 -0.4085  1.1865
 9073TIP3    H251415   1.938   4.453   7.494  0.0752 -0.8906 -2.2812
 9074TIP3   OH251416   6.560   5.062   8.958  0.2057  0.9102 -0.1855
 9074TIP3    H151417   6.625   5.113   9.006  1.8737 -0.4672 -0.8890
 9074TIP3    H251418   6.501   5.027   9.025  1.0678  0.9717  0.6101
 9075TIP3   OH251419   4.692   0.654   7.270  0.0666 -0.1711 -0.2907
 9075TIP3    H151420   4.702   0.589   7.201 -0.8185  0.9059 -1.4670
 9075TIP3    H251421   4.754   0.723   7.247  0.7399 -0.4088  0.7476
 9076TIP3   OH251422   6.435   5.497   8.750 -0.0930  0.0946  0.4913
 9076TIP3    H151423   6.446   5.584   8.710 -1.5553 -1.0928 -2.9262
 9076TIP3    H251424   6.361   5.509   8.811 -0.8213  1.1079 -0.5351
 9077TIP3   OH251425   2.254   0.034   6.457  0.3176  0.5410  0.6197
 9077TIP3    H151426   2.222   0.123   6.467  1.0149  0.7533  1.0369
 9077TIP3    H251427   2.298   0.014   6.540  0.9517  0.1446  0.2059
 9078TIP3   OH251428   6.369   1.681   8.787 -0.0687 -0.3417  0.9587
 9078TIP3    H151429   6.464   1.681   8.777 -0.0227  0.5929  1.2338
 9078TIP3    H251430   6.352   1.748   8.854 -0.8858 -0.8791  1.3046
 9079TIP3   OH251431   2.888   0.112   8.965 -0.0459  0.3881 -0.0994
 9079TIP3    H151432   2.919   0.164   8.890 -1.2908  2.0736  0.4790
 9079TIP3    H251433   2.918   0.160   9.042 -0.1296 -0.4676  0.4793
 9080TIP3   OH251434   1.098   5.907   8.050 -0.1903 -0.0712 -0.4801
 9080TIP3    H151435   1.102   5.868   8.138 -0.7448 -2.8136 -1.5611
 9080TIP3    H251436   1.013   5.880   8.016  0.3805  0.1736 -2.1896
 9081TIP3   OH251437   0.438   2.097   8.292  0.2753 -0.1881 -0.2720
 9081TIP3    H151438   0.504   2.163   8.313  2.2732 -2.0176 -0.4665
 9081TIP3    H251439   0.447   2.082   8.198 -0.2890 -0.6090 -0.2673
 9082TIP3   OH251440   3.877   2.275   8.858  0.0694  0.4718 -0.2008
 9082TIP3    H151441   3.966   2.242   8.869  0.4296  1.6988  0.7244
 9082TIP3    H251442   3.827   2.199   8.829  1.2140 -0.4754  0.2291
 9083TIP3   OH251443   6.151   6.742   8.579  0.1090  0.2827 -0.1183
 9083TIP3    H151444   6.080   6.731   8.515 -0.3895  0.2618  0.4289
 9083TIP3    H251445   6.151   6.835   8.598  1.1336  0.5143 -1.1253
 9084TIP3   OH251446   5.591   4.239  10.364 -0.2140  0.4992  0.0240
 9084TIP3    H151447   5.626   4.321  10.328  0.9079 -0.6813 -1.7392
 9084TIP3    H251448   5.652   4.172  10.333 -0.5341 -0.9249  2.2467
 9085TIP3   OH251449   0.460   4.777   9.641  0.1076  0.1809  0.0815
 9085TIP3    H151450   0.419   4.861   9.662  0.1433  0.6630 -1.5881
 9085TIP3    H251451   0.542   4.802   9.597 -0.8386 -0.6300 -2.3160
 9086TIP3   OH251452   5.100   0.050   8.318  0.4305 -0.2642 -0.1017
 9086TIP3    H151453   5.045   0.003   8.381 -1.3879  0.7784 -0.8374
 9086TIP3    H251454   5.117  -0.014   8.249 -0.8854 -0.2814 -0.4355
 9087TIP3   OH251455   3.575   3.646   7.552  0.3513 -0.2758  0.1649
 9087TIP3    H151456   3.599   3.558   7.523  2.4384 -0.5576  2.4046
 9087TIP3    H251457   3.599   3.649   7.644 -1.8265  1.9416  0.7796
 9088TIP3   OH251458   6.646   1.764   8.740 -0.4667  0.0514  0.2415
 9088TIP3    H151459   6.657   1.679   8.696  0.6364  0.3411 -0.0740
 9088TIP3    H251460   6.705   1.759   8.815 -0.2308  0.6255  0.0940
 9089TIP3   OH251461   3.740   5.775   9.382 -0.3847  0.2276  0.0103
 9089TIP3    H151462   3.707   5.838   9.318  1.1144  2.0881  0.9623
 9089TIP3    H251463   3.756   5.695   9.331  0.7352  1.6266 -1.9843
 9090TIP3   OH251464   5.434   0.588   7.402  0.0506 -0.3101 -0.2831
 9090TIP3    H151465   5.496   0.601   7.330  0.7377 -3.1425 -0.3075
 9090TIP3    H251466   5.486   0.604   7.481  0.0504  0.0556 -0.3552
 9091TIP3   OH251467   5.961   5.304   7.470  0.2965 -0.3570  0.3410
 9091TIP3    H151468   6.017   5.274   7.399 -1.3424  0.4917 -1.4071
 9091TIP3    H251469   5.978   5.398   7.477  0.0202 -0.3251  0.6638
 9092TIP3   OH251470   2.761   2.991   7.928 -1.1267  0.0428 -0.1344
 9092TIP3    H151471   2.672   3.025   7.931 -1.4353 -0.7642  0.2599
 9092TIP3    H251472   2.756   2.907   7.973 -0.2220 -0.1423 -0.3548
 9093TIP3   OH251473   2.749   0.962   8.633 -0.0471 -0.6480 -0.3363
 9093TIP3    H151474   2.745   0.956   8.538 -0.2250  0.2751 -0.3996
 9093TIP3    H251475   2.783   1.050   8.650 -2.6269  0.3045  0.4425
 9094TIP3   OH251476   0.023   1.614   7.211  0.3736 -0.2559  0.0808
 9094TIP3    H151477  -0.073   1.620   7.206  0.4407  0.4071 -0.5270
 9094TIP3    H251478   0.047   1.675   7.280  0.2939 -1.2093  0.9858
 9095TIP3   OH251479   4.945   5.202   8.600 -0.3301  0.5046  0.3804
 9095TIP3    H151480   4.935   5.290   8.562  0.7297  1.9204  3.0582
 9095TIP3    H251481   5.027   5.208   8.650  0.4151 -2.4412 -0.3390
 9096TIP3   OH251482   0.260   6.635   6.683  0.0830  0.3637 -0.3145
 9096TIP3    H151483   0.186   6.687   6.651 -1.2515 -1.3291 -0.1104
 9096TIP3    H251484   0.337   6.689   6.664 -1.1098  1.7490 -1.4503
 9097TIP3   OH251485   3.289   5.273   8.758 -0.1619 -0.3938 -0.3745
 9097TIP3    H151486   3.296   5.303   8.849 -1.7806 -3.9650  1.1659
 9097TIP3    H251487   3.195   5.279   8.739  0.0419 -0.5485 -1.4620
 9098TIP3   OH251488   1.925   1.505   9.273  0.5715 -0.7107 -0.1892
 9098TIP3    H151489   2.011   1.497   9.232 -0.2385 -1.0717 -1.9135
 9098TIP3    H251490   1.934   1.576   9.336  1.4418  1.0995 -2.2445
 9099TIP3   OH251491   2.548   2.692  10.322 -0.0955  0.1264 -0.5430
 9099TIP3    H151492   2.566   2.655  10.235  2.2679 -0.7316  0.2238
 9099TIP3    H251493   2.531   2.784  10.306 -0.5552 -0.1734 -1.9834
 9100TIP3   OH251494   3.923   3.030   9.595  0.0454  0.0345 -0.7166
 9100TIP3    H151495   4.000   3.066   9.551 -0.0417 -1.7554 -2.4541
 9100TIP3    H251496   3.895   2.958   9.539 -1.6275 -0.7225  1.0003
 9101TIP3   OH251497   3.721   5.602   8.900 -0.0928  0.0062 -0.3044
 9101TIP3    H151498   3.812   5.630   8.906  0.2424 -1.1224  0.1117
 9101TIP3    H251499   3.671   5.673   8.941  0.5620  0.7930 -0.8551
 9102TIP3   OH251500   3.831   1.321   7.761  0.1252 -0.2506  0.2530
 9102TIP3    H151501   3.840   1.261   7.687  1.1006  0.0703  0.1006
 9102TIP3    H251502   3.738   1.319   7.781 -0.0425 -0.9085 -0.5077
 9103TIP3   OH251503   2.672   6.078   8.233  0.4690  0.4929 -0.2518
 9103TIP3    H151504   2.698   6.077   8.141 -0.2541  1.9007 -0.5035
 9103TIP3    H251505   2.709   5.997   8.269  1.9255  0.5666 -1.4486
 9104TIP3   OH251506   0.406   1.206   7.304 -0.4099  0.0219  0.3442
 9104TIP3    H151507   0.461   1.266   7.254 -1.0248  1.8474  1.7122
 9104TIP3    H251508   0.466   1.141   7.339  0.2771 -0.2379 -1.2414
 9105TIP3   OH251509   2.555   5.453   7.590  0.2327  0.1660 -0.2398
 9105TIP3    H151510   2.589   5.403   7.664 -0.2695 -0.3820 -0.3730
 9105TIP3    H251511   2.463   5.428   7.584  0.0591  0.8514 -0.5239
 9106TIP3   OH251512   5.904   3.918   8.094 -0.3081 -0.2668  0.4941
 9106TIP3    H151513   5.852   3.910   8.174 -0.3555 -0.8381  0.4099
 9106TIP3    H251514   5.840   3.942   8.026 -0.1646  0.9129  0.7476
 9107TIP3   OH251515   2.690   4.445   8.822 -0.1773  0.7320  0.4522
 9107TIP3    H151516   2.644   4.419   8.902  1.5570  1.4110  1.7217
 9107TIP3    H251517   2.780   4.417   8.835 -0.2878 -1.4997 -2.4073
 9108TIP3   OH251518   1.036   1.946   7.984 -0.1616  0.0362  0.3594
 9108TIP3    H151519   1.086   2.017   7.945  0.4165  0.9322  2.5904
 9108TIP3    H251520   0.946   1.962   7.956  0.1098  1.0710  0.0485
 9109TIP3   OH251521   6.308   5.742   9.232 -0.5376 -0.2788  0.0412
 9109TIP3    H151522   6.280   5.710   9.318 -1.2992 -0.1994 -0.1701
 9109TIP3    H251523   6.386   5.795   9.250 -1.1626  0.4216  0.7908
 9110TIP3   OH251524   3.188   0.347   8.054 -0.4618 -0.4361  0.3581
 9110TIP3    H151525   3.166   0.367   8.144 -0.4916 -1.3426  0.5663
 9110TIP3    H251526   3.108   0.364   8.004 -0.8759 -1.2582  0.7214
 9111TIP3   OH251527   4.572   3.213   7.915  0.0170 -0.5399 -0.6955
 9111TIP3    H151528   4.639   3.176   7.972  2.1246  2.0749 -1.2929
 9111TIP3    H251529   4.607   3.204   7.827 -1.2415 -0.7014 -1.2006
 9112TIP3   OH251530   3.406   1.185   6.865 -0.0868 -0.4896 -0.1709
 9112TIP3    H151531   3.365   1.117   6.812  0.7205 -2.2505  1.3620
 9112TIP3    H251532   3.497   1.157   6.874  0.0194  0.2326  1.3429
 9113TIP3   OH251533   0.027   3.189   6.672 -0.3682 -0.2922 -0.3598
 9113TIP3    H151534   0.099   3.228   6.622  0.7835 -0.1839  1.2737
 9113TIP3    H251535  -0.026   3.143   6.607 -0.6363  2.2458 -2.0749
 9114TIP3   OH251536   5.016   4.036  10.936 -0.8945 -0.1248  0.4495
 9114TIP3    H151537   5.027   4.090  10.858  0.5779 -1.9639 -0.6921
 9114TIP3    H251538   5.015   4.099  11.009  3.4940  1.3979 -0.5408
 9115TIP3   OH251539   2.924   2.470   9.483  0.0411  1.0009 -0.2859
 9115TIP3    H151540   2.914   2.425   9.398  0.3954  0.6238 -0.1289
 9115TIP3    H251541   2.964   2.405   9.540 -2.3248  0.4305  0.8624
 9116TIP3   OH251542   4.872   1.264   8.800  0.3367  0.2238  0.1524
 9116TIP3    H151543   4.873   1.360   8.806 -0.5338  0.2196  0.5235
 9116TIP3    H251544   4.852   1.246   8.708  2.6461  0.3662 -0.4326
 9117TIP3   OH251545   5.497   0.371   7.693  0.6144 -0.0296  0.2260
 9117TIP3    H151546   5.543   0.437   7.642  0.2005 -0.4825 -0.7724
 9117TIP3    H251547   5.534   0.288   7.663 -2.0617 -0.5618 -2.0370
 9118TIP3   OH251548   2.146   3.803   7.070  0.2107  0.3925  0.4639
 9118TIP3    H151549   2.204   3.800   6.994  1.6897  0.3793  1.5739
 9118TIP3    H251550   2.105   3.716   7.071 -0.7617  0.7927 -0.9939
 9119TIP3   OH251551   5.708   4.585   7.388  0.4137 -0.4878  0.1219
 9119TIP3    H151552   5.632   4.641   7.405 -0.7443 -1.5150 -1.3073
 9119TIP3    H251553   5.675   4.519   7.327  2.3320 -1.3234 -0.0856
 9120TIP3   OH251554   4.538   1.562   7.700 -0.1482 -0.3474 -0.3742
 9120TIP3    H151555   4.498   1.496   7.643 -3.0545  0.0420  1.0456
 9120TIP3    H251556   4.494   1.644   7.677  1.2076  0.5239  0.0027
 9121TIP3   OH251557   1.276   5.586   8.947 -0.5018  0.5628  0.5007
 9121TIP3    H151558   1.240   5.509   8.989  1.2619 -1.0018 -0.6989
 9121TIP3    H251559   1.242   5.660   8.998 -0.4637 -1.0871  3.0747
 9122TIP3   OH251560   6.274   2.650   7.926 -0.5864  0.5740 -0.4132
 9122TIP3    H151561   6.204   2.708   7.895 -2.0817 -0.7483  0.3732
 9122TIP3    H251562   6.250   2.564   7.894 -1.1547 -0.5178  2.5937
 9123TIP3   OH251563   3.804   5.170   9.312 -0.0134 -0.0454 -0.1887
 9123TIP3    H151564   3.871   5.199   9.373 -0.3557 -1.3649  0.8500
 9123TIP3    H251565   3.764   5.094   9.354 -0.0182 -1.2406 -2.2110
 9124TIP3   OH251566   6.604   1.897   8.213  0.0984 -0.1110  0.2548
 9124TIP3    H151567   6.517   1.856   8.214 -0.6443  1.3816  1.6826
 9124TIP3    H251568   6.612   1.933   8.124 -1.9701  2.0521  0.8313
 9125TIP3   OH251569   6.459   3.223   7.826 -0.7399 -0.5535  0.0420
 9125TIP3    H151570   6.446   3.157   7.758  0.5590  0.1095 -0.8756
 9125TIP3    H251571   6.541   3.198   7.869 -0.5746  0.0868  0.1161
 9126TIP3   OH251572   5.008   5.193   7.300 -0.2910 -0.1000  0.4465
 9126TIP3    H151573   5.041   5.123   7.243 -0.4083  1.3119 -1.4511
 9126TIP3    H251574   5.077   5.205   7.366  0.4498 -0.9121 -0.1590
 9127TIP3   OH251575   3.386   5.474   8.333  0.7082  0.3818 -0.7839
 9127TIP3    H151576   3.318   5.411   8.309 -0.3790  1.3331 -0.2716
 9127TIP3    H251577   3.430   5.434   8.408 -2.1024  1.5966  1.6978
 9128TIP3   OH251578   2.817   1.608   7.970  0.4869  0.1366 -0.3114
 9128TIP3    H151579   2.822   1.618   8.065  0.4523  2.3592 -0.4977
 9128TIP3    H251580   2.904   1.577   7.945  0.4066 -0.7578  0.4489
 9129TIP3   OH251581   4.495   5.835   9.681 -0.2274 -0.1446  0.0268
 9129TIP3    H151582   4.439   5.912   9.672  0.3045  0.4475  1.4705
 9129TIP3    H251583   4.465   5.792   9.761  1.1353 -0.0099  0.6312
 9130TIP3   OH251584   5.558   1.184   7.062 -0.4396 -0.0742 -0.3541
 9130TIP3    H151585   5.528   1.248   7.127 -0.1394 -1.7687  1.5848
 9130TIP3    H251586   5.479   1.139   7.034 -0.4555 -0.0332 -0.3758
 9131TIP3   OH251587   6.268   3.787   7.289 -0.4171  0.0649 -0.4784
 9131TIP3    H151588   6.210   3.802   7.215 -1.0197  0.3464  0.0389
 9131TIP3    H251589   6.291   3.874   7.320  0.2013 -0.0463 -0.6101
 9132TIP3   OH251590   6.414   3.651   6.867 -0.6050 -0.1343  0.4099
 9132TIP3    H151591   6.441   3.739   6.893 -0.4966  0.5180 -1.7308
 9132TIP3    H251592   6.495   3.609   6.839 -0.7994 -0.5818  0.5213
 9133TIP3   OH251593   1.011   2.840   7.063  0.1467 -0.2275  0.5661
 9133TIP3    H151594   0.945   2.868   7.125 -1.0510  1.2198 -1.2610
 9133TIP3    H251595   1.094   2.875   7.097 -0.4206  0.1700  1.5478
 9134TIP3   OH251596   0.599   2.755   6.812 -0.0761  0.0490  0.3333
 9134TIP3    H151597   0.646   2.703   6.747  0.9614  0.7529  0.4933
 9134TIP3    H251598   0.636   2.726   6.896 -1.3891 -0.8427  0.6341
 9135TIP3   OH251599   1.368   5.476   9.205  0.0069  0.6729 -0.6697
 9135TIP3    H151600   1.353   5.556   9.256  0.4410 -0.4407  1.3043
 9135TIP3    H251601   1.462   5.472   9.194 -0.0621  0.7441 -1.3032
 9136TIP3   OH251602   4.787   1.136   6.635 -0.4908 -0.1288 -0.1560
 9136TIP3    H151603   4.705   1.087   6.634 -0.3970 -0.2915 -1.4300
 9136TIP3    H251604   4.761   1.224   6.663 -1.0638 -0.2448 -0.2966
 9137TIP3   OH251605   0.678   4.689   9.861 -0.0183 -0.2214  0.2420
 9137TIP3    H151606   0.634   4.627   9.803 -0.3191 -0.6986  0.9654
 9137TIP3    H251607   0.621   4.695   9.938  0.8124 -0.2849  0.8779
 9138TIP3   OH251608   1.466   3.937   9.206 -0.4928 -0.0637 -0.7487
 9138TIP3    H151609   1.399   3.906   9.267 -0.0280  0.6890  0.1853
 9138TIP3    H251610   1.431   4.018   9.170 -0.3207  0.0495 -0.6647
 9139TIP3   OH251611   3.464   6.387   7.886 -0.3530 -0.3658  0.1140
 9139TIP3    H151612   3.391   6.344   7.840  0.1442 -0.7635 -0.3108
 9139TIP3    H251613   3.503   6.318   7.939 -1.2632  0.2118  1.6142
 9140TIP3   OH251614   0.783   2.692   6.622  0.0416  0.1675  0.3172
 9140TIP3    H151615   0.830   2.702   6.540 -0.9384  3.5558  0.0067
 9140TIP3    H251616   0.848   2.714   6.690 -0.4488  2.9381  0.0046
 9141TIP3   OH251617   6.300   3.635  10.057 -0.3153 -0.3079  0.7399
 9141TIP3    H151618   6.301   3.706  10.121 -1.0755  1.1892 -0.8198
 9141TIP3    H251619   6.390   3.631  10.024 -0.7879  1.9345 -1.1400
 9142TIP3   OH251620   5.935   0.425   7.127 -0.2244  0.0920  0.1305
 9142TIP3    H151621   6.019   0.380   7.121 -1.1680 -1.7293 -0.0166
 9142TIP3    H251622   5.875   0.372   7.075 -1.6300  0.9453  0.8162
 9143TIP3   OH251623   0.173   4.623   9.280  0.0650 -0.5359 -0.5999
 9143TIP3    H151624   0.265   4.645   9.263  0.4308 -1.1766  0.4640
 9143TIP3    H251625   0.176   4.536   9.319 -1.1196 -1.1544 -1.8059
 9144TIP3   OH251626   5.430   5.982   8.280  0.0333 -0.0563  0.0825
 9144TIP3    H151627   5.462   5.909   8.226  0.6226 -0.2304  0.6409
 9144TIP3    H251628   5.507   6.039   8.290 -0.6486  1.1198 -1.0848
 9145TIP3   OH251629   3.975   2.118   6.778  0.0224  0.2964  0.0565
 9145TIP3    H151630   4.058   2.071   6.791  0.6354  1.7033  1.4954
 9145TIP3    H251631   3.927   2.105   6.859 -0.9844 -0.0936 -0.5859
 9146TIP3   OH251632   5.904   1.423   6.664 -0.2576  0.3087  0.4087
 9146TIP3    H151633   5.840   1.353   6.657 -0.5029  0.5093  0.6070
 9146TIP3    H251634   5.987   1.383   6.640 -0.1950 -0.3418  1.6554
 9147TIP3   OH251635   3.123   1.868   6.971 -0.1128 -0.1093 -0.1693
 9147TIP3    H151636   3.123   1.886   7.065 -1.3432 -1.7838  0.1927
 9147TIP3    H251637   3.030   1.872   6.946  0.3276  2.2964 -1.7670
 9148TIP3   OH251638   2.412   6.565   6.243  0.2668 -0.2607  0.2584
 9148TIP3    H151639   2.369   6.635   6.292 -2.1394 -1.1400 -0.4422
 9148TIP3    H251640   2.496   6.603   6.216 -0.1058  1.6343  1.5503
 9149TIP3   OH251641   5.347   1.606   9.460 -0.8632  0.4424 -0.0928
 9149TIP3    H151642   5.294   1.596   9.539 -0.0945  1.6501  0.5948
 9149TIP3    H251643   5.435   1.624   9.492 -0.0254 -1.3025 -1.2127
 9150TIP3   OH251644   5.705   5.226   7.400 -0.2874 -0.2599 -0.3518
 9150TIP3    H151645   5.725   5.241   7.308 -0.4184  1.6654 -0.1017
 9150TIP3    H251646   5.783   5.254   7.447 -1.2548  1.5515  0.2629
 9151TIP3   OH251647   3.300   3.420   8.227  0.3076 -0.6271 -0.4374
 9151TIP3    H151648   3.242   3.494   8.207  0.5403 -0.3794 -0.1989
 9151TIP3    H251649   3.295   3.365   8.149  0.9034  0.1422 -1.0322
 9152TIP3   OH251650   4.937   4.546   8.102 -0.2792  0.0295  0.3132
 9152TIP3    H151651   4.956   4.638   8.085 -1.1354 -0.1108 -1.6215
 9152TIP3    H251652   5.015   4.513   8.146 -0.0964  1.7407  1.3703
 9153TIP3   OH251653   3.380   6.599   7.003 -0.2499  0.0150  0.7600
 9153TIP3    H151654   3.449   6.551   6.958  1.0445  0.8775  1.7575
 9153TIP3    H251655   3.301   6.547   6.989  0.7758 -1.4997  0.4105
 9154TIP3   OH251656   3.464   5.374   7.107 -0.1896  0.0995 -0.4510
 9154TIP3    H151657   3.487   5.422   7.027  0.7226  1.2478  0.4623
 9154TIP3    H251658   3.511   5.420   7.176 -0.8158 -0.9925  0.7279
 9155TIP3   OH251659   4.702   2.679   8.516 -0.0061 -0.0638 -0.4261
 9155TIP3    H151660   4.699   2.762   8.563  1.1199 -0.7311  0.9021
 9155TIP3    H251661   4.792   2.673   8.484 -0.1390 -0.6667 -0.7054
 9156TIP3   OH251662   6.409   3.592   9.275 -0.1867  0.1782 -0.1671
 9156TIP3    H151663   6.405   3.618   9.183  0.5220  1.2506  0.0824
 9156TIP3    H251664   6.346   3.521   9.282  0.6715 -0.8143 -1.7713
 9157TIP3   OH251665   3.231   3.508   6.426 -1.0617 -0.1072  0.1535
 9157TIP3    H151666   3.198   3.560   6.500 -0.4347  0.6741 -0.1011
 9157TIP3    H251667   3.182   3.540   6.350 -2.0963 -1.2859  0.2888
 9158TIP3   OH251668   0.936   2.477   8.204 -0.0008 -0.3359  0.1702
 9158TIP3    H151669   1.030   2.477   8.217 -0.1347  0.5246  1.3775
 9158TIP3    H251670   0.916   2.392   8.165  1.2666 -0.5122 -0.1067
 9159TIP3   OH251671   5.325   2.010   7.003  0.7947 -0.2721  0.4278
 9159TIP3    H151672   5.374   2.092   7.007  0.2260  0.0851  0.1921
 9159TIP3    H251673   5.250   2.024   7.061  1.4677 -1.1655  1.5631
 9160TIP3   OH251674   5.849   1.019   7.250 -0.6298 -0.2123  0.5817
 9160TIP3    H151675   5.902   1.084   7.296 -1.4214  0.1689  0.9663
 9160TIP3    H251676   5.766   1.063   7.232 -0.6170 -0.6062 -0.5414
 9161TIP3   OH251677   2.079   1.690   6.933 -0.4318  0.0576 -0.2357
 9161TIP3    H151678   2.088   1.785   6.943  0.5959  0.1914 -2.0119
 9161TIP3    H251679   2.001   1.668   6.984 -0.7308  1.8615  0.1499
 9162TIP3   OH251680   4.678   6.027   8.897 -0.5530 -0.1127 -0.4416
 9162TIP3    H151681   4.652   5.951   8.949 -2.7932  1.4644  0.9497
 9162TIP3    H251682   4.614   6.031   8.826 -1.1609  1.0862  0.1577
 9163TIP3   OH251683   5.505   6.583   9.034 -0.7549  0.1604  0.0924
 9163TIP3    H151684   5.476   6.638   8.961 -0.7190  0.8301  0.5840
 9163TIP3    H251685   5.598   6.569   9.017 -1.0256 -0.8263 -0.7222
 9164TIP3   OH251686   3.886   3.233   9.184  0.1298 -0.5266  0.9428
 9164TIP3    H151687   3.802   3.213   9.143  0.8562  0.5636 -1.1967
 9164TIP3    H251688   3.925   3.147   9.200  0.4835 -1.0705 -2.2006
 9165TIP3   OH251689   1.437   2.437   8.310 -0.1597 -0.1243 -1.0530
 9165TIP3    H151690   1.481   2.395   8.236 -0.9731 -0.2438 -1.4738
 9165TIP3    H251691   1.412   2.365   8.367 -0.0562 -0.0764 -0.9462
 9166TIP3   OH251692   2.806   6.526   6.968  0.5018  0.0805 -0.9300
 9166TIP3    H151693   2.762   6.550   6.886  0.7075  1.3455 -0.6920
 9166TIP3    H251694   2.894   6.562   6.958  0.2059  1.1987  0.2737
 9167TIP3   OH251695   0.706   5.216   9.295 -0.4559 -0.3124  0.0731
 9167TIP3    H151696   0.702   5.281   9.225 -1.1210 -1.8034 -1.3281
 9167TIP3    H251697   0.777   5.247   9.352 -1.8301  2.4988  0.4091
 9168TIP3   OH251698   2.422   5.650   6.499  0.0005  0.3807 -0.0005
 9168TIP3    H151699   2.357   5.595   6.455 -0.4384 -0.2786  1.4173
 9168TIP3    H251700   2.405   5.738   6.466  0.2969 -0.2040 -1.8229
 9169TIP3   OH251701   0.539   2.553   8.437  0.0057  0.2782 -0.1773
 9169TIP3    H151702   0.633   2.533   8.435 -0.0613 -0.0070 -0.9146
 9169TIP3    H251703   0.530   2.630   8.382  0.0391  1.4542  1.3758
 9170TIP3   OH251704   0.990   1.393   9.546  0.2690 -0.2987 -0.3346
 9170TIP3    H151705   0.915   1.384   9.605 -1.0489  3.0352 -1.2808
 9170TIP3    H251706   1.047   1.319   9.569 -2.1169 -1.5737  2.1239
 9171TIP3   OH251707   2.650   5.654   8.461 -0.4919 -0.1354  0.1334
 9171TIP3    H151708   2.577   5.594   8.444  0.1966 -0.5540 -1.5158
 9171TIP3    H251709   2.675   5.636   8.551 -1.1496 -1.3983  0.0842
 9172TIP3   OH251710   4.659   1.970   6.766 -0.2494 -0.3591 -1.1188
 9172TIP3    H151711   4.578   2.020   6.762  0.3759  0.9126  0.9215
 9172TIP3    H251712   4.728   2.036   6.777  0.6641 -1.5633  1.0561
 9173TIP3   OH251713   5.933   4.924   7.894 -0.4702 -0.4220  0.1875
 9173TIP3    H151714   5.870   4.952   7.827 -0.6614  0.4346  0.7113
 9173TIP3    H251715   5.943   4.830   7.879 -2.6149 -0.7809  0.7059
 9174TIP3   OH251716   1.140   1.494   9.154 -0.2560  0.3261  0.0638
 9174TIP3    H151717   1.130   1.589   9.155 -0.3878  0.3124  1.2020
 9174TIP3    H251718   1.131   1.468   9.246 -3.3886 -1.1224 -0.5216
 9175TIP3   OH251719   5.379   1.156   8.534 -0.3784  0.0894 -0.1792
 9175TIP3    H151720   5.313   1.159   8.603  0.8790  2.4796  1.0015
 9175TIP3    H251721   5.458   1.194   8.573  1.0045 -0.4505 -2.2854
 9176TIP3   OH251722   3.073   3.032   6.686 -0.0821  0.3783 -0.3120
 9176TIP3    H151723   3.136   3.058   6.619 -0.5602  0.5557 -0.7029
 9176TIP3    H251724   3.074   2.936   6.684  0.2596  0.3799 -0.2310
 9177TIP3   OH251725   4.016   6.372   8.638 -0.2722  0.0152 -0.2397
 9177TIP3    H151726   3.962   6.450   8.626  2.0616  1.8304  0.3972
 9177TIP3    H251727   4.100   6.394   8.598  0.5608 -2.0693  0.2287
 9178TIP3   OH251728   6.716   5.022   7.223  0.1193  0.0208 -0.1991
 9178TIP3    H151729   6.756   4.936   7.234 -0.2948 -0.0154  1.1414
 9178TIP3    H251730   6.704   5.031   7.128  0.2035 -1.3807 -0.3557
 9179TIP3   OH251731   3.660   3.765   7.285  0.1602  0.0405 -0.5912
 9179TIP3    H151732   3.705   3.690   7.247 -0.0033 -1.0991  1.3010
 9179TIP3    H251733   3.624   3.731   7.368 -0.4511  2.0487  0.0146
 9180TIP3   OH251734   3.550   5.754   7.873  0.5109  0.2127 -0.1631
 9180TIP3    H151735   3.638   5.754   7.836  0.7441 -0.5711  0.3571
 9180TIP3    H251736   3.556   5.697   7.949 -0.6352 -0.4987 -0.5767
 9181TIP3   OH251737   1.702   6.271   9.129 -0.1008 -0.0091 -0.4202
 9181TIP3    H151738   1.713   6.365   9.112 -4.2337  1.1230  1.8344
 9181TIP3    H251739   1.762   6.253   9.201  0.9439  0.7696 -1.0533
 9182TIP3   OH251740   6.004   1.428   8.196 -0.0220 -0.0569  0.5893
 9182TIP3    H151741   5.953   1.413   8.117  0.6668  2.1579 -0.3739
 9182TIP3    H251742   6.087   1.385   8.180  0.1686  0.5094  0.0026
 9183TIP3   OH251743   2.235   0.829   8.146 -0.4169  0.1228  0.3159
 9183TIP3    H151744   2.210   0.799   8.059  0.1711  0.1681  0.1273
 9183TIP3    H251745   2.201   0.918   8.152  0.3739  0.4641 -0.2306
 9184TIP3   OH251746   2.416   6.486   6.945  0.3823 -0.3614  0.4402
 9184TIP3    H151747   2.437   6.406   6.896  0.3522 -1.0607  1.5526
 9184TIP3    H251748   2.366   6.456   7.020 -1.0670  0.8858  0.0262
 9185TIP3   OH251749   3.119   2.788   8.957 -0.1293  0.1584 -0.0213
 9185TIP3    H151750   3.049   2.722   8.958 -0.9287  0.9042 -2.0772
 9185TIP3    H251751   3.096   2.849   9.027 -1.2549  0.0875 -0.3160
 9186TIP3   OH251752   1.622   6.494   7.028  0.4642 -0.3888 -0.4472
 9186TIP3    H151753   1.598   6.495   6.935 -0.6659 -0.6537 -0.1669
 9186TIP3    H251754   1.562   6.431   7.067  1.7524 -1.2308  0.2528
 9187TIP3   OH251755   0.982   0.341   7.948 -0.5779  0.2678  0.2408
 9187TIP3    H151756   1.058   0.299   7.908 -0.0698  1.2006  0.1989
 9187TIP3    H251757   0.910   0.326   7.887 -0.2955 -0.1296  0.0091
 9188TIP3   OH251758   1.137   5.657   7.090  0.5028 -0.2119 -0.0291
 9188TIP3    H151759   1.091   5.589   7.041 -1.0563  0.0123  1.0680
 9188TIP3    H251760   1.194   5.698   7.025 -1.3888 -0.0036 -1.6499
 9189TIP3   OH251761   0.311   1.499   8.948 -0.1676 -0.1416 -0.1702
 9189TIP3    H151762   0.280   1.478   8.859  1.0265  0.5969 -0.7792
 9189TIP3    H251763   0.342   1.589   8.942 -1.0007  0.2704  1.2697
 9190TIP3   OH251764   3.768   0.673   7.864  0.1674  0.0732  0.3760
 9190TIP3    H151765   3.836   0.677   7.798 -0.4599 -1.7745 -0.4535
 9190TIP3    H251766   3.810   0.637   7.942  0.1951 -0.8119 -0.0503
 9191TIP3   OH251767   6.243   5.197   9.413  0.3763 -0.0713 -0.1957
 9191TIP3    H151768   6.174   5.258   9.440 -0.5193  0.1499 -2.7480
 9191TIP3    H251769   6.317   5.253   9.389  0.4741 -0.1583 -0.1012
 9192TIP3   OH251770   4.581   0.467   7.432 -0.2349  0.3722  0.2203
 9192TIP3    H151771   4.630   0.519   7.370 -0.0046 -0.3682 -0.2334
 9192TIP3    H251772   4.490   0.495   7.421 -0.1141  0.6761 -0.0066
 9193TIP3   OH251773   5.206   6.712   9.567 -0.4001  0.3837 -0.7533
 9193TIP3    H151774   5.161   6.797   9.566 -0.2563  0.4601 -0.8778
 9193TIP3    H251775   5.138   6.649   9.590 -0.6298  0.4628 -1.2044
 9194TIP3   OH251776   5.548   1.015   8.343 -0.1164 -0.0410  0.1763
 9194TIP3    H151777   5.481   0.966   8.295 -0.3584 -0.1391  0.6050
 9194TIP3    H251778   5.498   1.078   8.396  0.2092  1.2400 -0.9586
 9195TIP3   OH251779   3.760   5.061   8.898 -0.4359  0.1660  0.2518
 9195TIP3    H151780   3.761   5.155   8.880 -0.7581  0.4491  1.6131
 9195TIP3    H251781   3.686   5.049   8.957 -1.3386 -1.1916 -1.0638
 9196TIP3   OH251782   3.483   4.913   8.365 -0.0738 -0.4546  0.2703
 9196TIP3    H151783   3.431   4.855   8.421  0.6478 -0.0559  1.3930
 9196TIP3    H251784   3.540   4.960   8.426  0.8305 -0.0942 -0.8220
 9197TIP3   OH251785   1.422   2.881   9.183  0.0442 -0.3364 -0.0208
 9197TIP3    H151786   1.403   2.973   9.201  0.3644 -0.7234  2.8153
 9197TIP3    H251787   1.336   2.839   9.177 -0.0966  0.0331 -0.6025
 9198TIP3   OH251788   2.255   6.257   7.723  0.3239  0.3724 -0.0050
 9198TIP3    H151789   2.282   6.338   7.679  1.7977 -0.9999 -1.7798
 9198TIP3    H251790   2.161   6.269   7.738  0.5221  2.4693 -0.0228
 9199TIP3   OH251791   2.781   2.814   8.332  0.1783  0.3971 -0.2650
 9199TIP3    H151792   2.876   2.819   8.323  0.2213  0.3905  0.1717
 9199TIP3    H251793   2.767   2.767   8.414 -0.2029 -0.3169 -0.7248
 9200TIP3   OH251794   1.714   2.251   6.503 -0.0220  0.0192 -0.2074
 9200TIP3    H151795   1.642   2.290   6.550 -0.0096  0.8804 -0.8807
 9200TIP3    H251796   1.676   2.173   6.461 -0.8150  0.9981 -1.3550
 9201TIP3   OH251797   2.640   4.508   8.477  0.0942 -0.9922 -0.0820
 9201TIP3    H151798   2.732   4.496   8.456  0.0520 -1.0953 -0.2049
 9201TIP3    H251799   2.596   4.518   8.393  0.1585  0.2891  0.0102
 9202TIP3   OH251800   2.662   2.369   8.026 -0.2411  0.1991  0.5945
 9202TIP3    H151801   2.652   2.274   8.036 -0.7051  0.1109 -0.5645
 9202TIP3    H251802   2.579   2.405   8.060 -0.9924  0.0264 -0.9628
 9203TIP3   OH251803   5.125   1.847   8.495  0.2736  0.4223 -0.0636
 9203TIP3    H151804   5.084   1.780   8.441  2.1814 -0.8425 -0.0456
 9203TIP3    H251805   5.211   1.861   8.456  0.5473  1.6667  0.9044
 9204TIP3   OH251806   1.927   0.993   6.955  0.2733  0.3614 -0.3714
 9204TIP3    H151807   2.019   1.017   6.972  0.2427  0.0641  0.2768
 9204TIP3    H251808   1.901   1.046   6.880  0.3412  2.0230  0.7209
 9205TIP3   OH251809   6.038   4.087   8.439 -0.5155  0.5003  0.5580
 9205TIP3    H151810   5.980   4.012   8.427 -0.8213  0.7014  0.7943
 9205TIP3    H251811   5.986   4.163   8.416  0.3522  0.5240 -1.5666
 9206TIP3   OH251812   0.286   4.978   9.732 -0.2281 -0.3131  0.2245
 9206TIP3    H151813   0.250   5.000   9.818 -2.0759 -0.5544 -0.4422
 9206TIP3    H251814   0.248   5.043   9.673  0.9859 -0.1749 -0.4376
 9207TIP3   OH251815   3.073   6.607  10.035 -0.3925 -0.6190  0.2000
 9207TIP3    H151816   3.141   6.644   9.979 -1.6139 -0.7520 -1.4529
 9207TIP3    H251817   3.063   6.670  10.105  0.9544 -0.2688  0.1057
 9208TIP3   OH251818   1.840   4.778   9.397 -0.4757 -0.1086 -0.5434
 9208TIP3    H151819   1.878   4.715   9.336  1.5348  0.6907 -0.2011
 9208TIP3    H251820   1.791   4.723   9.460 -0.2177 -1.1644 -1.2346
 9209TIP3   OH251821   6.313   4.951   8.218 -0.0690 -0.0471  0.4762
 9209TIP3    H151822   6.292   4.973   8.309  0.2238 -0.2021  0.5804
 9209TIP3    H251823   6.329   4.857   8.219 -0.8450 -0.1864  0.1175
 9210TIP3   OH251824   4.937   3.847   9.484  0.1158  0.3984 -0.7316
 9210TIP3    H151825   5.026   3.820   9.465  0.0567 -0.0267 -0.4282
 9210TIP3    H251826   4.946   3.926   9.537  0.3546 -0.3486  0.3955
 9211TIP3   OH251827   4.524   0.456   6.694 -0.3645  0.0681 -0.6665
 9211TIP3    H151828   4.479   0.375   6.668  0.0649 -0.5926  0.5312
 9211TIP3    H251829   4.556   0.437   6.783 -0.9781  1.8578 -0.0217
 9212TIP3   OH251830   2.124   4.290   9.872 -0.2249  0.1168 -0.0906
 9212TIP3    H151831   2.049   4.311   9.927 -0.5754 -2.3308  0.4526
 9212TIP3    H251832   2.113   4.344   9.794 -2.0211  0.4985  0.4033
 9213TIP3   OH251833   6.564   0.634   8.794 -0.7086  0.1131 -0.0305
 9213TIP3    H151834   6.482   0.672   8.765 -1.4840  0.0128  1.8983
 9213TIP3    H251835   6.540   0.578   8.868  1.4714  3.0515  3.1780
 9214TIP3   OH251836   2.075   1.202   9.214  0.3440  0.3115 -0.1025
 9214TIP3    H151837   2.093   1.231   9.303 -1.0483  0.8777  0.0245
 9214TIP3    H251838   2.129   1.258   9.159  2.1678 -0.8582  0.3925
 9215TIP3   OH251839   5.471   3.093   7.500  0.3560  0.1886  0.3907
 9215TIP3    H151840   5.517   3.043   7.433 -0.4972 -0.0416 -0.0424
 9215TIP3    H251841   5.536   3.156   7.532  1.3477 -0.9580  0.7092
 9216TIP3   OH251842   3.162   3.457   9.674  0.4101 -0.1980  0.3598
 9216TIP3    H151843   3.225   3.430   9.741 -0.1582 -1.0557  0.5673
 9216TIP3    H251844   3.098   3.386   9.671 -0.4188  0.5378 -0.0116
 9217TIP3   OH251845   0.586   1.808   8.254 -0.2150 -0.0026  0.3858
 9217TIP3    H151846   0.610   1.868   8.184  0.8344  0.9932  1.5421
 9217TIP3    H251847   0.635   1.728   8.235 -1.1186 -0.2963 -0.8141
 9218TIP3   OH251848   2.176   0.781   7.854  0.3692  0.4915 -0.1856
 9218TIP3    H151849   2.082   0.768   7.839  0.0440 -3.0893  3.4249
 9218TIP3    H251850   2.218   0.712   7.803  0.7639  0.1643  0.5776
 9219TIP3   OH251851   6.104   2.637   8.359  0.1646 -0.8227  0.3025
 9219TIP3    H151852   6.015   2.619   8.329 -0.1244 -0.9075  1.1752
 9219TIP3    H251853   6.103   2.729   8.385 -0.0263 -1.1309  1.4609
 9220TIP3   OH251854   2.129   3.340   9.789 -0.1343  0.1554  0.4627
 9220TIP3    H151855   2.045   3.381   9.808 -1.0725 -0.7825 -1.3906
 9220TIP3    H251856   2.193   3.411   9.800 -1.5949  1.9630 -1.6850
 9221TIP3   OH251857   1.499   3.331   8.352  0.2061 -0.3096  1.1180
 9221TIP3    H151858   1.554   3.394   8.399  2.1667 -0.7994 -0.3616
 9221TIP3    H251859   1.456   3.383   8.284 -0.0529 -0.1727  1.3837
 9222TIP3   OH251860   0.835   3.336   7.272 -0.1270 -0.4734  0.2155
 9222TIP3    H151861   0.832   3.289   7.356  1.4897  0.0399  0.6075
 9222TIP3    H251862   0.745   3.334   7.240 -0.6749 -1.1777  1.6916
 9223TIP3   OH251863   5.787   1.615   8.601 -0.3319  0.1461  0.2472
 9223TIP3    H151864   5.744   1.612   8.686 -0.0683 -0.2100  0.3683
 9223TIP3    H251865   5.813   1.707   8.590 -0.9565  0.3284  0.2519
 9224TIP3   OH251866   6.144   5.781   7.292 -0.5301  0.4960  0.7166
 9224TIP3    H151867   6.129   5.686   7.303 -0.3509  0.1156 -1.8253
 9224TIP3    H251868   6.170   5.811   7.379  1.5685 -2.2051  1.1452
 9225TIP3   OH251869   5.978   1.675   7.757  0.2314 -0.5422  0.7006
 9225TIP3    H151870   5.986   1.582   7.778  3.2250 -0.8642 -1.2269
 9225TIP3    H251871   6.068   1.707   7.757 -0.5806  1.9699 -0.2885
 9226TIP3   OH251872   4.368   3.165   9.395 -0.2679 -0.3720 -0.0486
 9226TIP3    H151873   4.336   3.207   9.315 -1.5137  1.6065  1.3969
 9226TIP3    H251874   4.463   3.173   9.389 -0.3711  0.4900 -0.9485
 9227TIP3   OH251875   3.951   3.189   8.206  0.5940  1.2600 -0.2173
 9227TIP3    H151876   4.002   3.111   8.181  0.2734  1.2045 -0.7272
 9227TIP3    H251877   3.970   3.252   8.136 -1.7349  0.4810 -1.6593
 9228TIP3   OH251878   6.502   5.807   9.964  0.3906 -0.3347  0.2596
 9228TIP3    H151879   6.453   5.828  10.043 -0.7056  1.3132 -0.8049
 9228TIP3    H251880   6.570   5.874   9.960  0.0781 -0.0633 -0.4983
 9229TIP3   OH251881   0.998   2.425   6.665  0.1881 -0.1367 -0.0853
 9229TIP3    H151882   1.063   2.493   6.684  1.6412 -1.2796 -0.7269
 9229TIP3    H251883   0.915   2.463   6.693  1.1481  1.2977  1.0046
 9230TIP3   OH251884   0.596   4.841   8.188 -0.4364 -0.2897  0.5185
 9230TIP3    H151885   0.546   4.851   8.269  0.4014 -2.4327  1.3640
 9230TIP3    H251886   0.681   4.807   8.216  0.0943 -0.4891 -1.2285
 9231TIP3   OH251887   0.752   1.229   7.855 -0.8707  0.1614 -0.0313
 9231TIP3    H151888   0.757   1.285   7.778 -1.7561 -0.8873 -0.8996
 9231TIP3    H251889   0.754   1.289   7.930  2.7844  1.0822 -0.6838
 9232TIP3   OH251890   1.809   5.830   9.892 -0.2036  0.1164 -0.0782
 9232TIP3    H151891   1.768   5.877   9.964 -0.2847 -0.8038  0.4951
 9232TIP3    H251892   1.852   5.897   9.840  1.2861  0.6388  1.7350
 9233TIP3   OH251893   0.348   4.247   7.906  0.7077 -0.0818 -0.4506
 9233TIP3    H151894   0.377   4.292   7.985  0.7395  0.6730 -0.8822
 9233TIP3    H251895   0.337   4.317   7.841 -1.9650 -0.3314 -0.3664
 9234TIP3   OH251896   3.307   5.968   8.489 -0.1258  0.2329 -0.3226
 9234TIP3    H151897   3.299   5.872   8.482 -0.1643  0.2536 -0.6043
 9234TIP3    H251898   3.217   5.998   8.504 -0.0231  0.1774  0.4027
 9235TIP3   OH251899   3.153   2.370   8.230 -0.0321  0.1566 -0.0899
 9235TIP3    H151900   3.066   2.349   8.196  0.4595  0.0574 -1.3564
 9235TIP3    H251901   3.177   2.452   8.186  0.8199 -0.2260 -0.3689
 9236TIP3   OH251902   4.602   4.645   8.003 -0.0084  0.0818 -0.8015
 9236TIP3    H151903   4.547   4.715   8.039 -0.4707 -0.8621  0.3782
 9236TIP3    H251904   4.676   4.691   7.963 -1.2606  1.3378 -1.7560
 9237TIP3   OH251905   1.849   3.750   9.661  0.2437  0.3148 -0.1521
 9237TIP3    H151906   1.860   3.753   9.756  1.2040  0.9253 -0.2668
 9237TIP3    H251907   1.800   3.830   9.641 -0.5116 -0.1376 -0.1036
 9238TIP3   OH251908   3.722   4.685   7.479 -0.0846 -0.2099  0.0461
 9238TIP3    H151909   3.629   4.661   7.475  0.0715 -0.6970 -0.8984
 9238TIP3    H251910   3.754   4.642   7.558  0.1520 -3.0752 -1.5144
 9239TIP3   OH251911   4.450   6.196   6.565 -0.0023  0.1481 -0.1580
 9239TIP3    H151912   4.500   6.258   6.619  0.6386  0.4662 -1.1045
 9239TIP3    H251913   4.428   6.244   6.486  1.5451 -1.1645 -1.4460
 9240TIP3   OH251914   3.605   3.346   7.777 -0.5769  0.1598  0.1331
 9240TIP3    H151915   3.600   3.263   7.730 -0.7648  0.3741 -0.2286
 9240TIP3    H251916   3.516   3.380   7.775 -0.6590  0.0060  0.9491
 9241TIP3   OH251917   4.872   1.297   7.409  0.1345  0.1392 -0.1787
 9241TIP3    H151918   4.839   1.208   7.420  0.3363 -0.0079 -0.7115
 9241TIP3    H251919   4.860   1.338   7.495  2.5795 -1.2429  0.9272
 9242TIP3   OH251920   0.660   4.554   6.944  0.2970 -0.0666  0.9007
 9242TIP3    H151921   0.735   4.535   6.888 -0.5378 -0.6960 -0.0407
 9242TIP3    H251922   0.626   4.638   6.911  0.2802 -0.0407  0.9838
 9243TIP3   OH251923   3.423   4.579   9.577  0.5476  0.1510 -0.3973
 9243TIP3    H151924   3.331   4.606   9.575  0.2999 -0.7116 -0.9867
 9243TIP3    H251925   3.426   4.510   9.643  0.8254  0.3552 -0.1957
 9244TIP3   OH251926   5.382   3.166   9.704 -0.3187 -0.1094 -0.4462
 9244TIP3    H151927   5.322   3.213   9.762 -0.9182  0.3944 -1.4414
 9244TIP3    H251928   5.432   3.108   9.762  1.1899  2.4566  1.0331
 9245TIP3   OH251929   2.334   1.332   8.996  0.2214  0.1465  0.6930
 9245TIP3    H151930   2.419   1.375   8.990 -0.6075  1.9800  1.3043
 9245TIP3    H251931   2.317   1.299   8.908  1.2327  0.4096  0.3829
 9246TIP3   OH251932   4.478   3.773   9.565 -0.2270  0.2003  0.1696
 9246TIP3    H151933   4.488   3.866   9.542  0.3144  0.1354  0.1146
 9246TIP3    H251934   4.547   3.758   9.630  0.6187 -0.4991 -0.8522
 9247TIP3   OH251935   1.239   5.765   8.690  0.3772  0.1355  0.2026
 9247TIP3    H151936   1.248   5.691   8.750  0.0737 -0.3302 -0.3165
 9247TIP3    H251937   1.182   5.732   8.620 -0.1663  1.0169  0.2177
 9248TIP3   OH251938   6.134   5.969   6.826 -0.4960  0.1763 -0.2773
 9248TIP3    H151939   6.219   5.991   6.862 -0.4194 -1.0341  0.3393
 9248TIP3    H251940   6.143   5.879   6.795 -0.8763  0.8136 -2.3989
 9249TIP3   OH251941   6.696   5.823   6.679  0.1400 -0.0430  0.8970
 9249TIP3    H151942   6.654   5.737   6.688  0.0406 -0.1107 -0.0848
 9249TIP3    H251943   6.626   5.881   6.650  0.7487 -0.2175 -1.0305
 9250TIP3   OH251944   0.894   3.011   6.343 -0.4933 -0.6895 -0.1406
 9250TIP3    H151945   0.988   3.028   6.340 -0.9168  2.1949  0.5083
 9250TIP3    H251946   0.866   3.008   6.252 -0.2381  1.7164 -0.3372
 9251TIP3   OH251947   1.666   5.596   9.507 -0.2731  0.3298  0.4034
 9251TIP3    H151948   1.648   5.504   9.526  1.4237  0.1019  1.0625
 9251TIP3    H251949   1.611   5.645   9.567  0.2330 -0.3064  1.4149
 9252TIP3   OH251950   3.961   2.463   9.759  0.1108 -0.3270  0.0427
 9252TIP3    H151951   4.030   2.421   9.809  0.2764 -0.2844 -0.1483
 9252TIP3    H251952   4.007   2.513   9.692 -0.1131 -2.9332 -2.2569
 9253TIP3   OH251953   1.707   3.141   6.451  0.1138  0.1850  0.0432
 9253TIP3    H151954   1.616   3.143   6.421 -0.1421 -1.6593  0.5637
 9253TIP3    H251955   1.700   3.127   6.546  0.9465  0.9966  0.2380
 9254TIP3   OH251956   4.215   5.779   9.360  0.8114  0.3853  0.6788
 9254TIP3    H151957   4.176   5.793   9.446 -1.9336 -0.7813 -0.2615
 9254TIP3    H251958   4.163   5.835   9.301  1.3936 -0.2378 -0.4623
 9255TIP3   OH251959   4.842   3.853   9.220  0.3563  0.0513  0.7203
 9255TIP3    H151960   4.882   3.846   9.307 -0.1864  1.8947  1.1810
 9255TIP3    H251961   4.756   3.893   9.238  0.0957  0.1240 -0.6281
 9256TIP3   OH251962   0.314   4.472   8.073  0.5287  0.1614 -0.3415
 9256TIP3    H151963   0.222   4.480   8.098  0.7108  4.7221 -0.2662
 9256TIP3    H251964   0.362   4.481   8.156  1.0163  1.0857 -0.7121
 9257TIP3   OH251965   0.096   1.602   9.382  0.0180 -0.0400 -0.3759
 9257TIP3    H151966   0.189   1.627   9.377  0.2895 -0.9900 -0.2739
 9257TIP3    H251967   0.070   1.591   9.290  0.0225  0.1367 -0.4008
 9258TIP3   OH251968   0.941   4.853   7.148 -0.3664 -0.0991 -0.1113
 9258TIP3    H151969   0.897   4.778   7.186  0.2723 -0.6525 -0.4485
 9258TIP3    H251970   0.944   4.918   7.219 -0.5488 -0.5470  0.3080
 9259TIP3   OH251971   5.142   0.683   6.610  0.1088 -0.0746  0.2232
 9259TIP3    H151972   5.169   0.604   6.562  1.0766  0.4341 -0.0888
 9259TIP3    H251973   5.046   0.678   6.611 -0.0094  0.1623 -2.2748
 9260TIP3   OH251974   0.246   4.097   9.354  0.8802 -0.5543  0.3412
 9260TIP3    H151975   0.250   4.119   9.261 -2.0274 -0.9838  0.0221
 9260TIP3    H251976   0.250   4.002   9.356 -2.0076 -0.7391  0.3277
 9261TIP3   OH251977   5.596   1.462   7.228  0.8668  0.0282  0.6589
 9261TIP3    H151978   5.504   1.441   7.211  1.2239 -0.4722 -0.7811
 9261TIP3    H251979   5.593   1.526   7.300 -0.6138  0.1675  0.5003
 9262TIP3   OH251980   5.115   1.751   9.569  0.2786 -0.0625 -0.6339
 9262TIP3    H151981   5.109   1.774   9.661  1.6913 -1.0460 -0.2514
 9262TIP3    H251982   5.028   1.717   9.547 -0.0586  0.1228  0.3536
 9263TIP3   OH251983   5.761   6.325   9.714  0.4758  0.4278  0.0653
 9263TIP3    H151984   5.775   6.387   9.785  0.5604 -1.0534  1.3991
 9263TIP3    H251985   5.849   6.305   9.681  0.5387  0.1704  0.3885
 9264TIP3   OH251986   1.639   2.025   6.371 -0.1517  0.2468 -0.1826
 9264TIP3    H151987   1.570   1.978   6.324  0.5569 -1.2951  0.2614
 9264TIP3    H251988   1.710   1.962   6.379  0.0485  0.6799  2.3056
 9265TIP3   OH251989   1.454   1.730   6.937 -0.1575  0.6488 -0.3213
 9265TIP3    H151990   1.436   1.747   6.845 -0.2303 -1.7362 -0.8309
 9265TIP3    H251991   1.369   1.736   6.980 -0.3647  0.3969 -0.6878
 9266TIP3   OH251992   1.561   4.544   7.015 -0.0130 -0.6436  0.3327
 9266TIP3    H151993   1.608   4.463   7.033 -2.1515 -1.7726  1.1235
 9266TIP3    H251994   1.475   4.532   7.056  0.3291  2.9164  2.5452
 9267TIP3   OH251995   5.092   3.224   8.535 -0.0065  0.0238  0.3365
 9267TIP3    H151996   5.102   3.142   8.487  0.3547 -1.0020  2.0751
 9267TIP3    H251997   5.121   3.291   8.474 -0.8695 -1.0728 -1.3370
 9268TIP3   OH251998   5.267   4.366   8.511 -0.6890 -0.3200  0.0431
 9268TIP3    H151999   5.298   4.346   8.600 -1.4754 -0.4571  0.2937
 9268TIP3    H252000   5.290   4.289   8.460  1.5143  0.5077 -0.3521
 9269TIP3   OH252001   4.172   2.965   7.396  0.1185  0.0831 -0.1898
 9269TIP3    H152002   4.154   2.944   7.305 -1.1703 -1.1671  0.3174
 9269TIP3    H252003   4.211   3.052   7.393 -0.5522  0.3644 -1.8839
 9270TIP3   OH252004   3.665   3.528   8.492  0.4492 -0.2413  0.0645
 9270TIP3    H152005   3.640   3.449   8.444  0.6330  0.6560 -1.5618
 9270TIP3    H252006   3.726   3.574   8.434  0.9526  0.7389  1.3010
 9271TIP3   OH252007   6.494   4.868  10.288 -0.0431 -0.1485 -0.3490
 9271TIP3    H152008   6.553   4.794  10.270 -1.3794 -1.1946 -0.5865
 9271TIP3    H252009   6.542   4.945  10.258  1.5969 -0.8484  0.3557
 9272TIP3   OH252010   2.669   4.480   7.960  0.6136 -0.4572  0.4651
 9272TIP3    H152011   2.755   4.443   7.983  0.7583  0.3402  1.2524
 9272TIP3    H252012   2.635   4.421   7.893  1.7152 -0.8672  0.2451
 9273TIP3   OH252013   2.022   3.400   8.897 -0.3040 -0.0108  0.1088
 9273TIP3    H152014   1.945   3.435   8.852 -0.4784  0.8566  1.0414
 9273TIP3    H252015   2.011   3.305   8.891 -1.0670  0.0956 -0.4157
 9274TIP3   OH252016   5.361   0.198   8.322 -0.5055 -0.2836 -0.1333
 9274TIP3    H152017   5.318   0.177   8.405  1.2144 -1.7941  0.4596
 9274TIP3    H252018   5.356   0.117   8.271  2.2572 -0.8323  0.3128
 9275TIP3   OH252019   3.193   1.218   7.618  0.1356  0.5402 -0.6298
 9275TIP3    H152020   3.202   1.215   7.523 -0.4360  0.0656 -0.6738
 9275TIP3    H252021   3.127   1.152   7.638  1.6234 -0.7612  0.2600
 9276TIP3   OH252022   4.198   4.111   7.078  0.0838 -0.4121  0.6127
 9276TIP3    H152023   4.148   4.181   7.121  1.3381  0.0222  1.4462
 9276TIP3    H252024   4.153   4.096   6.995 -1.1568  0.2469  1.1425
 9277TIP3   OH252025   4.722   2.940   8.622  0.1106 -0.0314  0.3064
 9277TIP3    H152026   4.811   2.968   8.600 -0.2451  0.5641 -0.3903
 9277TIP3    H252027   4.667   3.017   8.607 -0.4555 -0.2208  1.2842
 9278TIP3   OH252028   4.171   3.130   9.570  0.4751  0.2013 -0.1390
 9278TIP3    H152029   4.219   3.163   9.647 -1.2872  0.3830  0.9390
 9278TIP3    H252030   4.225   3.156   9.496  2.6169 -0.5898  1.0343
 9279TIP3   OH252031   4.187   3.366  10.546 -0.0420  0.5470  0.2228
 9279TIP3    H152032   4.100   3.356  10.507  0.9079 -0.1288 -1.9021
 9279TIP3    H252033   4.233   3.285  10.523  1.1501  0.8766  1.3292
 9280TIP3   OH252034   6.635   5.538   6.726  0.3678  0.0007 -0.7523
 9280TIP3    H152035   6.616   5.449   6.694 -1.6005  0.4337 -0.9475
 9280TIP3    H252036   6.680   5.525   6.809  0.5012 -1.1690 -0.9852
 9281TIP3   OH252037   3.930   4.313   8.438  0.5831 -0.3129  0.0637
 9281TIP3    H152038   3.886   4.393   8.465  0.1062 -0.2867 -0.7614
 9281TIP3    H252039   3.953   4.328   8.346  0.6651 -1.0396 -0.0399
 9282TIP3   OH252040   6.161   1.616   8.646 -0.0083 -0.2424  0.0714
 9282TIP3    H152041   6.200   1.596   8.561  0.5273 -1.0537  0.4923
 9282TIP3    H252042   6.236   1.628   8.704 -0.3622 -1.1145  0.7359
 9283TIP3   OH252043   0.013   3.449   9.912  0.0461  0.5601  0.4576
 9283TIP3    H152044  -0.000   3.483  10.000  1.1847  0.0213  0.8589
 9283TIP3    H252045   0.087   3.499   9.878 -0.1684  0.5281 -0.0599
 9284TIP3   OH252046   4.397   4.906   8.938  0.3167 -0.0786 -0.2126
 9284TIP3    H152047   4.411   4.995   8.907 -0.0848 -0.2766 -0.9808
 9284TIP3    H252048   4.484   4.877   8.967  0.4959  0.4748 -0.1932
 9285TIP3   OH252049   3.566   3.028   8.428  0.2219 -0.6983 -0.1558
 9285TIP3    H152050   3.532   3.117   8.435  0.7316 -0.4233 -0.9889
 9285TIP3    H252051   3.541   3.000   8.340 -0.9633 -1.8323  0.5076
 9286TIP3   OH252052   5.115   4.566   7.862 -0.0308  0.0131  0.6878
 9286TIP3    H152053   5.113   4.498   7.794  0.0046 -1.4361  2.0798
 9286TIP3    H252054   5.039   4.546   7.917 -0.5563  1.6900  0.6045
 9287TIP3   OH252055   1.206   0.400   9.085  0.1434  0.1830  0.4139
 9287TIP3    H152056   1.173   0.411   8.995 -0.2822 -0.9592  0.4130
 9287TIP3    H252057   1.203   0.489   9.122 -0.4632  0.5373 -0.4337
 9288TIP3   OH252058   1.844   0.147   7.615  0.2350  0.2274 -0.7043
 9288TIP3    H152059   1.894   0.188   7.686  0.8268  1.2804 -1.6867
 9288TIP3    H252060   1.760   0.193   7.615 -0.7440 -1.4475  0.8565
 9289TIP3   OH252061   1.817   2.162  10.145  0.6927 -0.5210  0.7954
 9289TIP3    H152062   1.769   2.094  10.192  0.8295 -0.1971  1.4290
 9289TIP3    H252063   1.797   2.242  10.193 -1.5149  0.3642 -1.4234
 9290TIP3   OH252064   3.628   3.287   7.139 -0.1528 -0.1985 -0.6473
 9290TIP3    H152065   3.611   3.214   7.079  0.7599  0.0182 -1.1740
 9290TIP3    H252066   3.693   3.253   7.201 -2.9847 -1.3509  1.9703
 9291TIP3   OH252067   3.240   4.302   7.856  0.9936 -0.3582  0.3518
 9291TIP3    H152068   3.150   4.317   7.830  1.1907 -0.2918 -0.3046
 9291TIP3    H252069   3.292   4.331   7.781  1.5208 -1.2022  0.3798
 9292TIP3   OH252070   4.236   1.484   8.145  0.5236  0.6129  0.2138
 9292TIP3    H152071   4.288   1.468   8.067 -1.4345  0.1285 -1.0653
 9292TIP3    H252072   4.238   1.402   8.193  0.7802  0.5462  0.0907
 9293TIP3   OH252073   4.818   4.543   9.190  0.1647  0.4079  0.2086
 9293TIP3    H152074   4.794   4.631   9.218  1.0205  0.4370  0.8939
 9293TIP3    H252075   4.750   4.486   9.227  0.1030  0.6867  0.5226
 9294TIP3   OH252076   0.038   5.178   8.934 -0.7380 -0.6338  0.3268
 9294TIP3    H152077  -0.019   5.255   8.922  1.5881  1.7599  3.2040
 9294TIP3    H252078   0.109   5.191   8.870  0.9047  1.0455  2.3670
 9295TIP3   OH252079   3.508   0.090   9.567  0.5673 -0.0264  0.0259
 9295TIP3    H152080   3.497   0.018   9.629 -0.5335  0.4160  0.3788
 9295TIP3    H252081   3.602   0.106   9.564  1.0535 -2.6151 -1.3937
 9296TIP3   OH252082   0.810   3.562   8.104  0.1568 -0.9541 -0.2415
 9296TIP3    H152083   0.797   3.528   8.016  0.1286 -1.7556  0.0663
 9296TIP3    H252084   0.790   3.488   8.162 -0.0895 -0.3637  0.4472
 9297TIP3   OH252085   5.274   3.196   8.746 -0.3430  0.6059  0.4658
 9297TIP3    H152086   5.276   3.112   8.792 -0.8100  0.5840  0.4496
 9297TIP3    H252087   5.220   3.179   8.668 -0.4747  0.9325  0.4868
 9298TIP3   OH252088   5.330   1.417   9.074  0.3795  0.4469  0.2410
 9298TIP3    H152089   5.351   1.509   9.091 -0.0496  0.4285  0.9008
 9298TIP3    H252090   5.332   1.376   9.161  2.3427 -0.5468 -0.2287
 9299TIP3   OH252091   5.262   5.424   8.221 -0.0781 -0.1066  0.3710
 9299TIP3    H152092   5.187   5.451   8.275 -0.8126 -0.6318 -0.3455
 9299TIP3    H252093   5.279   5.333   8.247  0.1818 -0.0511  0.3948
 9300TIP3   OH252094   5.852   6.570   9.842 -0.5924 -0.4258 -0.4106
 9300TIP3    H152095   5.798   6.645   9.818 -0.3909  0.7720  2.5158
 9300TIP3    H252096   5.937   6.588   9.803 -1.1794 -0.3521 -1.7115
 9301TIP3   OH252097   3.538   6.268   9.698 -0.2676 -0.4929  0.3496
 9301TIP3    H152098   3.622   6.224   9.685 -0.5556 -0.7206 -0.8266
 9301TIP3    H252099   3.533   6.282   9.793  0.5367 -1.5836  0.5758
 9302TIP3   OH252100   1.761   6.624   6.716 -0.2642  0.1988  0.0994
 9302TIP3    H152101   1.838   6.578   6.749  0.9834  0.8896 -1.6668
 9302TIP3    H252102   1.697   6.555   6.701  0.8558 -0.7392 -0.5764
 9303TIP3   OH252103   4.941   3.850   8.685 -0.3727 -0.8844  0.0265
 9303TIP3    H152104   4.934   3.759   8.656  0.7793 -0.9106 -0.1797
 9303TIP3    H252105   4.966   3.898   8.607  0.1954 -0.5679  0.3962
 9304TIP3   OH252106   0.419   5.933   7.951  0.1058  0.6959  0.1020
 9304TIP3    H152107   0.374   5.991   8.012  1.3447  0.7819  0.9733
 9304TIP3    H252108   0.496   5.984   7.922  1.4773 -0.6460  1.2466
 9305TIP3   OH252109   3.493   0.466   7.692  0.0296 -0.0954 -0.2752
 9305TIP3    H152110   3.459   0.492   7.607 -1.6102 -3.1395 -0.6998
 9305TIP3    H252111   3.576   0.422   7.673 -0.7397 -1.5087 -0.4330
 9306TIP3   OH252112   6.749   4.155   7.209 -1.0323  0.0882  0.1424
 9306TIP3    H152113   6.783   4.179   7.122  0.5632 -0.0067  0.7157
 9306TIP3    H252114   6.774   4.063   7.220 -0.6769  0.2778  0.9614
 9307TIP3   OH252115   3.620   5.025   8.576 -0.1191 -0.4331  0.4393
 9307TIP3    H152116   3.683   5.088   8.609 -0.1876 -1.0989  1.9297
 9307TIP3    H252117   3.543   5.036   8.632 -0.0895 -1.9054  0.8027
 9308TIP3   OH252118   5.973   1.450   8.513 -1.3373  0.2773  0.0966
 9308TIP3    H152119   5.904   1.513   8.532 -0.5094  1.2330 -0.0240
 9308TIP3    H252120   6.047   1.503   8.485 -0.8193 -0.7882 -0.5994
 9309TIP3   OH252121   4.556   2.922   9.308 -0.1968 -0.2792 -0.2050
 9309TIP3    H152122   4.481   2.862   9.312 -0.3870 -0.1102 -1.1514
 9309TIP3    H252123   4.602   2.907   9.391 -1.3022 -0.3392  0.4191
 9310TIP3   OH252124   2.016   5.923   9.102  0.3934  0.3135  0.0432
 9310TIP3    H152125   1.988   6.010   9.131  1.4819 -0.0332  2.3779
 9310TIP3    H252126   1.992   5.865   9.174  1.5325 -0.9865 -0.5719
 9311TIP3   OH252127   1.050   6.320   7.525 -0.4443  0.0616  0.2366
 9311TIP3    H152128   1.039   6.228   7.503  0.0656  0.6163 -2.6858
 9311TIP3    H252129   1.017   6.327   7.615 -0.5292 -2.9193  0.5416
 9312TIP3   OH252130   4.544   2.275   8.749 -0.0439  0.1089  0.4622
 9312TIP3    H152131   4.509   2.334   8.817 -0.8858 -0.3655  0.4564
 9312TIP3    H252132   4.614   2.325   8.708 -1.2247  1.4340 -0.0482
 9313TIP3   OH252133   4.138   5.617   8.292 -0.5635 -0.6927 -0.3538
 9313TIP3    H152134   4.091   5.540   8.323 -1.5513 -0.0110 -0.1260
 9313TIP3    H252135   4.219   5.618   8.343 -0.7925 -1.2671  0.0288
 9314TIP3   OH252136   2.798   6.719   7.536  0.3553  0.3742  0.3753
 9314TIP3    H152137   2.888   6.689   7.523  0.2296  0.2504 -0.2863
 9314TIP3    H252138   2.806   6.810   7.563  0.7044  0.0921  1.2507
 9315TIP3   OH252139   2.679   3.335   9.980  0.4372  1.1868 -0.8577
 9315TIP3    H152140   2.773   3.330   9.997  0.3374 -0.4435 -0.6351
 9315TIP3    H252141   2.641   3.370  10.061  0.8012  1.3445 -0.7562
 9316TIP3   OH252142   3.698   1.201   8.552 -0.1726 -0.9447  0.4275
 9316TIP3    H152143   3.739   1.284   8.576  0.8371 -1.2623 -0.1352
 9316TIP3    H252144   3.693   1.203   8.456 -1.0363 -1.1340  0.4538
 9317TIP3   OH252145   1.777   5.428   7.759 -0.0316 -0.1970  0.3385
 9317TIP3    H152146   1.780   5.489   7.685 -1.3228  0.2063  0.5984
 9317TIP3    H252147   1.867   5.395   7.765 -0.0681 -0.8682 -1.8987
 9318TIP3   OH252148   2.507   6.157   7.638  0.4672 -0.1523  0.2399
 9318TIP3    H152149   2.465   6.193   7.715  2.0056  0.1388  0.9772
 9318TIP3    H252150   2.446   6.176   7.566  0.2120  1.9657  0.9403
 9319TIP3   OH252151   5.860   2.632   6.928  0.0439 -0.0634 -0.1297
 9319TIP3    H152152   5.836   2.619   6.837 -2.1653  1.0407  0.2417
 9319TIP3    H252153   5.898   2.720   6.931 -1.1178  0.4546  0.1813
 9320TIP3   OH252154   4.095   3.161   7.935  0.0714 -0.7433 -0.3718
 9320TIP3    H152155   4.102   3.241   7.883  0.2090 -1.4314 -1.4319
 9320TIP3    H252156   4.186   3.129   7.941  0.1294 -0.3988  0.7339
 9321TIP3   OH252157   0.393   5.848   7.159  0.3322 -0.3357  0.2517
 9321TIP3    H152158   0.439   5.929   7.178 -0.6787  0.2530  0.2167
 9321TIP3    H252159   0.317   5.874   7.107  0.8941 -1.4788 -1.2188
 9322TIP3   OH252160   1.190   4.694  10.194 -0.2193 -0.0743  0.0589
 9322TIP3    H152161   1.199   4.625  10.260 -0.8763 -0.1561  0.0617
 9322TIP3    H252162   1.129   4.757  10.232  0.3498  0.4993  0.0394
 9323TIP3   OH252163   2.443   3.185   6.737  0.8612  0.2716  0.0233
 9323TIP3    H152164   2.427   3.253   6.672  0.3224  1.3944  1.2925
 9323TIP3    H252165   2.357   3.148   6.755  1.2014 -1.0655 -0.9563
 9324TIP3   OH252166   0.953   1.420   7.997  0.0175  0.4805  0.6604
 9324TIP3    H152167   0.966   1.399   7.904 -1.3545  1.2223  0.2785
 9324TIP3    H252168   0.942   1.515   7.998  0.1977  0.4958  1.6210
 9325TIP3   OH252169   4.122   2.700   7.825  0.1059 -0.2831 -0.3051
 9325TIP3    H152170   4.065   2.624   7.812 -0.4160 -0.1846  1.2179
 9325TIP3    H252171   4.063   2.772   7.844  0.6294  0.4089 -1.2192
 9326TIP3   OH252172   4.529   5.321   6.673 -0.4600 -0.4506 -0.2019
 9326TIP3    H152173   4.541   5.350   6.583 -0.7996  0.6800  0.1003
 9326TIP3    H252174   4.434   5.325   6.687 -0.4760 -1.2575  0.0137
 9327TIP3   OH252175   4.655   5.082   9.326 -0.4928  0.1053  0.3476
 9327TIP3    H152176   4.656   5.016   9.396 -1.7822  0.5420  0.8027
 9327TIP3    H252177   4.724   5.143   9.351  0.1399 -0.5986  0.3717
 9328TIP3   OH252178   2.700   5.647   7.190  0.0589 -0.0564  0.1918
 9328TIP3    H152179   2.636   5.677   7.126 -0.3127  2.2976  1.5445
 9328TIP3    H252180   2.785   5.665   7.149 -0.1255 -1.0412 -0.6647
 9329TIP3   OH252181   4.770   5.949   7.766 -0.2674 -0.2024 -0.1787
 9329TIP3    H152182   4.736   6.012   7.830  2.8713  1.9831 -0.3973
 9329TIP3    H252183   4.765   5.995   7.682  2.6320  0.1209 -0.2640
 9330TIP3   OH252184   5.146   5.271   8.778 -0.0996  0.3697  0.1009
 9330TIP3    H152185   5.116   5.361   8.772  1.8376  1.0777  0.1898
 9330TIP3    H252186   5.149   5.253   8.872 -1.1868 -0.0580  0.0617
 9331TIP3   OH252187   5.483   3.841   8.062 -0.2688  0.3275 -0.8169
 9331TIP3    H152188   5.420   3.770   8.050  0.3382 -0.3223 -0.2447
 9331TIP3    H252189   5.550   3.804   8.120 -0.0857  1.4558 -0.2780
 9332TIP3   OH252190   2.141   0.060   9.341  0.3051  0.6988 -0.4106
 9332TIP3    H152191   2.089   0.141   9.341  0.9455  1.1158 -0.4648
 9332TIP3    H252192   2.185   0.060   9.425  1.1438  0.9568 -0.8382
 9333TIP3   OH252193   3.952   6.743   9.123 -0.6144  0.0621  0.2396
 9333TIP3    H152194   3.874   6.771   9.076  0.7653  0.8146 -1.7258
 9333TIP3    H252195   3.933   6.763   9.215 -2.3832  1.0090 -0.2830
 9334TIP3   OH252196   1.316   4.485   7.115 -0.5096  0.0293 -0.2363
 9334TIP3    H152197   1.292   4.396   7.141  0.3713  0.0081  0.5686
 9334TIP3    H252198   1.235   4.535   7.125 -0.9985 -0.6693 -0.6493
 9335TIP3   OH252199   3.881   1.262   8.813 -0.1007 -0.0864  0.2817
 9335TIP3    H152200   3.905   1.221   8.730 -2.8564  0.2273 -0.7624
 9335TIP3    H252201   3.879   1.189   8.875 -0.4242 -0.7444 -0.4871
 9336TIP3   OH252202   5.491   0.401   6.497  0.1859 -0.0521  0.4901
 9336TIP3    H152203   5.499   0.496   6.492  1.4615 -0.1219  0.9378
 9336TIP3    H252204   5.431   0.386   6.570  0.4660  0.3838  0.8098
 9337TIP3   OH252205   3.877   2.577   9.340  0.0984  0.5662 -0.1434
 9337TIP3    H152206   3.891   2.531   9.257 -0.9973  0.4457 -0.2675
 9337TIP3    H252207   3.829   2.515   9.394  0.3050  0.8574  0.3780
 9338TIP3   OH252208   1.150   3.179   6.776  0.3315  0.4765 -1.0223
 9338TIP3    H152209   1.072   3.235   6.774 -0.2228 -0.2521 -0.4257
 9338TIP3    H252210   1.208   3.222   6.838  0.5951  1.2475 -1.7777
 9339TIP3   OH252211   5.830   5.282   9.654 -0.5582  0.1848 -0.3231
 9339TIP3    H152212   5.740   5.252   9.641 -0.0246 -2.5580  1.4415
 9339TIP3    H252213   5.822   5.357   9.712 -1.6938 -0.5255  0.4829
 9340TIP3   OH252214   6.179   1.219   7.588  0.2459  0.0537 -0.3810
 9340TIP3    H152215   6.185   1.144   7.647 -1.3884 -0.3459 -0.6964
 9340TIP3    H252216   6.233   1.286   7.631 -0.1491 -0.5288  1.0986
 9341TIP3   OH252217   1.470   5.442   7.625 -0.1697  0.4165  0.0431
 9341TIP3    H152218   1.437   5.476   7.542  0.7255  0.8341 -0.1552
 9341TIP3    H252219   1.485   5.519   7.679 -1.7224  0.0894  0.9949
 9342TIP3   OH252220   2.621   4.090   9.652  0.7494  0.1427 -0.1017
 9342TIP3    H152221   2.644   4.180   9.632  2.0431 -0.3312 -0.8903
 9342TIP3    H252222   2.667   4.038   9.587  0.3153 -1.1169  0.5473
 9343TIP3   OH252223   1.037   5.180   9.278 -0.0635  0.1351  0.4200
 9343TIP3    H152224   1.084   5.212   9.356 -1.0814 -0.2254  1.2078
 9343TIP3    H252225   1.026   5.086   9.294  0.4063 -0.0859 -0.5384
 9344TIP3   OH252226   5.259   5.692   8.204  0.2252  0.1867  0.1099
 9344TIP3    H152227   5.196   5.731   8.143 -0.5071 -0.3417  0.5141
 9344TIP3    H252228   5.242   5.598   8.199 -0.3239  0.1831  1.6417
 9345TIP3   OH252229   4.520   2.931   7.108  0.9745 -0.6987 -0.3897
 9345TIP3    H152230   4.532   2.960   7.199  1.7821  0.6378 -0.8937
 9345TIP3    H252231   4.461   2.856   7.115 -2.4260  1.8038  0.9376
 9346TIP3   OH252232   2.971   3.453  10.316  0.5886 -0.5037  0.3423
 9346TIP3    H152233   3.008   3.450  10.228  0.4022  0.1905  0.2338
 9346TIP3    H252234   3.032   3.402  10.370  0.5598 -1.1693 -0.2315
 9347TIP3   OH252235   5.168   3.226   7.962  0.0814  0.0695  0.0497
 9347TIP3    H152236   5.261   3.238   7.944  0.0681  0.5365  0.2588
 9347TIP3    H252237   5.147   3.296   8.025 -0.7861  1.0555 -1.2794
 9348TIP3   OH252238   1.215   4.705   9.203  0.3677  0.3278  0.1660
 9348TIP3    H152239   1.240   4.640   9.138 -0.2700  1.2318 -1.0182
 9348TIP3    H252240   1.168   4.772   9.154 -1.7235  0.1806  1.8150
 9349TIP3   OH252241   1.968   1.913   7.901 -0.0262  0.2102 -0.3958
 9349TIP3    H152242   2.063   1.905   7.901 -0.0694 -0.3871 -0.6628
 9349TIP3    H252243   1.941   1.887   7.990  0.1157  1.2073 -0.0549
 9350TIP3   OH252244   4.593   5.487   9.227 -0.4831  0.4975  0.6932
 9350TIP3    H152245   4.643   5.431   9.286  0.6756 -0.0254 -0.7445
 9350TIP3    H252246   4.602   5.447   9.141 -3.4085  0.3609  0.3337
 9351TIP3   OH252247   5.524   1.976  10.184 -0.0794 -0.1142 -0.5840
 9351TIP3    H152248   5.517   2.066  10.153  0.4384 -0.3953 -1.5349
 9351TIP3    H252249   5.579   1.931  10.119 -1.7057 -1.5386 -1.0398
 9352TIP3   OH252250   3.140   2.224   6.618 -0.5416  0.1201  0.1138
 9352TIP3    H152251   3.184   2.155   6.668  1.1644  1.8954  1.2568
 9352TIP3    H252252   3.093   2.178   6.549  2.1141 -2.0784 -0.4279
 9353TIP3   OH252253   4.640   1.822   9.146 -0.4247 -0.2806  0.0473
 9353TIP3    H152254   4.633   1.913   9.118 -1.4703 -0.8159 -1.6460
 9353TIP3    H252255   4.684   1.825   9.230 -0.4179  1.7827  0.0101
 9354TIP3   OH252256   6.720   4.998   9.834  0.0890 -0.2589 -0.1398
 9354TIP3    H152257   6.805   5.017   9.875  0.5541 -0.1790 -1.1165
 9354TIP3    H252258   6.684   4.927   9.887 -0.0621  0.9057  1.3883
 9355TIP3   OH252259   0.594   5.017   9.895  0.3533 -0.1612  0.6044
 9355TIP3    H152260   0.674   5.046   9.850  0.0168  0.4979  0.4153
 9355TIP3    H252261   0.523   5.054   9.843 -0.0660 -0.3304  1.0526
 9356TIP3   OH252262   2.582   5.731   8.147 -0.2185 -0.2876  0.2789
 9356TIP3    H152263   2.545   5.645   8.128 -0.6059  0.0518 -0.5325
 9356TIP3    H252264   2.654   5.740   8.085  0.7658 -0.6171  1.3294
 9357TIP3   OH252265   6.347   4.423  10.206 -0.6475  0.4202  0.6283
 9357TIP3    H152266   6.352   4.492  10.272  1.7907  0.9028  0.0051
 9357TIP3    H252267   6.399   4.455  10.133  0.3045 -1.9370  0.1846
 9358TIP3   OH252268   1.702   1.752   6.755 -0.2871  0.0539 -0.0139
 9358TIP3    H152269   1.634   1.768   6.820  0.2835 -3.0714  1.5193
 9358TIP3    H252270   1.776   1.806   6.785 -0.3519 -0.6204  1.4298
 9359TIP3   OH252271   6.186   3.300   7.866 -0.1690  0.1169 -0.1806
 9359TIP3    H152272   6.150   3.220   7.905  0.4963  0.3053  0.8715
 9359TIP3    H252273   6.280   3.295   7.884 -0.2337  1.5516  0.7232
 9360TIP3   OH252274   2.501   5.490   9.605 -0.1751  0.3257 -0.1239
 9360TIP3    H152275   2.429   5.427   9.606 -0.0502  0.1814  0.3867
 9360TIP3    H252276   2.510   5.516   9.697 -1.0358  2.0072 -0.4755
 9361TIP3   OH252277   5.146   6.164   8.365  0.5165  0.1083 -0.3933
 9361TIP3    H152278   5.180   6.170   8.276  0.2422 -0.8863 -0.5763
 9361TIP3    H252279   5.076   6.229   8.368 -0.9985 -1.3591 -1.6376
 9362TIP3   OH252280   5.065   3.805   7.403  0.1506 -0.0658  0.2615
 9362TIP3    H152281   5.033   3.872   7.463 -1.3594  2.4025 -2.9956
 9362TIP3    H252282   4.988   3.754   7.379  0.7574 -1.1152  0.4647
 9363TIP3   OH252283   4.588   4.666   8.316 -0.1482 -0.2460  0.0701
 9363TIP3    H152284   4.663   4.690   8.370  0.1412 -0.0724 -0.4002
 9363TIP3    H252285   4.626   4.613   8.245 -0.4594 -0.0840 -0.2175
 9364TIP3   OH252286   3.127   3.136   9.308  0.5817  0.0152 -0.5134
 9364TIP3    H152287   3.074   3.079   9.364  0.3622  1.1813  0.5066
 9364TIP3    H252288   3.198   3.079   9.277  0.5315 -0.7555  0.7045
 9365TIP3   OH252289   3.409   4.048   8.343 -0.4830 -0.4880  0.1668
 9365TIP3    H152290   3.436   3.978   8.283 -0.4221 -1.3714  1.1960
 9365TIP3    H252291   3.450   4.026   8.426  0.7988  1.6330  0.1503
 9366TIP3   OH252292   4.224   2.363   8.800 -0.5987 -0.1911  0.2526
 9366TIP3    H152293   4.176   2.435   8.759 -0.0409  0.3673  0.5588
 9366TIP3    H252294   4.300   2.350   8.743 -1.8055 -2.0348 -1.0364
 9367TIP3   OH252295   1.282   3.743   7.419  0.0499 -0.2358  0.1668
 9367TIP3    H152296   1.216   3.674   7.426  0.1660 -0.1995  2.4249
 9367TIP3    H252297   1.353   3.713   7.476  1.1183  0.6824 -0.6398
 9368TIP3   OH252298   1.461   2.855   6.935 -0.4494 -0.2422 -0.6410
 9368TIP3    H152299   1.530   2.853   7.001 -2.2424 -2.3633  1.3874
 9368TIP3    H252300   1.495   2.802   6.863 -0.1249 -1.7979  0.5954
 9369TIP3   OH252301   0.976   2.788   8.788  0.1598 -0.0526 -0.2586
 9369TIP3    H152302   0.916   2.758   8.856 -1.7966  1.0131 -1.4401
 9369TIP3    H252303   0.967   2.883   8.789  1.6972  0.1316 -0.6398
 9370TIP3   OH252304   1.134   3.381   6.378 -0.8726  0.6637  0.0245
 9370TIP3    H152305   1.184   3.382   6.296 -0.1093  0.2727  0.4737
 9370TIP3    H252306   1.168   3.454   6.429  0.1613 -0.3566  0.8501
 9371TIP3   OH252307   5.113   1.848   8.057 -0.3677  0.2144  0.1908
 9371TIP3    H152308   5.089   1.782   8.123 -0.3439  2.1391  2.2514
 9371TIP3    H252309   5.208   1.851   8.060 -0.3099 -0.4060 -0.7129
 9372TIP3   OH252310   3.305   0.175   8.389 -0.1988  0.3165  0.0923
 9372TIP3    H152311   3.286   0.209   8.302 -0.3859  1.2560  0.4902
 9372TIP3    H252312   3.246   0.100   8.398  0.1419 -0.0615 -0.7557
 9373TIP3   OH252313   1.826   1.059   7.953 -0.5292 -0.5094 -0.0844
 9373TIP3    H152314   1.917   1.086   7.947 -1.0391  1.2031 -0.5467
 9373TIP3    H252315   1.781   1.133   7.993 -2.0630 -0.4544 -1.7844
 9374TIP3   OH252316   2.463   5.934   7.389  0.1463  0.7299 -0.7272
 9374TIP3    H152317   2.519   5.861   7.418  0.5594  1.2618 -0.1522
 9374TIP3    H252318   2.379   5.917   7.432  0.2074  0.5365 -0.6809
 9375TIP3   OH252319   2.090   2.634   9.253  0.6099  0.5040 -0.4071
 9375TIP3    H152320   2.166   2.622   9.197  0.1495 -0.5375 -0.8559
 9375TIP3    H252321   2.015   2.623   9.193  0.0410 -2.9794  0.6860
 9376TIP3   OH252322   3.038   3.721   6.836 -0.1001  0.5959 -0.5021
 9376TIP3    H152323   2.981   3.647   6.814 -0.1905 -0.2962  2.2850
 9376TIP3    H252324   2.986   3.798   6.814 -2.7893 -0.1683  2.3264
 9377TIP3   OH252325   1.990   2.454   8.332 -0.5578 -0.1242  0.1592
 9377TIP3    H152326   1.908   2.435   8.377 -0.1688 -1.1726  0.4665
 9377TIP3    H252327   2.035   2.370   8.330  0.0105  0.1905 -1.0209
 9378TIP3   OH252328   6.336   3.612   7.982  0.0882  0.2277 -0.4300
 9378TIP3    H152329   6.394   3.681   8.017  0.7057 -0.2463 -0.5118
 9378TIP3    H252330   6.325   3.634   7.890 -1.3102  1.3180 -0.0532
 9379TIP3   OH252331   4.977   3.879   6.597 -0.1480  0.3048 -0.1921
 9379TIP3    H152332   4.935   3.807   6.644  0.9971 -0.6543 -0.5602
 9379TIP3    H252333   4.905   3.932   6.563 -1.0107  0.3306  1.5610
 9380TIP3   OH252334   1.500   0.736   6.846  0.7181 -0.0942  0.3817
 9380TIP3    H152335   1.542   0.809   6.892 -1.5573  1.0748  0.8059
 9380TIP3    H252336   1.441   0.698   6.911 -1.3781  0.5673 -1.0126
 9381TIP3   OH252337   4.398   1.385   9.117  0.2974 -0.0023 -0.2278
 9381TIP3    H152338   4.435   1.366   9.031 -0.5774 -1.2652 -0.3493
 9381TIP3    H252339   4.436   1.470   9.141  0.7321  0.2650 -1.7473
 9382TIP3   OH252340   2.412   4.622   7.340 -0.3615  0.6294  0.2803
 9382TIP3    H152341   2.497   4.612   7.381  1.0805  0.1969 -2.5576
 9382TIP3    H252342   2.383   4.710   7.365  1.8929  1.6072 -0.3050
 9383TIP3   OH252343   5.958   5.511   6.926 -0.0152  0.2822  0.6360
 9383TIP3    H152344   5.897   5.441   6.904  0.8904 -0.3345 -0.0442
 9383TIP3    H252345   5.925   5.549   7.007 -1.3464  0.0503  0.2174
 9384TIP3   OH252346   5.721   3.264   9.804  0.0326  0.0158  0.0602
 9384TIP3    H152347   5.726   3.215   9.722 -0.8164  1.9286 -1.2251
 9384TIP3    H252348   5.643   3.320   9.794  1.6932  2.6516  0.7555
 9385TIP3   OH252349   0.815   1.170   7.228 -0.2131 -0.1319 -0.5073
 9385TIP3    H152350   0.788   1.203   7.143  1.3576  0.5369 -0.7971
 9385TIP3    H252351   0.841   1.079   7.212 -0.9900 -0.3552 -0.5026
 9386TIP3   OH252352   1.035   5.752   8.941 -0.3800  0.4538 -0.0219
 9386TIP3    H152353   1.002   5.785   8.857 -1.5110  0.3993  0.3850
 9386TIP3    H252354   0.971   5.687   8.968  0.3809 -0.0766  0.5256
 9387TIP3   OH252355   6.670   4.406   7.246  0.2434 -0.6054 -0.0711
 9387TIP3    H152356   6.690   4.313   7.237 -0.4644 -0.7327 -0.4188
 9387TIP3    H252357   6.581   4.407   7.283  0.7354 -0.0696  1.1571
 9388TIP3   OH252358   0.032   0.698   7.135  0.1538  0.4603  0.3239
 9388TIP3    H152359   0.113   0.650   7.118  0.5240  0.5267  1.7989
 9388TIP3    H252360  -0.038   0.638   7.109  0.6307 -0.5355  1.2894
 9389TIP3   OH252361   1.586   5.694   7.393  0.2755  0.2717 -0.4349
 9389TIP3    H152362   1.528   5.760   7.431 -0.3758 -0.5247 -0.0406
 9389TIP3    H252363   1.532   5.645   7.332 -0.1548 -1.9809  1.5983
 9390TIP3   OH252364   3.809   2.920   7.005  0.0876 -0.4903 -0.2596
 9390TIP3    H152365   3.728   2.878   6.974 -0.6904 -0.2576  1.3558
 9390TIP3    H252366   3.794   3.014   6.990 -0.9577 -0.2101  2.0946
 9391TIP3   OH252367   3.377   5.583   8.734  0.6296  0.6602  0.4401
 9391TIP3    H152368   3.364   5.637   8.657 -0.0831  0.7730  0.6310
 9391TIP3    H252369   3.369   5.493   8.703 -1.9217  0.7069  0.7161
 9392TIP3   OH252370   1.259   5.709   8.208  0.5024  0.1527  0.2763
 9392TIP3    H152371   1.273   5.754   8.292 -1.3025 -0.1498  0.8035
 9392TIP3    H252372   1.192   5.643   8.228  0.5174 -0.3663 -1.2728
 9393TIP3   OH252373   0.532   0.212   8.372  1.1418  0.0864 -0.3982
 9393TIP3    H152374   0.460   0.236   8.430 -0.3151 -3.1233 -0.6905
 9393TIP3    H252375   0.611   0.236   8.421 -0.0726  0.8882  1.2669
 9394TIP3   OH252376   2.714   3.162   8.823 -0.5406  0.2420 -0.3219
 9394TIP3    H152377   2.667   3.244   8.806 -0.3434  0.6517  0.9783
 9394TIP3    H252378   2.736   3.129   8.736 -1.0121  1.3407 -0.8874
 9395TIP3   OH252379   6.003   2.238   7.148 -0.2398  0.3436  0.6851
 9395TIP3    H152380   6.035   2.315   7.101 -0.3513  0.1952  0.3688
 9395TIP3    H252381   5.910   2.232   7.124 -0.5265  0.7846  1.6143
 9396TIP3   OH252382   1.977   1.900   8.179 -0.0145 -0.0158 -0.0509
 9396TIP3    H152383   2.036   1.855   8.239 -0.9186 -1.1307  0.0409
 9396TIP3    H252384   1.890   1.883   8.215 -0.4381  1.0626 -0.5332
 9397TIP3   OH252385   3.831   0.250   7.827  0.1640  0.5177  0.3992
 9397TIP3    H152386   3.911   0.289   7.860  0.9611  0.8292 -1.7382
 9397TIP3    H252387   3.853   0.158   7.814 -0.0967  0.4236  0.6228
 9398TIP3   OH252388   5.257   4.278   8.070  0.1782 -0.0061 -0.6362
 9398TIP3    H152389   5.167   4.269   8.041  0.3198 -0.2270 -1.0120
 9398TIP3    H252390   5.307   4.220   8.013  0.8672  1.7053 -1.8549
 9399TIP3   OH252391   3.290   5.695   8.480  0.2437  0.8091 -0.3924
 9399TIP3    H152392   3.247   5.613   8.503 -0.6778  1.7683  1.5221
 9399TIP3    H252393   3.297   5.693   8.385  0.0707 -1.3858 -0.4042
 9400TIP3   OH252394   3.708   3.364   8.706  0.2113 -0.0611 -0.0055
 9400TIP3    H152395   3.713   3.431   8.637 -0.0677 -0.8428 -0.8118
 9400TIP3    H252396   3.625   3.382   8.751  1.1607  1.4635  1.2297
 9401TIP3   OH252397   4.062   5.892   9.144 -0.4275  0.3008  0.3190
 9401TIP3    H152398   4.028   5.806   9.169  1.5220 -0.9464 -1.0197
 9401TIP3    H252399   4.057   5.893   9.049 -1.3770  2.1342  0.3608
 9402TIP3   OH252400   0.943   3.821   6.599 -0.2802  0.0696 -0.4753
 9402TIP3    H152401   0.867   3.824   6.658  1.1574  1.2672  1.4416
 9402TIP3    H252402   0.955   3.728   6.581 -1.7755 -0.1959 -0.2641
 9403TIP3   OH252403   3.751   0.133  10.196 -0.0848  0.1838 -0.1462
 9403TIP3    H152404   3.747   0.040  10.218 -1.0940 -0.6529 -3.2588
 9403TIP3    H252405   3.800   0.136  10.114 -2.3251  2.0233 -1.5317
 9404TIP3   OH252406   4.025   1.994   8.734 -0.3443  0.3072 -0.0155
 9404TIP3    H152407   4.099   1.973   8.790  0.2251  0.9239 -0.5188
 9404TIP3    H252408   4.055   1.975   8.645 -0.9915  0.0042 -0.1733
 9405TIP3   OH252409   0.434   4.977   9.076 -0.3844  0.6146 -0.6315
 9405TIP3    H152410   0.377   5.016   9.143 -0.1091  2.2147 -1.2725
 9405TIP3    H252411   0.522   4.992   9.108 -0.1807  2.8717 -2.0428
 9406TIP3   OH252412   3.222   3.602   8.563  0.5554  0.0501 -0.0837
 9406TIP3    H152413   3.144   3.650   8.533  1.1841  0.7218 -0.6985
 9406TIP3    H252414   3.225   3.619   8.657 -0.0005  0.0742 -0.0639
 9407TIP3   OH252415   0.682   4.979   9.173 -0.2695  0.4813  0.5660
 9407TIP3    H152416   0.746   4.908   9.172 -1.5681 -0.7287  0.1528
 9407TIP3    H252417   0.726   5.050   9.219  2.0691  0.3745 -1.3012
 9408TIP3   OH252418   6.464   4.045   7.144 -0.4911  0.3537  0.3566
 9408TIP3    H152419   6.403   4.042   7.218 -0.2400 -1.1165  0.5356
 9408TIP3    H252420   6.514   3.964   7.152  0.5759  0.9080 -0.5648
 9409TIP3   OH252421   0.962   1.085   8.988  0.4608 -0.2044  0.3853
 9409TIP3    H152422   0.919   1.000   8.984  1.8092 -0.8847 -0.0265
 9409TIP3    H252423   0.936   1.129   8.907  0.5163 -0.5851  0.1599
 9410TIP3   OH252424   1.789   3.487   8.775  0.5841 -0.3371 -0.2748
 9410TIP3    H152425   1.840   3.543   8.716 -0.0838  0.6394  0.0534
 9410TIP3    H252426   1.795   3.531   8.860 -0.1950 -0.6133 -0.0741
 9411TIP3   OH252427   4.928   6.185   7.797  0.5577 -0.2478 -0.7943
 9411TIP3    H152428   4.922   6.140   7.880  0.1863  1.0289 -0.0973
 9411TIP3    H252429   4.847   6.161   7.750 -1.2159  2.0367  0.8426
 9412TIP3   OH252430   4.407   1.719   7.157 -1.0243 -0.2701  0.0209
 9412TIP3    H152431   4.487   1.676   7.188 -0.5788  0.6971  0.2501
 9412TIP3    H252432   4.421   1.731   7.063 -1.5022 -1.3414 -0.2062
 9413TIP3   OH252433   0.839   2.598  10.287 -0.2118 -0.3604 -0.1509
 9413TIP3    H152434   0.918   2.544  10.287  1.2735  1.6485  1.4455
 9413TIP3    H252435   0.867   2.682  10.252 -1.6118  0.4337  0.5376
 9414TIP3   OH252436   5.308   4.570   9.324 -0.3625 -0.4910 -0.4593
 9414TIP3    H152437   5.336   4.642   9.380 -2.8967 -0.1436  0.4925
 9414TIP3    H252438   5.244   4.610   9.264 -3.0377 -2.1213  1.1177
 9415TIP3   OH252439   4.017   2.227   9.207 -0.3144 -0.9704  0.0705
 9415TIP3    H152440   4.067   2.199   9.284  0.2134 -0.2976 -0.0218
 9415TIP3    H252441   4.073   2.204   9.133 -0.2486 -0.4400 -0.0472
 9416TIP3   OH252442   2.591   0.618   7.694 -0.1592  0.2355 -0.3277
 9416TIP3    H152443   2.621   0.562   7.622  1.4403  1.5503 -0.7413
 9416TIP3    H252444   2.635   0.583   7.771 -2.7229 -1.8627  0.3042
 9417TIP3   OH252445   5.714   3.943   8.684 -0.3026  0.1226 -0.5313
 9417TIP3    H152446   5.792   3.889   8.695 -0.0741  0.3287 -1.1366
 9417TIP3    H252447   5.690   3.968   8.773  1.0285  1.0802 -0.4123
 9418TIP3   OH252448   4.306   1.565   7.387  0.0038 -0.1223  0.0121
 9418TIP3    H152449   4.247   1.611   7.447 -1.7772 -0.1857 -1.6008
 9418TIP3    H252450   4.340   1.634   7.330  0.4331 -0.2741  0.0860
 9419TIP3   OH252451   4.432   3.962   8.041  0.7586 -0.2565 -0.3008
 9419TIP3    H152452   4.452   3.890   7.980 -0.3217 -0.8873  0.0518
 9419TIP3    H252453   4.480   3.939   8.121  0.3208 -0.6590 -0.1491
 9420TIP3   OH252454   5.178   2.153   6.673  0.9609  0.0008  0.0966
 9420TIP3    H152455   5.163   2.135   6.766 -0.4952  3.6074  0.7280
 9420TIP3    H252456   5.093   2.141   6.632  0.4783  2.6622  0.1542
 9421TIP3   OH252457   6.705   2.835   8.984  0.5558  0.4277  0.1304
 9421TIP3    H152458   6.622   2.806   8.946 -0.4935  1.9929  1.1258
 9421TIP3    H252459   6.753   2.873   8.911  0.0349  0.2770 -0.2944
 9422TIP3   OH252460   4.403   6.005   7.410 -0.1501  0.1503  0.3960
 9422TIP3    H152461   4.452   6.060   7.471  0.5275 -0.9411  0.8873
 9422TIP3    H252462   4.348   6.065   7.361 -0.9425  1.0479  2.2949
 9423TIP3   OH252463   2.022   6.704   8.856  0.4926  0.8020 -0.1392
 9423TIP3    H152464   2.117   6.692   8.856  0.4674  0.5925  0.5198
 9423TIP3    H252465   2.004   6.747   8.772  0.9027 -1.2363 -1.3380
 9424TIP3   OH252466   3.383   1.448   7.643 -0.0995  0.3504 -0.0109
 9424TIP3    H152467   3.319   1.377   7.638  1.6317 -1.5316  2.2595
 9424TIP3    H252468   3.443   1.421   7.712  1.6428  3.2777 -0.2225
 9425TIP3   OH252469   2.977   1.050   7.646 -0.5477  0.2041 -0.0922
 9425TIP3    H152470   2.926   1.113   7.594  1.1409  0.1620 -1.8973
 9425TIP3    H252471   2.911   1.006   7.700 -2.2622  1.0077 -1.4014
 9426TIP3   OH252472   1.323   4.073   6.918 -0.5374  0.1920  0.2526
 9426TIP3    H152473   1.254   4.027   6.870 -1.7700  1.2845  0.8722
 9426TIP3    H252474   1.310   4.165   6.895  0.4015  0.4764  0.7940
 9427TIP3   OH252475   1.666   1.016   8.373 -0.1068 -0.2406 -0.2783
 9427TIP3    H152476   1.735   0.977   8.427  1.0956 -1.7846 -2.7488
 9427TIP3    H252477   1.682   1.110   8.379  1.3822 -0.4907  0.2926
 9428TIP3   OH252478   5.639   3.731   8.263  0.6721 -0.1502  0.3038
 9428TIP3    H152479   5.576   3.664   8.291  0.0825  0.1757 -0.2082
 9428TIP3    H252480   5.634   3.798   8.331  1.5046 -0.7618  0.9902
 9429TIP3   OH252481   5.582   1.455   9.315  0.7279 -0.2822  0.1105
 9429TIP3    H152482   5.639   1.431   9.388  0.1285  1.2984  1.1532
 9429TIP3    H252483   5.502   1.404   9.329  0.2954  0.6298  1.0574
 9430TIP3   OH252484   0.111   4.507   7.746  0.4915  0.2782 -0.4404
 9430TIP3    H152485   0.188   4.546   7.706  1.5283 -0.6556  0.5628
 9430TIP3    H252486   0.105   4.548   7.833 -0.1598  0.3513 -0.5088
 9431TIP3   OH252487   5.798   5.287   8.152 -0.4705  0.6469  0.0291
 9431TIP3    H152488   5.855   5.300   8.076 -1.4035  0.1663 -0.7797
 9431TIP3    H252489   5.741   5.214   8.127 -1.4423  1.1138  0.7997
 9432TIP3   OH252490   6.550   2.424   8.381 -0.5067 -0.4470  0.5224
 9432TIP3    H152491   6.535   2.332   8.360 -0.5179 -0.5613  1.0092
 9432TIP3    H252492   6.465   2.455   8.414 -0.3595 -0.4035  0.8590
 9433TIP3   OH252493   1.161   6.232   9.344 -0.7120 -0.1504 -0.3251
 9433TIP3    H152494   1.251   6.258   9.325 -1.1165  3.1237  1.5530
 9433TIP3    H252495   1.170   6.148   9.390  1.1601 -0.9102 -1.9291
 9434TIP3   OH252496   1.128   3.426   9.098  0.2839  0.7781  0.7822
 9434TIP3    H152497   1.222   3.411   9.091  0.2809 -0.4563  2.6352
 9434TIP3    H252498   1.115   3.514   9.063  1.6829 -0.0299 -2.0604
 9435TIP3   OH252499   4.065   0.067   7.860  0.2866  0.0136 -0.0424
 9435TIP3    H152500   4.119   0.113   7.796  0.3193  0.0801  0.0326
 9435TIP3    H252501   4.001   0.019   7.808 -0.2029  0.7141 -0.0938
 9436TIP3   OH252502   4.469   5.254   7.332 -0.4662 -0.0050  0.6571
 9436TIP3    H152503   4.501   5.342   7.354  0.5750  0.2557 -1.6118
 9436TIP3    H252504   4.549   5.204   7.316 -1.1029 -0.9319  0.3327
 9437TIP3   OH252505   0.553   0.904   8.457  0.4951 -0.0595 -0.3719
 9437TIP3    H152506   0.614   0.885   8.387  1.0319  1.4151 -0.3216
 9437TIP3    H252507   0.606   0.899   8.537 -0.0398 -1.4026 -0.0773
 9438TIP3   OH252508   1.856   2.108   9.884 -0.1122  0.0486 -0.2004
 9438TIP3    H152509   1.860   2.143   9.973  0.4225 -2.2715  0.7526
 9438TIP3    H252510   1.808   2.025   9.893  0.3734 -0.4755 -1.9886
 9439TIP3   OH252511   2.678   1.194   9.507 -0.7746 -0.4238  0.0263
 9439TIP3    H152512   2.675   1.129   9.438 -2.1767 -1.1561  0.7365
 9439TIP3    H252513   2.769   1.226   9.507 -0.0724 -2.3077 -0.3864
 9440TIP3   OH252514   4.525   0.135   7.157  0.1780  1.0861 -0.4715
 9440TIP3    H152515   4.618   0.156   7.147  0.0263  1.0643 -2.0630
 9440TIP3    H252516   4.525   0.051   7.202  0.8559  2.2047  1.7891
 9441TIP3   OH252517   5.000   2.927   8.554 -0.7248 -0.1117 -0.0989
 9441TIP3    H152518   4.991   2.836   8.525  0.4920 -0.1445 -0.4512
 9441TIP3    H252519   5.061   2.922   8.628  1.0921  0.6069 -1.4690
 9442TIP3   OH252520   4.431   1.456   8.716 -0.2574 -0.2355 -0.1330
 9442TIP3    H152521   4.447   1.473   8.623  2.6070  1.4106  0.5737
 9442TIP3    H252522   4.349   1.502   8.734 -1.2220 -1.1266 -1.9317
 9443TIP3   OH252523   5.725   6.550   8.331  0.0584  0.0886  0.0185
 9443TIP3    H152524   5.736   6.635   8.288  2.1572  0.9294  2.0164
 9443TIP3    H252525   5.634   6.550   8.361 -0.1919  1.2995 -0.6597
 9444TIP3   OH252526   0.152   1.199   8.795 -0.6831 -0.6047 -0.2465
 9444TIP3    H152527   0.185   1.224   8.709 -1.4348 -0.9338 -0.6312
 9444TIP3    H252528   0.210   1.128   8.823 -0.6369 -0.7194 -0.6235
 9445TIP3   OH252529   1.030   2.002   9.119 -0.4253  0.0334 -0.0869
 9445TIP3    H152530   0.942   1.970   9.098  0.7052 -2.5801 -1.2196
 9445TIP3    H252531   1.014   2.079   9.174 -3.4077  0.0950 -0.8367
 9446TIP3   OH252532   5.407   5.206   8.341 -0.2645 -0.3153  0.2277
 9446TIP3    H152533   5.426   5.190   8.434  3.4393 -0.4762 -0.4304
 9446TIP3    H252534   5.483   5.254   8.309  0.1308 -3.0138 -3.4460
 9447TIP3   OH252535   4.453   1.031   8.602 -0.0348  0.1586  0.0134
 9447TIP3    H152536   4.491   1.079   8.529 -0.4895  0.5051 -0.0007
 9447TIP3    H252537   4.380   0.983   8.564  0.5777 -0.7705 -0.0259
 9448TIP3   OH252538   0.125   4.615   9.002 -0.4744  0.3741  0.2676
 9448TIP3    H152539   0.214   4.647   8.994 -0.0818 -0.9439 -1.1820
 9448TIP3    H252540   0.129   4.553   9.075 -0.0167 -0.2268 -0.2576
 9449TIP3   OH252541   5.389   3.555   7.202  0.1677  0.3481  0.5461
 9449TIP3    H152542   5.447   3.579   7.130  0.7392 -2.8084 -0.2244
 9449TIP3    H252543   5.442   3.496   7.256 -1.4815 -0.5032  1.3040
 9450TIP3   OH252544   5.328   3.645   7.966  0.1370  0.0146  0.0837
 9450TIP3    H152545   5.252   3.625   8.021  0.2834 -1.1007 -0.1104
 9450TIP3    H252546   5.290   3.664   7.880 -0.0211  0.8710  0.3326
 9451TIP3   OH252547   2.771   3.087   8.552 -0.1232 -0.0874 -0.1820
 9451TIP3    H152548   2.817   3.119   8.474  0.9196 -0.1946  0.3646
 9451TIP3    H252549   2.839   3.040   8.602 -0.9548 -0.6829  0.4098
 9452TIP3   OH252550   3.299   1.295   7.114 -0.3885 -0.0691  0.4880
 9452TIP3    H152551   3.317   1.264   7.025  0.9150 -1.5211  1.1991
 9452TIP3    H252552   3.339   1.381   7.118 -1.0111  0.2867 -0.5014
 9453TIP3   OH252553   1.879   3.958   9.353 -0.2266  0.3013  0.2427
 9453TIP3    H152554   1.969   3.958   9.385 -0.3466 -1.9599  0.7138
 9453TIP3    H252555   1.825   3.977   9.430 -0.1963  1.0300  0.0886
 9454TIP3   OH252556   4.022   1.020   8.241 -0.3349 -0.0523 -0.1899
 9454TIP3    H152557   3.993   1.016   8.332 -2.4476  0.6861 -0.7905
 9454TIP3    H252558   3.980   0.945   8.199 -2.1089  1.4766 -1.2552
 9455TIP3   OH252559   4.697   0.644   8.534 -0.1028 -0.7219 -0.0669
 9455TIP3    H152560   4.779   0.683   8.504 -0.5815 -0.2400 -0.7783
 9455TIP3    H252561   4.688   0.672   8.625  0.8911 -1.4037  0.2528
 9456TIP3   OH252562   1.397   2.730   8.546  0.3577 -0.4130 -0.1674
 9456TIP3    H152563   1.419   2.709   8.455 -0.4422  2.0343 -1.0158
 9456TIP3    H252564   1.480   2.751   8.587  0.4166  3.2316 -1.7743
 9457TIP3   OH252565   4.445   6.050   9.342  0.1516 -0.0538 -0.0419
 9457TIP3    H152566   4.365   6.031   9.390 -0.3350 -0.4992 -0.9988
 9457TIP3    H252567   4.469   6.139   9.369 -0.4038 -0.0923  0.5974
 9458TIP3   OH252568   5.366   0.343   8.089 -0.5211 -0.2551 -0.3211
 9458TIP3    H152569   5.287   0.303   8.053 -2.3145  2.3288  0.4586
 9458TIP3    H252570   5.380   0.296   8.171 -2.7684  0.8037  0.7533
 9459TIP3   OH252571   1.752   0.393   8.655 -0.6005  0.4496  0.3010
 9459TIP3    H152572   1.751   0.379   8.560  1.6457  2.3130 -0.1066
 9459TIP3    H252573   1.838   0.363   8.683 -0.4129  1.8353  1.3410
 9460TIP3   OH252574   0.733   1.793   9.671 -0.2335  0.0605 -0.7828
 9460TIP3    H152575   0.737   1.711   9.719 -0.1944  0.3704 -0.2387
 9460TIP3    H252576   0.751   1.860   9.738 -0.5723  0.5244 -1.1512
 9461TIP3   OH252577   5.446   2.222   6.801  0.2727 -0.0795  0.3641
 9461TIP3    H152578   5.399   2.179   6.730  0.9447 -1.4768  0.7425
 9461TIP3    H252579   5.378   2.265   6.852 -0.4269 -0.7809  0.0440
 9462TIP3   OH252580   4.918   6.527   8.826  0.1127  0.0571  0.1413
 9462TIP3    H152581   4.939   6.587   8.754  0.4734 -0.3839 -0.1290
 9462TIP3    H252582   4.995   6.530   8.883  0.5516 -0.8649 -0.3734
 9463TIP3   OH252583   0.519   2.096   7.022  0.2655 -0.0216  0.4633
 9463TIP3    H152584   0.604   2.052   7.011 -0.4114 -0.8478 -2.0033
 9463TIP3    H252585   0.461   2.027   7.054  0.0921  0.0818  0.3712
 9464TIP3   OH252586   1.876   1.757   7.662 -1.3425 -0.6748 -0.3521
 9464TIP3    H152587   1.891   1.829   7.724 -1.5661 -1.4147  0.5876
 9464TIP3    H252588   1.955   1.756   7.608 -0.5558 -0.8225  0.7613
 9465TIP3   OH252589   6.269   2.096   9.829 -0.5471  0.4038  0.0347
 9465TIP3    H152590   6.238   2.172   9.878 -1.8386  0.1420 -0.3270
 9465TIP3    H252591   6.352   2.125   9.790 -0.4334  1.2282  0.8501
 9466TIP3   OH252592   1.065   5.602   8.480 -0.2201  0.5762  0.4534
 9466TIP3    H152593   1.114   5.519   8.481 -0.3761  0.4747 -0.0343
 9466TIP3    H252594   1.020   5.602   8.396  0.5996  1.6413 -0.0039
 9467TIP3   OH252595   2.037   1.582   8.564  0.3081  0.1118 -0.1879
 9467TIP3    H152596   1.969   1.545   8.508  0.0259  0.6246 -0.1947
 9467TIP3    H252597   2.018   1.547   8.651  0.8065 -0.7644 -0.4296
 9468TIP3   OH252598   5.378   1.270   9.344  0.2090  0.5544 -0.2607
 9468TIP3    H152599   5.290   1.235   9.327  0.1902  0.0928  0.7111
 9468TIP3    H252600   5.437   1.205   9.305  0.1308  0.5042 -0.2959
 9469TIP3   OH252601   4.643   4.197   8.992 -0.1962  0.6362 -0.1387
 9469TIP3    H152602   4.653   4.286   9.024 -0.6907  0.4682  0.5125
 9469TIP3    H252603   4.633   4.144   9.072  0.4652 -0.0502 -0.4905
 9470TIP3   OH252604   1.769   5.053   8.574  0.2421 -0.5664  0.4794
 9470TIP3    H152605   1.860   5.084   8.571  0.0030  0.1471  0.6231
 9470TIP3    H252606   1.733   5.077   8.489 -0.0759 -0.0532  0.7623
 9471TIP3   OH252607   4.215   4.819   8.672 -0.2379  0.0828  0.3887
 9471TIP3    H152608   4.190   4.728   8.658  0.7820  0.0840 -2.0088
 9471TIP3    H252609   4.310   4.819   8.667 -0.1604  1.1696  1.3550
 9472TIP3   OH252610   3.654   3.598   8.202 -0.0880  0.3228  0.8649
 9472TIP3    H152611   3.745   3.619   8.184  0.8208 -0.9606  3.4241
 9472TIP3    H252612   3.634   3.523   8.146  0.7063  0.0926  0.8773
 9473TIP3   OH252613   1.382   5.045   7.963  0.1259  0.5813 -0.4007
 9473TIP3    H152614   1.368   5.105   7.890  0.5728 -0.4314 -1.3471
 9473TIP3    H252615   1.418   5.100   8.033 -0.1324  1.5318 -1.0040
 9474TIP3   OH252616   1.732   0.584   6.796 -0.7734 -0.7377  0.4099
 9474TIP3    H152617   1.751   0.602   6.703 -1.4653  2.5137  0.7859
 9474TIP3    H252618   1.636   0.582   6.800 -0.8501  1.5197  1.3154
 9475TIP3   OH252619   4.609   0.709   6.939 -0.2406 -0.3673  0.4303
 9475TIP3    H152620   4.533   0.678   6.989 -0.3013 -0.1153  0.4922
 9475TIP3    H252621   4.629   0.795   6.975 -1.3587  0.5902 -1.1442
 9476TIP3   OH252622   1.456   5.815   9.580 -0.1969  0.0865  0.0181
 9476TIP3    H152623   1.473   5.748   9.646  0.0753  0.3035  0.1675
 9476TIP3    H252624   1.529   5.876   9.588  0.9800 -0.9535 -1.8304
 9477TIP3   OH252625   0.307   0.161   6.819 -0.6122 -0.0716  0.5017
 9477TIP3    H152626   0.269   0.129   6.901 -1.7234  0.5535  0.2573
 9477TIP3    H252627   0.239   0.143   6.754  1.0165 -2.3893 -0.6918
 9478TIP3   OH252628   6.068   4.984   9.313  0.3691 -0.1024 -0.3126
 9478TIP3    H152629   6.030   5.022   9.392 -2.1764 -0.7031 -1.1530
 9478TIP3    H252630   6.160   5.010   9.315  0.4336 -0.2721  2.9049
 9479TIP3   OH252631   1.864   3.708   8.380 -0.1759  0.6609 -0.5677
 9479TIP3    H152632   1.861   3.802   8.360 -0.9940  1.0782  1.3038
 9479TIP3    H252633   1.926   3.672   8.316 -0.4519  2.3241 -1.8441
 9480TIP3   OH252634   1.943   4.580   9.263  0.7994  0.3010  0.0953
 9480TIP3    H152635   1.919   4.504   9.315 -1.3372  1.5146  1.0122
 9480TIP3    H252636   1.933   4.551   9.172 -3.3040  0.2976  0.3807
 9481TIP3   OH252637   2.128   1.682   8.322  0.2429 -0.3435  0.2544
 9481TIP3    H152638   2.126   1.693   8.417 -0.4993  0.6774  0.1399
 9481TIP3    H252639   2.174   1.599   8.308  1.7783  0.2713  1.4267
 9482TIP3   OH252640   6.222   3.400   9.400 -0.3970 -0.1134 -0.2851
 9482TIP3    H152641   6.198   3.323   9.349  0.8046  0.0633 -1.1522
 9482TIP3    H252642   6.144   3.456   9.396 -1.3604 -1.3226  0.5101
 9483TIP3   OH252643   5.463   5.166   8.619  0.7274 -0.0570 -0.3491
 9483TIP3    H152644   5.511   5.090   8.585 -0.9898 -0.9132 -0.9569
 9483TIP3    H252645   5.503   5.183   8.704  0.2773 -2.5143  0.4237
 9484TIP3   OH252646   4.597   6.666   6.642 -0.0109 -0.7519 -0.4827
 9484TIP3    H152647   4.603   6.570   6.644 -0.9471 -0.8071  0.7523
 9484TIP3    H252648   4.684   6.696   6.666 -0.5046 -1.3606  2.4128
 9485TIP3   OH252649   4.429   6.597   7.809  0.0265  0.2892 -0.2735
 9485TIP3    H152650   4.370   6.624   7.879  0.3556  1.3657 -0.3926
 9485TIP3    H252651   4.372   6.559   7.743 -0.4040  0.2407  0.1213
 9486TIP3   OH252652   4.071   4.307   7.257 -0.1349  0.0681 -0.3730
 9486TIP3    H152653   4.055   4.398   7.233  3.0720  0.3717 -1.8325
 9486TIP3    H252654   4.116   4.312   7.341 -0.6334 -0.2293 -0.0860
 9487TIP3   OH252655   0.236   3.850   6.839 -0.3705 -0.0515 -0.3598
 9487TIP3    H152656   0.273   3.915   6.899 -2.9352  1.3720 -0.1720
 9487TIP3    H252657   0.297   3.776   6.843  2.1660  1.9156  0.1790
 9488TIP3   OH252658   2.557   2.435   9.227 -0.2800 -0.1787  0.2926
 9488TIP3    H152659   2.497   2.362   9.240  1.6510 -1.7184  1.2396
 9488TIP3    H252660   2.641   2.393   9.207  0.3273  1.8848 -1.8782
 9489TIP3   OH252661   4.285   3.981   9.358  0.0162  0.0585 -0.5729
 9489TIP3    H152662   4.210   4.017   9.311 -0.2501  0.5057  0.1646
 9489TIP3    H252663   4.251   3.963   9.446  0.5869 -0.4319 -0.4519
 9490TIP3   OH252664   6.528   1.639   7.282 -0.0722 -0.0558  0.5650
 9490TIP3    H152665   6.485   1.583   7.346 -0.7513  0.6727  0.7631
 9490TIP3    H252666   6.457   1.691   7.244  0.5743  0.9039  0.6326
 9491TIP3   OH252667   3.135   0.929   8.551  0.5153 -0.0204  0.2880
 9491TIP3    H152668   3.165   0.866   8.617  0.4263 -0.6953 -0.3003
 9491TIP3    H252669   3.215   0.970   8.518  0.6831 -0.7433 -0.2236
 9492TIP3   OH252670   3.258   6.507   7.302  0.1124 -0.5569  0.3177
 9492TIP3    H152671   3.241   6.425   7.256  0.3929  0.3573 -1.5329
 9492TIP3    H252672   3.182   6.562   7.281  0.5496  0.0927  0.4048
 9493TIP3   OH252673   6.048   0.473   7.643 -0.7926  0.3600 -0.3807
 9493TIP3    H152674   6.014   0.447   7.557 -0.1809  1.3061 -0.9184
 9493TIP3    H252675   6.082   0.561   7.630  2.2953 -0.6599  0.0127
 9494TIP3   OH252676   0.098   5.733   6.890  0.0516  0.1131 -0.0054
 9494TIP3    H152677   0.181   5.689   6.872 -0.0520 -0.0379 -0.1160
 9494TIP3    H252678   0.055   5.740   6.804 -0.4325 -0.5890  0.1732
 9495TIP3   OH252679   4.318   3.878   8.684  0.2198  0.4206  0.1281
 9495TIP3    H152680   4.227   3.861   8.706  0.1452 -0.2417 -0.6517
 9495TIP3    H252681   4.351   3.794   8.651  1.0498  0.7061  0.2075
 9496TIP3   OH252682   4.904   0.230   6.432 -0.5556  0.1217 -0.5644
 9496TIP3    H152683   4.863   0.288   6.368 -0.2539  0.5718 -0.3534
 9496TIP3    H252684   4.838   0.220   6.501  0.0756  1.7808  0.3451
 9497TIP3   OH252685   5.827   2.778   7.286 -0.7226  0.8003 -0.1039
 9497TIP3    H152686   5.776   2.742   7.213  0.4034 -0.9590 -0.0680
 9497TIP3    H252687   5.897   2.828   7.244  0.2836 -0.7111 -0.2889
 9498TIP3   OH252688   3.712   2.767   6.485  0.0784 -0.0225 -0.3751
 9498TIP3    H152689   3.718   2.685   6.534  0.4200  0.3355  0.1871
 9498TIP3    H252690   3.796   2.773   6.439 -0.8729 -1.2311 -2.4473
 9499TIP3   OH252691   4.810   4.239   7.345 -0.0688  0.2810 -0.0658
 9499TIP3    H152692   4.887   4.204   7.299 -0.8152  1.0484 -2.0376
 9499TIP3    H252693   4.839   4.323   7.379 -0.0734  0.7245 -1.0962
 9500TIP3   OH252694   5.805   3.416   6.918  0.0659 -0.0447 -0.0217
 9500TIP3    H152695   5.831   3.405   7.010  0.4882  2.6722  0.2538
 9500TIP3    H252696   5.887   3.425   6.871  0.0196 -3.9064 -1.2065
 9501TIP3   OH252697   1.228   1.288   6.493 -0.4753 -0.4991  0.0883
 9501TIP3    H152698   1.289   1.341   6.441 -1.2686 -0.5290 -0.9265
 9501TIP3    H252699   1.155   1.347   6.512 -0.5958 -0.7463  0.4084
 9502TIP3   OH252700   3.087   0.691   7.011  0.5896 -0.1701 -0.5784
 9502TIP3    H152701   3.106   0.771   7.059  1.0131 -1.3777  1.3716
 9502TIP3    H252702   2.997   0.703   6.980 -0.1061  0.2646  1.4475
 9503TIP3   OH252703   0.135   5.712   6.548 -0.4110 -0.4350 -0.3457
 9503TIP3    H152704   0.100   5.642   6.492 -0.7491 -0.0534 -0.6159
 9503TIP3    H252705   0.059   5.747   6.593  0.1185 -2.3265  2.2332
 9504TIP3   OH252706   0.904   0.919   7.581  0.3446 -0.6451 -0.5393
 9504TIP3    H152707   0.952   0.916   7.664  0.4626 -0.4322 -0.5968
 9504TIP3    H252708   0.823   0.967   7.602  0.0323 -1.2291 -0.3839
 9505TIP3   OH252709   5.513   3.747   9.523 -0.1533  0.5348 -0.2957
 9505TIP3    H152710   5.533   3.803   9.448 -2.0706  1.4760 -0.1663
 9505TIP3    H252711   5.509   3.658   9.487 -0.4848  0.9071 -1.2062
 9506TIP3   OH252712   5.176   4.967   6.759  0.3548 -0.0961 -0.2543
 9506TIP3    H152713   5.127   5.036   6.714 -1.0532  0.1260  1.5284
 9506TIP3    H252714   5.112   4.923   6.815  1.5253 -1.9478 -0.2717
 9507TIP3   OH252715   2.542   4.158  10.192 -0.4921 -0.2193 -0.5022
 9507TIP3    H152716   2.489   4.151  10.271 -0.6034 -2.1439 -0.6965
 9507TIP3    H252717   2.480   4.142  10.120 -0.1274  0.0355 -0.8761
 9508TIP3   OH252718   1.742   2.074   8.757  0.5038  0.3933  0.4552
 9508TIP3    H152719   1.668   2.107   8.706  0.2155  0.2235  0.7596
 9508TIP3    H252720   1.713   2.079   8.848  1.1725  1.0914  0.6388
 9509TIP3   OH252721   0.674   6.231   7.673 -0.2319 -0.1196  0.0404
 9509TIP3    H152722   0.616   6.301   7.702  1.1030  1.4896 -0.9631
 9509TIP3    H252723   0.762   6.262   7.694  0.4823 -0.8559 -1.6339
 9510TIP3   OH252724   5.107   3.139   9.102 -0.2290 -0.6121 -0.0385
 9510TIP3    H152725   5.123   3.196   9.027  1.9848 -0.4683  0.4471
 9510TIP3    H252726   5.154   3.058   9.081  2.1929  0.1383  1.9175
 9511TIP3   OH252727   5.082   0.933   9.386 -0.2612  0.5849 -0.2848
 9511TIP3    H152728   5.040   0.918   9.301  0.2462 -0.2382 -0.4071
 9511TIP3    H252729   5.094   1.028   9.391  0.4341  0.5842 -1.5091
 9512TIP3   OH252730   5.984   5.284   9.241 -0.3877 -0.3338  0.0402
 9512TIP3    H152731   5.999   5.349   9.309 -0.6961 -0.2013 -0.0167
 9512TIP3    H252732   6.011   5.201   9.281 -0.1296 -0.1941  0.1607
 9513TIP3   OH252733   1.478   2.734   7.230 -0.3453 -0.4562 -0.4886
 9513TIP3    H152734   1.450   2.769   7.314 -0.0096 -1.0153 -0.1427
 9513TIP3    H252735   1.542   2.798   7.197 -0.8220  0.0015 -0.5418
 9514TIP3   OH252736   1.164   0.432   8.155 -0.1115 -0.2623  0.2062
 9514TIP3    H152737   1.110   0.365   8.112  0.1686 -0.6592  0.4660
 9514TIP3    H252738   1.109   0.466   8.225 -0.3725  0.0057 -0.1271
 9515TIP3   OH252739   0.475   5.387  10.282 -0.2203  0.2593 -0.6543
 9515TIP3    H152740   0.512   5.301  10.301  0.1163  0.2249 -1.4199
 9515TIP3    H252741   0.428   5.411  10.362 -0.3558 -0.6480 -0.4511
 9516TIP3   OH252742   5.662   0.241   7.486  0.0942  0.0786 -0.2082
 9516TIP3    H152743   5.708   0.204   7.561 -0.8784 -2.1484 -0.6243
 9516TIP3    H252744   5.601   0.172   7.458 -2.3355  2.2306 -0.7017
 9517TIP3   OH252745   3.577   0.879   8.130 -0.2504 -0.2640  0.1509
 9517TIP3    H152746   3.513   0.947   8.148  1.5978  1.3419  1.0646
 9517TIP3    H252747   3.530   0.815   8.077 -2.3698  1.1803  0.1657
 9518TIP3   OH252748   4.521   4.020   7.598 -0.7325 -1.0061  0.1545
 9518TIP3    H152749   4.480   4.029   7.512  1.5831 -2.0030 -1.1229
 9518TIP3    H252750   4.493   4.098   7.646  0.9557  1.6430 -2.8392
 9519TIP3   OH252751   3.190   3.701   8.249 -0.0567  0.3450 -0.0168
 9519TIP3    H152752   3.169   3.794   8.258  1.8860  0.7835  0.5163
 9519TIP3    H252753   3.247   3.683   8.324 -1.4779 -1.6480  0.6779
 9520TIP3   OH252754   2.426   2.459   7.357 -0.0940  0.1310  0.0251
 9520TIP3    H152755   2.510   2.444   7.315  0.0295 -1.8329  0.8531
 9520TIP3    H252756   2.362   2.417   7.300 -0.5455  1.5670 -0.5736
 9521TIP3   OH252757   5.962   6.181   8.711 -0.3415  0.2198 -0.4232
 9521TIP3    H152758   5.872   6.206   8.732 -0.6877 -2.3127  1.6655
 9521TIP3    H252759   6.009   6.188   8.795  0.4092 -2.0590 -0.5759
 9522TIP3   OH252760   3.537   3.797   8.892 -0.1424  0.0409  0.2259
 9522TIP3    H152761   3.559   3.890   8.892 -0.1973  0.0640  1.1026
 9522TIP3    H252762   3.522   3.776   8.984  2.0006 -1.3221  0.3536
 9523TIP3   OH252763   1.674   3.249   8.994  0.3151  0.2547  0.2947
 9523TIP3    H152764   1.670   3.280   8.904 -1.8740 -0.9117 -0.0832
 9523TIP3    H252765   1.623   3.168   8.994  1.5911 -0.6328  2.2670
 9524TIP3   OH252766   2.124   3.894   9.482  0.0231 -0.3206  0.1617
 9524TIP3    H152767   2.112   3.913   9.575  0.3585 -0.0213  0.1477
 9524TIP3    H252768   2.104   3.801   9.473  0.7639 -0.5371  0.6745
 9525TIP3   OH252769   3.902   1.449   7.058 -0.8633 -0.0512  0.1093
 9525TIP3    H152770   3.974   1.422   7.001  0.4594  2.0008  0.6941
 9525TIP3    H252771   3.856   1.368   7.079  0.5066 -1.2578 -1.3308
 9526TIP3   OH252772   4.840   5.397  10.054 -0.3815 -0.3679  0.0791
 9526TIP3    H152773   4.824   5.476  10.003  1.4897 -0.6909 -1.1103
 9526TIP3    H252774   4.831   5.326   9.990 -1.2569 -1.0808  0.9598
 9527TIP3   OH252775   1.473   4.503   8.687  0.2089 -0.0198  0.6180
 9527TIP3    H152776   1.480   4.584   8.738 -0.4418  0.2889  0.2290
 9527TIP3    H252777   1.387   4.468   8.709 -0.7776  0.9411 -1.4185
 9528TIP3   OH252778   5.004   5.431   7.117  0.5013 -0.2085  0.3627
 9528TIP3    H152779   5.082   5.391   7.079  1.2317 -0.0146  1.6133
 9528TIP3    H252780   4.967   5.362   7.172 -0.0041 -0.1703  0.0780
 9529TIP3   OH252781   1.191   2.577   6.815 -0.0734  0.5225  0.1232
 9529TIP3    H152782   1.232   2.583   6.901 -0.6371 -0.3613  0.4661
 9529TIP3    H252783   1.124   2.645   6.815 -2.5283 -1.7023  1.7935
 9530TIP3   OH252784   1.522   1.450   8.078  0.2242  0.4028 -0.2103
 9530TIP3    H152785   1.433   1.428   8.105  0.7223 -0.4473  0.8386
 9530TIP3    H252786   1.548   1.378   8.021  0.9808 -0.5351  1.2421
 9531TIP3   OH252787   5.867   4.851   8.828  0.9023 -0.4915  0.5590
 9531TIP3    H152788   5.914   4.906   8.891  2.0726 -1.4158  0.5430
 9531TIP3    H252789   5.861   4.904   8.749 -0.3956  0.6039  1.3658
 9532TIP3   OH252790   4.991   4.789   6.858  0.7339  0.0191  0.4000
 9532TIP3    H152791   4.947   4.786   6.942  0.9386  1.0399  0.5515
 9532TIP3    H252792   4.956   4.714   6.810  0.8847 -0.7895  1.5138
 9533TIP3   OH252793   6.495   4.594   9.048  0.5782 -0.5660 -0.0798
 9533TIP3    H152794   6.402   4.602   9.068  0.4271 -1.5512 -0.3073
 9533TIP3    H252795   6.534   4.559   9.129  0.4592 -1.7142 -0.4913
 9534TIP3   OH252796   5.437   5.401   6.669 -0.3105  0.2054  0.3363
 9534TIP3    H152797   5.524   5.414   6.705 -0.1202  0.2681 -0.1384
 9534TIP3    H252798   5.420   5.307   6.680  0.4241 -0.0935 -0.8955
 9535TIP3   OH252799   3.209   5.076   6.840 -0.1024  0.2375  0.0496
 9535TIP3    H152800   3.220   5.149   6.901 -1.9442  0.0098  0.7142
 9535TIP3    H252801   3.120   5.045   6.855 -0.2733 -0.4786 -2.0743
 9536TIP3   OH252802   2.498   5.963   8.987  0.2526 -0.0095  0.0289
 9536TIP3    H152803   2.455   6.012   9.057 -0.7344  1.0111 -1.2316
 9536TIP3    H252804   2.482   5.871   9.008 -1.9509  0.3197  0.0381
 9537TIP3   OH252805   5.835   0.548   6.448  0.0501  0.2633 -0.1162
 9537TIP3    H152806   5.833   0.533   6.353  1.2718 -0.1358 -0.0913
 9537TIP3    H252807   5.751   0.590   6.467  0.2107  1.2978 -1.5264
 9538TIP3   OH252808   5.252   3.997   7.647  0.6614  0.5070  0.5240
 9538TIP3    H152809   5.247   4.086   7.613  1.0147  0.6732  0.8992
 9538TIP3    H252810   5.346   3.976   7.646  0.5933  0.1945  0.5795
 9539TIP3   OH252811   0.676   0.038   7.052  0.9516 -0.1110 -0.1050
 9539TIP3    H152812   0.602  -0.023   7.051 -0.0841  1.0937  0.2493
 9539TIP3    H252813   0.753  -0.019   7.059  0.1541 -1.4517 -1.4827
 9540TIP3   OH252814   6.727   0.763   7.411 -0.5746  0.3188  0.1552
 9540TIP3    H152815   6.695   0.852   7.397  0.1124  0.3384 -1.4962
 9540TIP3    H252816   6.748   0.730   7.323  1.1818 -0.7118  0.8942
 9541TIP3   OH252817   5.891   5.877   7.247 -0.0543  0.3230  0.6664
 9541TIP3    H152818   5.976   5.835   7.265  0.4284  0.6966 -0.6172
 9541TIP3    H252819   5.846   5.877   7.331  1.0751 -0.2203  1.2956
 9542TIP3   OH252820   2.910   6.374   7.497  0.3034  0.3644 -0.2690
 9542TIP3    H152821   2.965   6.450   7.518 -0.5708  0.8638  0.3201
 9542TIP3    H252822   2.848   6.369   7.570 -0.5160 -0.0866 -0.9712
 9543TIP3   OH252823   5.749   0.073   8.844 -0.6451 -0.2036 -0.0195
 9543TIP3    H152824   5.803   0.015   8.790 -0.8557 -0.0314 -0.4211
 9543TIP3    H252825   5.660   0.039   8.833 -0.5920 -0.6867  0.8965
 9544TIP3   OH252826   6.088   3.047   7.436 -0.2714  0.3320 -0.1516
 9544TIP3    H152827   6.002   3.008   7.451 -0.9155  1.2547 -1.2750
 9544TIP3    H252828   6.088   3.128   7.488  0.4983 -0.3862  1.0081
 9545TIP3   OH252829   0.853   1.637   9.446 -0.0289 -0.0300  0.1216
 9545TIP3    H152830   0.809   1.678   9.520  1.0612  0.6885  0.3801
 9545TIP3    H252831   0.833   1.544   9.455  0.6263 -0.0441  1.6918
 9546TIP3   OH252832   4.136   3.409   7.818 -0.1688 -0.5348 -0.5880
 9546TIP3    H152833   4.130   3.460   7.899 -0.5545  0.6111 -1.2984
 9546TIP3    H252834   4.066   3.446   7.763 -0.3931 -1.7953 -1.1680
 9547TIP3   OH252835   4.691   0.395   6.464 -0.1472 -0.6753 -0.4096
 9547TIP3    H152836   4.610   0.402   6.414  1.0975 -2.3766 -2.8307
 9547TIP3    H252837   4.662   0.374   6.553 -2.4404  2.5401 -0.2146
 9548TIP3   OH252838   2.747   4.911   6.667  0.2542  0.0282 -0.2042
 9548TIP3    H152839   2.704   4.826   6.657  0.3556 -0.3099  1.8018
 9548TIP3    H252840   2.816   4.895   6.731  0.1891  1.6528  0.3147
 9549TIP3   OH252841   5.569   3.332  10.632  0.0282 -0.2213  0.0784
 9549TIP3    H152842   5.508   3.338  10.559  2.2848  1.7298 -1.7964
 9549TIP3    H252843   5.636   3.271  10.603 -0.0498 -0.9793  1.3856
 9550TIP3   OH252844   1.327   3.221   7.352 -0.0553  0.3397  0.3755
 9550TIP3    H152845   1.350   3.186   7.267  1.4961  3.7331 -0.8114
 9550TIP3    H252846   1.233   3.209   7.360 -0.1970 -0.2155 -1.7393
 9551TIP3   OH252847   5.724   2.073   8.958 -0.0432  0.3327  0.0211
 9551TIP3    H152848   5.759   1.995   8.916  0.4367  1.6170 -2.1388
 9551TIP3    H252849   5.629   2.061   8.956  0.0425 -0.4076  0.1682
 9552TIP3   OH252850   5.648   0.695   6.563 -0.0967 -0.0244  0.1025
 9552TIP3    H152851   5.627   0.788   6.572 -0.3247 -0.1076  0.4484
 9552TIP3    H252852   5.685   0.671   6.648 -1.1912 -0.5463  0.4430
 9553TIP3   OH252853   5.649   4.218   7.466  0.8130 -0.2213  0.2741
 9553TIP3    H152854   5.687   4.172   7.391  0.5328  0.5159 -0.3292
 9553TIP3    H252855   5.624   4.303   7.431 -1.4506 -0.6895  0.6222
 9554TIP3   OH252856   6.462   6.534   7.184  0.0275 -0.6905  0.1650
 9554TIP3    H152857   6.439   6.570   7.270  1.5303 -0.6759  0.5804
 9554TIP3    H252858   6.377   6.521   7.141 -0.6902  0.5780  1.1200
 9555TIP3   OH252859   1.107   6.504   8.719 -0.6502  0.1074 -0.6412
 9555TIP3    H152860   1.172   6.555   8.768 -1.7340 -0.0415  1.0124
 9555TIP3    H252861   1.153   6.422   8.698  0.3897  0.8608 -1.4278
 9556TIP3   OH252862   1.696   5.757   7.790  0.6169 -0.2493  0.2488
 9556TIP3    H152863   1.668   5.831   7.843  1.8844  0.2874  0.2085
 9556TIP3    H252864   1.615   5.721   7.753  0.0258  1.4962 -0.2454
 9557TIP3   OH252865   4.894   2.210   8.954  0.2623 -0.2119 -0.1974
 9557TIP3    H152866   4.851   2.140   8.906  0.9153 -1.9406  1.5793
 9557TIP3    H252867   4.977   2.224   8.908  1.3340 -2.5340  0.8590
 9558TIP3   OH252868   0.499   6.718   8.020 -0.3204  0.8591 -0.1570
 9558TIP3    H152869   0.522   6.733   7.928  0.5949 -0.0385 -0.0788
 9558TIP3    H252870   0.559   6.775   8.069 -1.7305  2.4149 -0.1317
 9559TIP3   OH252871   5.244   5.251   7.988 -0.0880 -0.5520 -0.3855
 9559TIP3    H152872   5.168   5.281   8.038  2.0371 -0.0785  2.8707
 9559TIP3    H252873   5.283   5.331   7.952  0.1253 -0.5244 -0.0965
 9560TIP3   OH252874   6.435   5.340   7.861  0.0702 -0.0766 -0.0708
 9560TIP3    H152875   6.474   5.396   7.794  0.4974 -0.4432 -0.1364
 9560TIP3    H252876   6.346   5.324   7.831 -0.1340  0.7581  0.0703
 9561TIP3   OH252877   1.917   5.040   9.391  0.4112  0.1973 -0.7064
 9561TIP3    H152878   1.853   5.080   9.449  0.8755  1.5379 -1.0758
 9561TIP3    H252879   1.896   4.947   9.393 -0.0295  0.3009  1.0256
 9562TIP3   OH252880   5.586   2.813   8.295 -0.6516 -0.0989  0.2555
 9562TIP3    H152881   5.535   2.839   8.218  0.9598 -1.0587 -1.2038
 9562TIP3    H252882   5.672   2.851   8.282 -0.2167 -0.6232  1.4004
 9563TIP3   OH252883   0.256   5.695   9.050 -0.0060  0.3517 -0.3270
 9563TIP3    H152884   0.250   5.774   8.996 -0.9824 -0.6364 -1.7584
 9563TIP3    H252885   0.325   5.643   9.009 -0.0706  0.0114 -0.0087
 9564TIP3   OH252886   2.861   4.795   6.994 -0.1077 -0.1343  0.0184
 9564TIP3    H152887   2.880   4.702   7.003  0.2027 -0.1891 -1.0708
 9564TIP3    H252888   2.766   4.801   7.005 -0.0121 -0.4232  1.1538
 9565TIP3   OH252889   2.906   3.420   7.631  0.1395  0.1650 -0.1198
 9565TIP3    H152890   2.846   3.381   7.568  0.7967 -1.5759  0.2673
 9565TIP3    H252891   2.860   3.413   7.715 -0.1879  1.2807 -0.1844
 9566TIP3   OH252892   0.081   4.681   7.957 -0.1176  0.4262 -0.3433
 9566TIP3    H152893   0.053   4.616   8.022  0.4230  0.2444 -0.2805
 9566TIP3    H252894   0.085   4.763   8.005  2.3439 -0.0618  0.4562
 9567TIP3   OH252895   0.293   0.521   8.211 -0.4677 -0.2831 -0.0363
 9567TIP3    H152896   0.293   0.608   8.172  0.9113  0.3238  1.2095
 9567TIP3    H252897   0.348   0.469   8.152 -0.1212  0.0690 -0.0279
 9568TIP3   OH252898   2.943   2.361   7.403  0.0638  0.0414  0.3112
 9568TIP3    H152899   2.992   2.346   7.322  2.5534  0.0571  1.7303
 9568TIP3    H252900   2.949   2.279   7.451  1.9873  1.1616  2.1234
 9569TIP3   OH252901   0.057   2.862   9.787 -0.0926  0.0774  0.0101
 9569TIP3    H152902   0.135   2.896   9.743  0.4072 -0.5261  0.4128
 9569TIP3    H252903  -0.004   2.936   9.786  0.5483  0.6235 -0.1535
 9570TIP3   OH252904   4.619   3.676  10.045  0.2931  0.1970 -0.1043
 9570TIP3    H152905   4.579   3.644  10.125 -1.5046 -0.9243 -1.3791
 9570TIP3    H252906   4.652   3.763  10.068  1.0858 -0.6438  2.1853
 9571TIP3   OH252907   3.719   1.256   9.210  0.0136  0.0214 -0.0550
 9571TIP3    H152908   3.807   1.258   9.171  0.2745 -0.0990  0.5093
 9571TIP3    H252909   3.666   1.208   9.147  0.0954  1.0443 -0.9155
 9572TIP3   OH252910   5.789   4.714  10.154 -0.5965 -0.5085  0.3839
 9572TIP3    H152911   5.785   4.631  10.107 -1.7454 -0.1189 -0.2401
 9572TIP3    H252912   5.721   4.768  10.114 -0.0369  0.6518  0.9466
 9573TIP3   OH252913   4.620   1.440   6.694 -0.0203 -0.0054 -0.3261
 9573TIP3    H152914   4.527   1.426   6.677  0.4184  0.3466 -3.9256
 9573TIP3    H252915   4.636   1.529   6.663  1.3494  0.3294  1.2464
 9574TIP3   OH252916   0.059   4.701   6.857 -0.3155 -0.2894 -0.3792
 9574TIP3    H152917   0.028   4.636   6.920  0.1413 -1.0281 -0.8929
 9574TIP3    H252918   0.154   4.694   6.861 -0.2845 -0.5404 -1.3404
 9575TIP3   OH252919   1.033   6.488   6.458 -0.3178  0.4529  0.4258
 9575TIP3    H152920   1.119   6.500   6.499  0.6405  1.6636 -1.7534
 9575TIP3    H252921   1.005   6.401   6.486  2.0250 -0.3476  0.5427
 9576TIP3   OH252922   1.579   4.357   8.321 -0.2575  0.6241  0.2140
 9576TIP3    H152923   1.517   4.410   8.371 -0.9883  0.0112 -0.0147
 9576TIP3    H252924   1.613   4.416   8.255 -0.5933  0.9789  0.3534
 9577TIP3   OH252925   3.941   4.864   6.988 -0.4630 -0.6372  0.2843
 9577TIP3    H152926   4.017   4.878   7.044  0.2079 -0.2266 -0.6994
 9577TIP3    H252927   3.971   4.889   6.900 -0.8952 -2.9985 -0.6071
 9578TIP3   OH252928   5.310   5.790   7.629 -0.0204 -0.0648 -0.0298
 9578TIP3    H152929   5.253   5.845   7.576  0.7492  0.3489 -0.4496
 9578TIP3    H252930   5.391   5.841   7.637  0.0519 -0.3229  1.1425
 9579TIP3   OH252931   0.916   6.487   9.424  0.0158  0.0084  0.6763
 9579TIP3    H152932   0.948   6.487   9.334  0.0499 -2.5699  0.6155
 9579TIP3    H252933   0.992   6.514   9.477  0.5340 -0.2290  0.0656
 9580TIP3   OH252934   0.537   2.950   9.142  0.3636 -0.6420  0.8636
 9580TIP3    H152935   0.614   2.903   9.111  0.9183  0.8150 -0.1105
 9580TIP3    H252936   0.571   3.011   9.207  0.2956  0.8639 -0.4336
 9581TIP3   OH252937   3.826   0.448   8.758  0.0565 -0.2912  0.2270
 9581TIP3    H152938   3.774   0.385   8.807  0.8055  1.5654  3.7104
 9581TIP3    H252939   3.785   0.452   8.672 -1.5884 -3.5107  0.7245
 9582TIP3   OH252940   4.584   6.274   7.287 -0.2771  0.6533  0.2187
 9582TIP3    H152941   4.586   6.343   7.353  1.5070 -0.5276  1.5057
 9582TIP3    H252942   4.625   6.199   7.330 -0.1854 -0.5490 -1.8341
 9583TIP3   OH252943   2.790   5.207   8.599 -0.0266 -0.0004  0.1214
 9583TIP3    H152944   2.743   5.241   8.523 -0.7612 -0.5021  0.3331
 9583TIP3    H252945   2.817   5.119   8.572 -1.4054 -0.6876  0.8558
 9584TIP3   OH252946   6.505   1.603   6.816  0.1854 -0.2922  0.4325
 9584TIP3    H152947   6.490   1.510   6.835 -1.7623 -0.5805 -2.0506
 9584TIP3    H252948   6.597   1.608   6.792  0.4802 -1.4344  1.2367
 9585TIP3   OH252949   5.304   4.762   7.766  0.1186  0.3484 -0.2461
 9585TIP3    H152950   5.225   4.709   7.775 -0.3717  1.2122  0.5674
 9585TIP3    H252951   5.278   4.850   7.789  1.4602  0.5428  0.6560
 9586TIP3   OH252952   3.204   1.967   6.731  0.2435  1.0350 -0.8955
 9586TIP3    H152953   3.164   1.973   6.817 -0.0618  3.5696 -1.1432
 9586TIP3    H252954   3.199   1.874   6.708 -0.3533  0.4352  1.4640
 9587TIP3   OH252955   6.390   5.069   6.634 -0.5813  0.0120  0.2664
 9587TIP3    H152956   6.407   5.001   6.700 -0.7335  1.7682  2.2333
 9587TIP3    H252957   6.307   5.045   6.594 -0.6452 -0.9346  0.9514
 9588TIP3   OH252958   0.677   5.147  10.332 -0.0500  0.0920 -0.3329
 9588TIP3    H152959   0.589   5.111  10.348  0.5977 -0.4793  2.6020
 9588TIP3    H252960   0.701   5.115  10.246 -1.3379 -2.7990  0.2529
 9589TIP3   OH252961   2.828   0.725   8.945 -0.4033 -0.1334  1.0600
 9589TIP3    H152962   2.879   0.659   8.992 -0.6895 -0.5246  0.8160
 9589TIP3    H252963   2.806   0.684   8.862 -0.0658  0.4874  0.6537
 9590TIP3   OH252964   4.645   3.213   9.840  0.0377  0.1053  0.5492
 9590TIP3    H152965   4.594   3.252   9.769  2.1595 -0.1413 -1.2258
 9590TIP3    H252966   4.627   3.119   9.834 -0.4438  0.1688  0.9226
 9591TIP3   OH252967   1.498   3.770   6.522  0.1177 -0.0745 -0.4569
 9591TIP3    H152968   1.483   3.808   6.608  1.8070  2.4327 -1.1696
 9591TIP3    H252969   1.586   3.733   6.526 -0.1813 -0.8690 -0.8388
 9592TIP3   OH252970   6.749   6.050   7.577  0.6212 -0.2708  0.0877
 9592TIP3    H152971   6.723   6.071   7.487  0.6593 -1.7981 -0.3059
 9592TIP3    H252972   6.845   6.048   7.574  0.6340 -0.0274  0.2516
 9593TIP3   OH252973   3.674   6.645   7.489  0.0737  0.3918  0.3189
 9593TIP3    H152974   3.657   6.555   7.518  1.1855 -0.5411 -1.7492
 9593TIP3    H252975   3.597   6.668   7.438 -0.5217  0.9216  1.4055
 9594TIP3   OH252976   5.411   2.952   7.077 -0.4029 -0.0655 -0.0954
 9594TIP3    H152977   5.382   2.979   6.990 -0.7735 -1.3135 -0.3813
 9594TIP3    H252978   5.338   2.902   7.113  1.1550 -3.1244 -0.7605
 9595TIP3   OH252979   1.224   2.586   6.526  0.0478 -0.2610 -0.1258
 9595TIP3    H152980   1.216   2.680   6.511  2.4740  0.0832  0.2909
 9595TIP3    H252981   1.228   2.577   6.621  0.0287 -0.7615 -0.1710
 9596TIP3   OH252982   0.401   2.202   9.404  0.0446  0.4568 -0.0772
 9596TIP3    H152983   0.467   2.191   9.473 -0.4552 -0.1986  0.3030
 9596TIP3    H252984   0.448   2.184   9.323 -0.1059 -2.0720  0.3130
 9597TIP3   OH252985   5.215   5.047   7.782  0.6835 -0.4270 -0.4277
 9597TIP3    H152986   5.222   5.101   7.861 -0.0687 -0.6896 -0.1678
 9597TIP3    H252987   5.156   5.096   7.725  1.4728 -0.0897 -0.9614
 9598TIP3   OH252988   2.707   5.930   7.023  0.2669 -0.0375 -0.0295
 9598TIP3    H152989   2.779   5.884   7.066  0.2665  1.4229  1.6490
 9598TIP3    H252990   2.632   5.872   7.034  1.1971 -1.7505 -2.1313
 9599TIP3   OH252991   2.187   2.887   8.842 -0.6471  0.5439  0.1527
 9599TIP3    H152992   2.271   2.848   8.867  1.0616  2.1830 -2.5167
 9599TIP3    H252993   2.157   2.931   8.921  1.0995  0.0593  1.1363
 9600TIP3   OH252994   4.184   5.405   8.768  0.6885 -0.2477 -0.7246
 9600TIP3    H152995   4.120   5.365   8.827 -0.8484  0.3445 -1.9198
 9600TIP3    H252996   4.230   5.332   8.728 -0.3660 -0.7739 -1.0250
 9601TIP3   OH252997   6.182   4.025   7.964 -0.1372 -0.8467 -0.0970
 9601TIP3    H152998   6.145   4.044   7.878 -0.4929  0.9084  0.3970
 9601TIP3    H252999   6.115   4.054   8.026  1.0692  0.2326  0.7717
 9602TIP3   OH253000   1.545   1.866   7.655 -0.1071 -0.5780  0.1720
 9602TIP3    H153001   1.618   1.806   7.671 -0.2254 -0.8309 -0.2317
 9602TIP3    H253002   1.586   1.946   7.622  0.1054 -0.2080  1.2693
 9603TIP3   OH253003   2.276   3.582   9.500  0.3188 -0.4670  0.6651
 9603TIP3    H153004   2.180   3.586   9.492  0.2759 -0.0555  1.3133
 9603TIP3    H253005   2.293   3.601   9.593  1.0988  0.6822  0.3077
 9604TIP3   OH253006   0.398   5.456   7.489 -0.0921  0.0424 -0.0906
 9604TIP3    H153007   0.320   5.436   7.540 -0.3045 -0.2668 -0.5330
 9604TIP3    H253008   0.456   5.501   7.551 -0.3436 -0.3250  0.4250
 9605TIP3   OH253009   0.503   6.607   7.053 -0.4240 -0.2853 -0.2292
 9605TIP3    H153010   0.438   6.560   7.000  2.0008 -1.3753 -2.4935
 9605TIP3    H253011   0.586   6.565   7.031  1.7293  3.8160 -0.9828
 9606TIP3   OH253012   5.933   5.909   7.576  0.5399  0.4508  0.1469
 9606TIP3    H153013   6.026   5.908   7.554  0.5232  0.7419  0.0549
 9606TIP3    H253014   5.930   5.936   7.667  0.5341  0.6996  0.0745
 9607TIP3   OH253015   6.273   3.175   7.278 -0.4299 -0.3293  0.0693
 9607TIP3    H153016   6.236   3.256   7.242  1.5399  0.0836 -1.1862
 9607TIP3    H253017   6.208   3.145   7.341 -4.7969 -1.6305 -4.3553
 9608TIP3   OH253018   4.151   2.979   7.065  0.0983  0.1196 -0.0702
 9608TIP3    H153019   4.061   3.004   7.047 -0.2019 -0.3386  0.7643
 9608TIP3    H253020   4.203   3.057   7.044 -0.8528  1.7925  3.1078
 9609TIP3   OH253021   6.171   0.248   8.473  0.2403 -0.7615  0.2309
 9609TIP3    H153022   6.236   0.318   8.460 -1.4793  0.9847  0.5475
 9609TIP3    H253023   6.144   0.223   8.385  0.3491 -0.5334  0.1318
 9610TIP3   OH253024   5.874   4.550   6.758 -0.3526 -0.5261 -0.8758
 9610TIP3    H153025   5.945   4.596   6.803 -1.1044 -0.0048 -0.2040
 9610TIP3    H253026   5.816   4.619   6.727 -2.0042 -0.9866  0.9934
 9611TIP3   OH253027   3.371   4.402   7.642 -1.0073 -0.1641  1.1563
 9611TIP3    H153028   3.385   4.326   7.586 -0.2233 -0.5465  1.8434
 9611TIP3    H253029   3.301   4.451   7.600  0.5313  0.3416 -0.9749
 9612TIP3   OH253030   3.144   5.906   7.228  0.2352  0.6538 -0.1306
 9612TIP3    H153031   3.123   5.905   7.321 -0.5978 -1.9589 -0.2717
 9612TIP3    H253032   3.211   5.839   7.217 -1.6649 -1.1348 -1.7321
 9613TIP3   OH253033   3.914   0.978   8.482  0.0429  0.2793  0.4434
 9613TIP3    H153034   3.821   0.993   8.501 -0.1207  0.5854 -0.5842
 9613TIP3    H253035   3.932   0.893   8.522 -1.0220 -0.4121 -0.4869
 9614TIP3   OH253036   6.392   5.964   6.893  0.0885  0.6543  0.2929
 9614TIP3    H153037   6.436   6.037   6.849  2.1889  0.6638  2.1982
 9614TIP3    H253038   6.461   5.922   6.944 -1.3814 -1.7724  0.4456
 9615TIP3   OH253039   6.622   5.239   6.607  0.6200  0.3193  0.1612
 9615TIP3    H153040   6.645   5.186   6.530  1.7641  0.6709  0.2441
 9615TIP3    H253041   6.537   5.206   6.634  0.3221  0.0153 -1.1049
 9616TIP3   OH253042   6.678   3.895   8.074 -0.0905  0.3206  0.1994
 9616TIP3    H153043   6.593   3.876   8.035  0.1683  1.0862 -0.7703
 9616TIP3    H253044   6.664   3.884   8.168 -1.0246 -0.4213 -0.0103
 9617TIP3   OH253045   1.300   0.312   8.429 -0.0970 -0.7286  0.1906
 9617TIP3    H153046   1.346   0.379   8.378 -2.6167 -0.4500 -1.9207
 9617TIP3    H253047   1.353   0.233   8.418 -0.6911 -0.8061 -3.3963
 9618TIP3   OH253048   0.426   5.694   6.549  0.3613  0.1098  0.6412
 9618TIP3    H153049   0.343   5.729   6.517  2.1212  1.4283 -2.9808
 9618TIP3    H253050   0.490   5.760   6.525  3.1732 -3.1268 -1.6051
 9619TIP3   OH253051   5.922   4.334   6.566 -0.4024 -0.3421 -0.2883
 9619TIP3    H153052   5.934   4.407   6.626  0.7795 -0.1446 -0.7488
 9619TIP3    H253053   5.981   4.266   6.598 -0.6406 -0.6712 -0.5355
 9620TIP3   OH253054   2.106   5.329   8.132 -0.1362 -0.0230 -0.5611
 9620TIP3    H153055   2.164   5.380   8.076 -1.2909  1.8662 -0.1106
 9620TIP3    H253056   2.028   5.383   8.142 -0.8427 -1.2596  1.1291
 9621TIP3   OH253057   5.953   0.560   9.526 -0.2692 -0.7277 -0.6138
 9621TIP3    H153058   5.875   0.606   9.495  0.3927  2.1586  1.5303
 9621TIP3    H253059   6.025   0.602   9.478  0.4666  1.6604  2.2664
 9622TIP3   OH253060   0.121   6.742   7.876  0.0336 -0.3067  0.0558
 9622TIP3    H153061   0.176   6.733   7.954  0.6957 -0.0413 -0.3753
 9622TIP3    H253062   0.131   6.659   7.829  1.3852  0.3443 -0.8587
 9623TIP3   OH253063   2.915   6.183   8.306 -0.1237 -0.7354 -0.2129
 9623TIP3    H153064   2.911   6.205   8.213  1.2878 -1.2303 -0.4113
 9623TIP3    H253065   2.825   6.156   8.328 -1.2468  2.2062 -0.6587
 9624TIP3   OH253066   6.352   0.956   9.046  0.3643 -0.0529 -0.0524
 9624TIP3    H153067   6.327   0.869   9.075 -1.4458  0.6511  0.6087
 9624TIP3    H253068   6.289   1.015   9.087  1.3775  1.5610 -0.6875
 9625TIP3   OH253069   2.233   1.521   9.150  0.4310 -0.5110 -0.0268
 9625TIP3    H153070   2.239   1.444   9.093 -0.2414 -0.7596  0.2243
 9625TIP3    H253071   2.202   1.591   9.091 -0.0128 -0.7041 -0.0289
 9626TIP3   OH253072   1.420   2.258   7.791  0.3920  0.1457 -0.3069
 9626TIP3    H153073   1.505   2.289   7.821  0.5663  1.5276 -2.0642
 9626TIP3    H253074   1.439   2.205   7.714 -0.2376 -0.9030  0.2391
 9627TIP3   OH253075   2.347   1.314   9.328  0.8539  0.4142 -0.5300
 9627TIP3    H153076   2.335   1.404   9.299 -1.6551  0.4541  0.4015
 9627TIP3    H253077   2.354   1.320   9.424  0.3918 -0.3860 -0.4360
 9628TIP3   OH253078   2.078   6.317   9.124 -0.1388 -0.6055 -0.8023
 9628TIP3    H153079   2.060   6.405   9.156  0.2714 -0.2173 -1.6031
 9628TIP3    H253080   2.140   6.281   9.188  0.7097  0.1757 -1.1448
 9629TIP3   OH253081   3.071   0.565   8.726  1.0202  0.1148  0.0585
 9629TIP3    H153082   2.990   0.560   8.675  0.6078 -0.8802  0.7785
 9629TIP3    H253083   3.134   0.516   8.674  0.8843  0.0125 -0.0121
 9630TIP3   OH253084   0.328   6.158   9.786  0.0260 -0.4280 -0.3190
 9630TIP3    H153085   0.405   6.181   9.734 -0.4462  0.1662 -0.7732
 9630TIP3    H253086   0.364   6.124   9.868  0.7729 -0.4481 -0.6463
 9631TIP3   OH253087   4.955   0.895   9.120  0.3728  0.3517  0.4217
 9631TIP3    H153088   4.899   0.939   9.056  1.6927  0.1124 -0.9581
 9631TIP3    H253089   4.992   0.821   9.072  0.3333 -0.6661  1.8916
 9632TIP3   OH253090   2.846   2.883   7.103 -0.4287 -0.2431  0.7502
 9632TIP3    H153091   2.834   2.858   7.194  1.3503 -1.5200  0.6810
 9632TIP3    H253092   2.819   2.805   7.053  0.0031 -0.0813  0.2591
 9633TIP3   OH253093   2.189   4.168   7.627 -0.4573  0.8097  0.1121
 9633TIP3    H153094   2.181   4.241   7.564 -0.4710  1.2345  0.5964
 9633TIP3    H253095   2.100   4.153   7.657 -0.4473  0.6196  0.0447
 9634TIP3   OH253096   5.058   2.151   6.940  0.0690 -0.4861  0.2743
 9634TIP3    H153097   5.044   2.203   7.019  0.9352 -0.3489  0.3514
 9634TIP3    H253098   4.972   2.115   6.919  0.3176 -3.1845  3.0930
 9635TIP3   OH253099   3.152   1.561   8.322 -0.0638  0.3079  0.4123
 9635TIP3    H153100   3.064   1.552   8.358 -0.3830  1.2042 -0.1261
 9635TIP3    H253101   3.142   1.617   8.246  0.7712 -0.6867 -0.4733
 9636TIP3   OH253102   0.103   6.327   6.997 -0.5963 -0.2469 -0.2080
 9636TIP3    H153103   0.014   6.294   7.011 -0.0600 -1.4592  0.5057
 9636TIP3    H253104   0.138   6.337   7.086  0.3738 -0.9614 -0.4961
 9637TIP3   OH253105   4.087   6.726   7.569 -0.4497 -0.4981 -0.2682
 9637TIP3    H153106   4.124   6.676   7.642  1.3824  0.3563 -0.5545
 9637TIP3    H253107   4.051   6.660   7.510  0.8548 -1.4137 -0.0733
 9638TIP3   OH253108   2.570   6.643   6.765 -0.3451 -1.2453  0.4976
 9638TIP3    H153109   2.542   6.733   6.753  0.2078 -1.1519 -0.2284
 9638TIP3    H253110   2.490   6.595   6.788 -1.0819 -0.9415 -1.2201
 9639TIP3   OH253111   0.996   6.058   7.539 -0.2459 -0.5824  0.3063
 9639TIP3    H153112   1.040   6.052   7.624 -1.5447 -0.0388  1.0379
 9639TIP3    H253113   1.024   5.979   7.492 -2.1189 -2.6979  2.5109
 9640TIP3   OH253114   4.590   6.295   9.238 -0.6470 -0.6326 -0.2386
 9640TIP3    H153115   4.594   6.283   9.144 -1.5805 -1.3968 -0.1904
 9640TIP3    H253116   4.681   6.313   9.264 -0.7150  1.8948 -1.5521
 9641TIP3   OH253117   0.282   4.108   8.407 -0.5611  0.2832 -0.0346
 9641TIP3    H153118   0.366   4.154   8.406 -0.1490 -0.2228  2.5196
 9641TIP3    H253119   0.218   4.175   8.432 -0.5673  0.2606  0.0123
 9642TIP3   OH253120   1.345   3.700   9.459  0.3182 -0.1114  0.7134
 9642TIP3    H153121   1.272   3.659   9.504 -1.0707  1.3868 -0.0635
 9642TIP3    H253122   1.400   3.627   9.430  0.0450 -1.1992  2.7494
 9643TIP3   OH253123   2.660   0.556   7.995 -0.1741  0.1534  0.0424
 9643TIP3    H153124   2.702   0.642   8.005  1.3290 -0.5311 -0.0556
 9643TIP3    H253125   2.570   0.569   8.026  0.2743  1.5390  0.8492
 9644TIP3   OH253126   3.189   0.891   7.604 -0.0941 -0.8646  0.0110
 9644TIP3    H153127   3.124   0.956   7.578  1.3176  0.5337 -0.1613
 9644TIP3    H253128   3.138   0.812   7.621 -1.9449  0.4220  0.8144
 9645TIP3   OH253129   5.066   3.554  10.291  0.2076 -0.1013 -0.3065
 9645TIP3    H153130   4.991   3.498  10.275  0.2790 -0.4252  0.4552
 9645TIP3    H253131   5.039   3.611  10.364  0.0731  0.9775 -1.1694
 9646TIP3   OH253132   2.143   3.460   6.489 -0.5527  0.2508  0.3105
 9646TIP3    H153133   2.140   3.529   6.554  0.0593  1.8792 -1.2870
 9646TIP3    H253134   2.052   3.439   6.472 -0.7543  0.7449  0.7542
 9647TIP3   OH253135   1.191   2.722   9.292  0.4749  0.4578  0.1881
 9647TIP3    H153136   1.255   2.730   9.363 -0.0164  0.3726  0.6448
 9647TIP3    H253137   1.130   2.655   9.322  0.5126  0.0968 -0.5157
 9648TIP3   OH253138   2.073   3.572   7.636 -0.0674 -0.7767  0.2949
 9648TIP3    H153139   2.055   3.587   7.729  0.4770  0.7576  0.1647
 9648TIP3    H253140   1.989   3.543   7.601 -0.2355 -1.5737  1.2872
 9649TIP3   OH253141   6.087   1.922   8.029 -0.2552  0.3064  0.4725
 9649TIP3    H153142   6.126   1.926   7.942 -0.1401  1.3143  0.5603
 9649TIP3    H253143   6.019   1.855   8.022  0.0151  0.0994 -0.2717
 9650TIP3   OH253144   5.472   6.749   7.574  0.5970  0.6296 -0.0991
 9650TIP3    H153145   5.454   6.674   7.517 -0.2555  0.4334  0.4058
 9650TIP3    H253146   5.402   6.811   7.553  1.4021  1.3831 -0.6504
 9651TIP3   OH253147   4.276   6.030   6.745  0.6378  0.1976  0.0340
 9651TIP3    H153148   4.270   5.949   6.694 -1.2140 -0.6276  1.4767
 9651TIP3    H253149   4.321   6.091   6.686  1.5081 -1.6531 -1.3335
 9652TIP3   OH253150   3.419   3.763   9.155 -0.2062  0.3823 -0.1318
 9652TIP3    H153151   3.408   3.671   9.179  0.2679  0.5532  0.7974
 9652TIP3    H253152   3.462   3.802   9.231  0.3179  1.2039 -0.8367
 9653TIP3   OH253153   0.696   0.312   7.888 -0.8204  0.4878  0.5418
 9653TIP3    H153154   0.713   0.260   7.810 -0.2836 -0.1918  1.0987
 9653TIP3    H253155   0.708   0.402   7.860  0.1683  0.2090  0.0362
 9654TIP3   OH253156   2.444   5.484   8.499  0.5609 -0.1364  0.2638
 9654TIP3    H153157   2.390   5.486   8.420  0.0615  0.8589  0.6197
 9654TIP3    H253158   2.495   5.403   8.491 -0.0369 -0.4300 -0.7033
 9655TIP3   OH253159   2.940   2.947   9.147  0.0967  0.4748 -0.5320
 9655TIP3    H153160   2.867   3.007   9.160 -0.0945  0.7242 -2.5119
 9655TIP3    H253161   2.943   2.895   9.228 -3.9179 -1.3335 -1.2937
 9656TIP3   OH253162   5.828   2.553   8.313  0.0992 -0.6919  0.4672
 9656TIP3    H153163   5.783   2.572   8.231  0.0642 -1.0022  0.4135
 9656TIP3    H253164   5.847   2.459   8.309 -1.0324 -0.9668  1.3712
 9657TIP3   OH253165   3.099   2.328   9.623 -0.2109  0.2834 -0.0808
 9657TIP3    H153166   3.179   2.290   9.660 -0.3890 -0.1509 -0.1370
 9657TIP3    H253167   3.029   2.269   9.653 -0.6105  1.1059  0.6408
 9658TIP3   OH253168   0.538   6.021   7.558 -0.1618  0.6223  0.0481
 9658TIP3    H153169   0.595   6.087   7.599 -1.1415  0.7410  1.2668
 9658TIP3    H253170   0.577   5.937   7.582  0.1008  0.7213 -0.0285
 9659TIP3   OH253171   3.120   0.424   8.317 -0.4430 -0.4453 -0.3681
 9659TIP3    H153172   3.203   0.470   8.324  0.0304 -1.4134  0.8972
 9659TIP3    H253173   3.058   0.489   8.283  1.1044 -0.0974 -2.7277
 9660TIP3   OH253174   5.080   6.677   6.948  0.6859 -0.2960  0.1490
 9660TIP3    H153175   5.086   6.721   7.032  0.3303  0.4899 -0.2260
 9660TIP3    H253176   5.109   6.743   6.884  0.3754 -0.6764 -0.3982
 9661TIP3   OH253177   5.853   0.778   8.003  0.2439  0.5374 -0.3815
 9661TIP3    H153178   5.817   0.728   8.076  0.3941 -1.0192 -1.3373
 9661TIP3    H253179   5.783   0.839   7.978 -0.5794 -0.3460 -0.2568
 9662TIP3   OH253180   3.263   2.917   8.744 -0.4787  0.1217 -0.1022
 9662TIP3    H153181   3.195   2.894   8.808 -1.4540 -0.9155 -1.4515
 9662TIP3    H253182   3.313   2.837   8.733  0.4359  0.6375  0.2218
 9663TIP3   OH253183   5.230   0.379   7.666  0.2987 -0.5002 -0.4418
 9663TIP3    H153184   5.189   0.423   7.741  0.7704 -1.0245  0.1338
 9663TIP3    H253185   5.321   0.409   7.668  0.0831  0.2681 -1.4174
 9664TIP3   OH253186   1.339   1.835   6.707  0.3692  0.6300 -0.3414
 9664TIP3    H153187   1.361   1.821   6.615  0.6360  2.3381 -0.5703
 9664TIP3    H253188   1.373   1.923   6.726  0.1032  0.3974  1.3210
 9665TIP3   OH253189   2.106   1.352   8.008  0.0531  0.4945  0.0861
 9665TIP3    H153190   2.134   1.429   7.958 -1.0144  0.5102 -0.5016
 9665TIP3    H253191   2.103   1.281   7.944 -1.0597  0.4538  0.1775
 9666TIP3   OH253192   2.474   2.602   8.130 -0.6252  0.6032 -0.1972
 9666TIP3    H153193   2.434   2.681   8.166 -0.5036  0.5205  0.1204
 9666TIP3    H253194   2.541   2.578   8.193  0.4326  1.1524 -1.0915
 9667TIP3   OH253195   0.820   6.628   7.292 -0.2710  0.0516  0.3861
 9667TIP3    H153196   0.897   6.604   7.343 -0.3933  0.8881  0.9766
 9667TIP3    H253197   0.827   6.574   7.213  0.6766 -0.2094  0.6284
 9668TIP3   OH253198   6.516   5.851   9.377 -0.1577 -0.1325  0.4864
 9668TIP3    H153199   6.444   5.869   9.437 -1.1191 -0.2556 -0.5882
 9668TIP3    H253200   6.539   5.759   9.393  0.3444  0.1502  1.4219
 9669TIP3   OH253201   4.703   2.388   8.065  0.5435  0.1796 -0.4753
 9669TIP3    H153202   4.684   2.411   8.156  0.0249  1.0633 -0.7927
 9669TIP3    H253203   4.785   2.339   8.070  0.6053  0.3495  0.4562
 9670TIP3   OH253204   5.237   3.215   6.586 -0.6743 -0.3973  0.4531
 9670TIP3    H153205   5.254   3.307   6.603  0.3037 -0.6247  0.8354
 9670TIP3    H253206   5.148   3.200   6.615 -0.5862  0.2674  1.0810
 9671TIP3   OH253207   3.908   0.101   8.617  0.4841  0.4278 -0.3509
 9671TIP3    H153208   3.943   0.186   8.590  0.8756  0.3453 -0.1170
 9671TIP3    H253209   3.873   0.063   8.537 -0.5639  1.2085 -0.2846
 9672TIP3   OH253210   2.230   0.539   8.306 -0.1503 -0.3451 -0.2799
 9672TIP3    H153211   2.279   0.457   8.304  0.1845 -0.1395 -1.7717
 9672TIP3    H253212   2.153   0.521   8.251 -1.0701 -0.2457  0.9498
 9673TIP3   OH253213   0.470   6.100   6.925 -0.1321  0.2653  0.1305
 9673TIP3    H153214   0.380   6.068   6.936 -0.4252 -0.0989 -2.6429
 9673TIP3    H253215   0.466   6.192   6.949 -1.2497  0.2543  0.0340
 9674TIP3   OH253216   6.364   4.555   6.827  0.2273 -0.5160 -0.3524
 9674TIP3    H153217   6.428   4.542   6.896 -0.1458  2.0423  0.5776
 9674TIP3    H253218   6.416   4.575   6.749  0.5987  0.5552  0.1584
 9675TIP3   OH253219   0.519   2.066   7.985  0.1775 -0.1219  0.2292
 9675TIP3    H153220   0.456   2.132   7.954 -0.1137  0.5312  2.0922
 9675TIP3    H253221   0.469   1.985   7.991  0.2742 -0.3065 -1.0469
 9676TIP3   OH253222   6.422   0.257   8.223 -0.1098  0.3130  0.0651
 9676TIP3    H153223   6.430   0.290   8.312  0.2498  0.1343  0.0988
 9676TIP3    H253224   6.379   0.172   8.232  0.3669  0.0728  0.1132
 9677TIP3   OH253225   1.910   3.163   7.481  0.4448 -0.6051  0.3721
 9677TIP3    H153226   1.879   3.187   7.568 -0.5305 -1.1275  0.1775
 9677TIP3    H253227   2.005   3.174   7.485  0.3385 -0.0229  1.3066
 9678TIP3   OH253228   3.220   0.502   7.217  0.3499  0.4636 -0.0105
 9678TIP3    H153229   3.255   0.457   7.140 -0.3490  0.4294 -0.3204
 9678TIP3    H253230   3.189   0.586   7.183 -0.3695  0.2690  0.1452
 9679TIP3   OH253231   2.316   4.034   8.891  0.2025  0.0767 -0.2761
 9679TIP3    H153232   2.304   4.101   8.824  1.4029  0.9812  0.3758
 9679TIP3    H253233   2.388   3.980   8.858 -0.5624 -0.7316 -0.6570
 9680TIP3   OH253234   3.812   6.578   8.043  0.2399 -0.3198 -0.9094
 9680TIP3    H153235   3.789   6.558   7.952  0.5329  0.4859 -1.1702
 9680TIP3    H253236   3.747   6.642   8.070  1.7699  1.5429 -1.4686
 9681TIP3   OH253237   3.279   0.073   7.076 -0.1430 -0.0303  0.0715
 9681TIP3    H153238   3.294   0.065   7.170 -0.5260  0.4496  0.1728
 9681TIP3    H253239   3.306  -0.012   7.041  0.5395 -0.0166  0.5431
 9682TIP3   OH253240   6.426   2.645   9.962 -0.0027  0.3257  0.0280
 9682TIP3    H153241   6.429   2.640  10.058  1.3579  0.8628  0.0467
 9682TIP3    H253242   6.439   2.738   9.943  2.6794 -0.0956 -0.6823
 9683TIP3   OH253243   5.614   6.591   6.938  0.6974  0.1254 -0.6353
 9683TIP3    H153244   5.581   6.584   7.027  0.6102  2.0872 -0.4632
 9683TIP3    H253245   5.702   6.626   6.947  1.8015 -2.2900 -1.2392
 9684TIP3   OH253246   0.075   2.625   7.771  0.6073 -0.3751 -0.3720
 9684TIP3    H153247   0.005   2.655   7.712  0.0946 -3.6548 -1.6182
 9684TIP3    H253248   0.156   2.647   7.725  0.3680  0.8827 -0.2420
 9685TIP3   OH253249   3.951   0.817   9.524 -0.5413 -0.2342  0.0139
 9685TIP3    H153250   3.903   0.762   9.586 -2.5272  1.4096  0.0239
 9685TIP3    H253251   3.997   0.881   9.579  1.9399 -1.8804  0.0176
 9686TIP3   OH253252   2.532   0.575   6.802  0.9939  0.2200 -0.0184
 9686TIP3    H153253   2.478   0.531   6.867  0.6736 -1.0191 -1.0901
 9686TIP3    H253254   2.575   0.504   6.755  2.2087  1.1346 -0.3344
 9687TIP3   OH253255   3.410   0.338   7.063  0.0377 -0.3032 -0.2935
 9687TIP3    H153256   3.495   0.312   7.028  0.8602  0.6474  0.9278
 9687TIP3    H253257   3.372   0.258   7.097  1.4676 -0.3735  1.2368
 9688TIP3   OH253258   4.392   4.604   6.710 -0.6239  0.1463 -0.5120
 9688TIP3    H153259   4.331   4.618   6.783 -0.0959 -0.0061 -0.0368
 9688TIP3    H253260   4.376   4.678   6.651 -1.0482  0.2762 -0.2386
 9689TIP3   OH253261   0.945   2.148   6.868  0.7662 -0.1662  0.0822
 9689TIP3    H153262   0.898   2.225   6.834  1.8053  0.3793 -0.1723
 9689TIP3    H253263   1.019   2.185   6.917  0.6573 -0.9918  0.8902
 9690TIP3   OH253264   3.408   2.732   9.951  0.1520 -0.3668  0.6575
 9690TIP3    H153265   3.323   2.768   9.977 -0.1872  0.2542 -1.1995
 9690TIP3    H253266   3.472   2.796   9.983 -0.1378 -0.3322  1.1794
 9691TIP3   OH253267   5.264   6.111   7.672  0.2826  0.3642 -0.0574
 9691TIP3    H153268   5.198   6.180   7.680  0.8262  0.9729 -0.6850
 9691TIP3    H253269   5.233   6.056   7.600 -0.1250 -0.0207  0.4089
 9692TIP3   OH253270   5.525   4.931   7.015 -1.0295  0.5995 -0.2533
 9692TIP3    H153271   5.593   4.868   7.042 -0.5171  2.0568  2.2120
 9692TIP3    H253272   5.444   4.881   7.018 -0.2721 -0.8057 -1.7951
 9693TIP3   OH253273   0.175   3.673   8.295 -0.1617 -0.0577  0.8713
 9693TIP3    H153274   0.210   3.653   8.209 -0.7721  0.0141  0.5993
 9693TIP3    H253275   0.249   3.707   8.345 -0.1524  1.4117 -0.1207
 9694TIP3   OH253276   6.250   5.207   7.321  0.4069  0.2948 -0.0306
 9694TIP3    H153277   6.345   5.208   7.329  0.4543 -2.9792  1.7140
 9694TIP3    H253278   6.233   5.151   7.245 -0.1336  0.5211 -0.0848
 9695TIP3   OH253279   2.432   3.499   9.290  0.2153 -0.7974 -0.0130
 9695TIP3    H153280   2.380   3.520   9.368 -0.6451 -2.2375 -0.1754
 9695TIP3    H253281   2.447   3.405   9.296 -0.8015 -1.1438 -2.1419
 9696TIP3   OH253282   6.667   4.750   7.723 -0.6873  0.4787  0.5371
 9696TIP3    H153283   6.627   4.672   7.683 -1.2514 -0.0200  1.9791
 9696TIP3    H253284   6.721   4.715   7.794  0.3781  1.3171  0.1606
 9697TIP3   OH253285   5.859   5.778   6.815  0.0787  0.0744  0.2787
 9697TIP3    H153286   5.809   5.814   6.888 -1.3381 -0.1518 -0.5359
 9697TIP3    H253287   5.940   5.746   6.854 -0.7317 -0.2027  1.7795
 9698TIP3   OH253288   0.526   0.202   9.189  0.0384 -0.4480 -0.0224
 9698TIP3    H153289   0.554   0.125   9.238 -1.3462  0.2591  2.0037
 9698TIP3    H253290   0.438   0.181   9.158  0.0539 -0.0699 -0.3408
 9699TIP3   OH253291   4.584   2.948   9.877  0.4485  0.3442 -0.7567
 9699TIP3    H153292   4.552   2.926   9.964  0.0992 -0.3861 -1.0681
 9699TIP3    H253293   4.673   2.913   9.875  0.3825  0.1761 -0.7645
 9700TIP3   OH253294   2.928   3.973   6.827  0.3903 -0.2383  0.2303
 9700TIP3    H153295   2.875   4.003   6.901 -2.7439  0.6333 -2.1238
 9700TIP3    H253296   2.971   4.053   6.795 -0.0329 -0.1424 -0.1276
 9701TIP3   OH253297   5.946   3.455   8.480  0.2111 -0.4635  0.5878
 9701TIP3    H153298   5.908   3.496   8.402 -1.6129  0.1406  1.7475
 9701TIP3    H253299   6.029   3.501   8.493 -0.3056  0.6620  0.0362
 9702TIP3   OH253300   6.558   1.385   9.330  1.1618  0.1440  0.4163
 9702TIP3    H153301   6.548   1.432   9.413  1.1437 -1.2143  1.2087
 9702TIP3    H253302   6.587   1.452   9.268  0.2009  1.3990  1.2608
 9703TIP3   OH253303   2.533   1.130   7.690 -0.3985  0.0256 -0.0520
 9703TIP3    H153304   2.586   1.209   7.701 -2.4186  1.2960  1.1674
 9703TIP3    H253305   2.585   1.060   7.729  1.3227  0.7545 -0.9379
 9704TIP3   OH253306   3.334   4.487   8.667  0.1603  0.4413  0.2372
 9704TIP3    H153307   3.388   4.562   8.690  1.8053 -1.2225  2.1738
 9704TIP3    H253308   3.247   4.524   8.651  1.4786  3.0576 -1.6605
 9705TIP3   OH253309   1.477   3.941   8.909 -0.2536 -0.0369 -0.2719
 9705TIP3    H153310   1.467   3.943   9.004  1.6001  3.2599 -0.0041
 9705TIP3    H253311   1.409   4.000   8.876  1.4349  1.7864 -0.6137
 9706TIP3   OH253312   3.227   2.275   6.936 -0.5648 -0.1656 -0.1872
 9706TIP3    H153313   3.295   2.340   6.922 -0.5116  0.0094  0.8358
 9706TIP3    H253314   3.272   2.191   6.930 -0.3199 -0.0596  0.1815
 9707TIP3   OH253315   1.944   4.902   8.774  0.0979  0.1040 -0.2526
 9707TIP3    H153316   1.978   4.814   8.757  1.7253  1.0443 -2.3903
 9707TIP3    H253317   1.902   4.928   8.692 -2.2083  0.6017  1.0056
 9708TIP3   OH253318   3.932   0.938   7.157  0.2111  0.1943 -0.2795
 9708TIP3    H153319   3.966   0.852   7.184  2.1258  0.6561 -1.0302
 9708TIP3    H253320   3.837   0.926   7.154  0.4584 -2.3783 -1.7890
 9709TIP3   OH253321   1.346   3.677   8.935 -0.2463 -0.0579  0.5320
 9709TIP3    H153322   1.414   3.744   8.939  2.3345 -2.4961  0.8256
 9709TIP3    H253323   1.313   3.682   8.845 -0.6225  1.9686  0.7337
 9710TIP3   OH253324   0.171   5.120   8.570  0.6319  0.1397  0.2542
 9710TIP3    H153325   0.129   5.206   8.568  0.9430  0.3126 -2.0117
 9710TIP3    H253326   0.247   5.129   8.513  0.5527 -1.6942 -0.2131
 9711TIP3   OH253327   2.574   4.604   7.567 -0.1449  0.2624  0.2963
 9711TIP3    H153328   2.524   4.529   7.598 -0.6107  0.2060 -0.5564
 9711TIP3    H253329   2.666   4.579   7.581 -0.1937 -1.3518 -1.8160
 9712TIP3   OH253330   3.976   2.881   7.584 -0.1805 -0.0453  0.2897
 9712TIP3    H153331   4.049   2.914   7.532 -2.4641  3.2502 -1.1533
 9712TIP3    H253332   3.962   2.947   7.652 -0.5037 -1.7172  1.9330
 9713TIP3   OH253333   6.626   0.352   7.477  0.0875 -0.8895 -0.0650
 9713TIP3    H153334   6.575   0.432   7.484  1.7375  0.1043  1.5645
 9713TIP3    H253335   6.568   0.289   7.434 -1.0813  1.2918 -1.8671
 9714TIP3   OH253336   4.966   1.274   9.099 -0.1312  0.6966 -0.0448
 9714TIP3    H153337   5.026   1.307   9.033  1.0904  0.2387  0.8048
 9714TIP3    H253338   4.895   1.234   9.049  0.3770  1.0471 -1.0710
 9715TIP3   OH253339   2.687   3.457   9.485  0.6317 -0.3744 -0.3060
 9715TIP3    H153340   2.667   3.550   9.475 -0.1592 -0.6099 -0.9932
 9715TIP3    H253341   2.606   3.412   9.463  0.8033 -1.2148  0.6679
 9716TIP3   OH253342   3.114   2.648   8.601  0.0893  0.3133  0.3844
 9716TIP3    H153343   3.053   2.629   8.673  0.3680  1.5768  0.9706
 9716TIP3    H253344   3.066   2.709   8.545  0.9592  1.7008  1.1043
 9717TIP3   OH253345   0.920   2.623   9.346 -0.2161  0.5250 -0.2618
 9717TIP3    H153346   0.862   2.659   9.413 -0.5332  0.2654 -0.3903
 9717TIP3    H253347   0.873   2.637   9.264 -0.8487 -1.1026 -0.2168
 9718TIP3   OH253348   3.791   3.927   6.800  0.5715  0.1993 -0.2379
 9718TIP3    H153349   3.877   3.959   6.773  0.2640  2.2025  0.9448
 9718TIP3    H253350   3.799   3.913   6.894 -0.1220 -0.6218 -0.2881
 9719TIP3   OH253351   3.231   2.563   9.544 -0.3665 -0.0380 -0.3534
 9719TIP3    H153352   3.189   2.645   9.570 -0.2877 -0.1952  0.2897
 9719TIP3    H253353   3.161   2.498   9.546 -0.3379 -0.0712 -0.4370
 9720TIP3   OH253354   1.350   5.280   7.823  0.0107 -0.1330 -0.0397
 9720TIP3    H153355   1.410   5.323   7.762  0.1073 -1.7339 -1.1461
 9720TIP3    H253356   1.359   5.329   7.904 -0.9726  2.8317 -1.5646
 9721TIP3   OH253357   2.847   1.821   7.463 -0.2141  0.0489 -0.4417
 9721TIP3    H153358   2.830   1.788   7.551 -1.7986  0.4126 -0.5895
 9721TIP3    H253359   2.903   1.755   7.422  0.9638  0.1091  0.9742
 9722TIP3   OH253360   2.133   5.765  10.074  0.8450  0.1465 -0.0462
 9722TIP3    H153361   2.096   5.819  10.144  2.4689 -0.6594  1.5088
 9722TIP3    H253362   2.063   5.703  10.053  0.2636  0.5169  0.7233
 9723TIP3   OH253363   6.754   1.501   9.137  0.2179  0.3441 -0.9037
 9723TIP3    H153364   6.779   1.415   9.101  0.4573  0.6542 -1.4982
 9723TIP3    H253365   6.746   1.557   9.060  0.0449  0.8547 -0.5178
 9724TIP3   OH253366   4.705   1.537   8.113  0.5602  0.4722  0.3559
 9724TIP3    H153367   4.698   1.452   8.156 -0.3115  0.7057  0.6839
 9724TIP3    H253368   4.721   1.516   8.021 -2.6071 -0.1398 -0.1606
 9725TIP3   OH253369   5.047   3.095   7.254  0.1645 -0.7041 -0.4361
 9725TIP3    H153370   4.988   3.115   7.326 -1.1512  1.8240 -2.0727
 9725TIP3    H253371   5.000   3.031   7.201 -1.0508  1.0540 -1.5584
 9726TIP3   OH253372   3.788   5.565   9.190 -0.0990 -0.0131 -0.3185
 9726TIP3    H153373   3.747   5.526   9.114  1.7599  2.0321 -2.5234
 9726TIP3    H253374   3.878   5.534   9.188 -0.0744 -0.1362  1.2391
 9727TIP3   OH253375   2.010   1.269   8.809  0.0731  0.3821 -0.3445
 9727TIP3    H153376   2.084   1.253   8.751  1.2411  1.6158  0.7481
 9727TIP3    H253377   2.024   1.357   8.843 -1.7212  0.5081  0.1743
 9728TIP3   OH253378   5.254   6.484   8.733 -0.8351 -0.8701  0.4078
 9728TIP3    H153379   5.207   6.567   8.728 -0.8490 -0.8437  0.9336
 9728TIP3    H253380   5.202   6.423   8.681 -0.1189 -0.2301 -1.1242
 9729TIP3   OH253381   4.879   1.151   8.543  0.4184  0.1140  0.0000
 9729TIP3    H153382   4.785   1.164   8.532 -0.1182 -2.8110  0.3935
 9729TIP3    H253383   4.901   1.082   8.481  2.3946  0.9101 -0.2595
 9730TIP3   OH253384   5.033   4.457   7.164 -0.5365 -0.2126  0.2243
 9730TIP3    H153385   4.976   4.533   7.182 -1.6821 -0.6068 -1.4774
 9730TIP3    H253386   4.978   4.398   7.112  1.0790 -1.1552 -0.4867
 9731TIP3   OH253387   0.543   1.887   9.915 -0.3209 -0.8121 -0.3713
 9731TIP3    H153388   0.524   1.957   9.977  0.7185 -0.1077 -0.8191
 9731TIP3    H253389   0.638   1.877   9.918 -0.4565 -2.2541 -0.2750
 9732TIP3   OH253390   6.538   2.248   7.173  0.5488 -0.7021  0.9504
 9732TIP3    H153391   6.450   2.267   7.205 -0.0820 -1.3536 -0.2876
 9732TIP3    H253392   6.592   2.244   7.252 -0.2032  1.2291  1.6239
 9733TIP3   OH253393   5.002   4.992   7.099 -0.0720 -0.0911 -0.3563
 9733TIP3    H153394   4.914   5.016   7.070  0.6975  0.7754 -2.1104
 9733TIP3    H253395   4.988   4.916   7.156 -1.9677  0.2689 -0.2560
 9734TIP3   OH253396   0.247   2.096   7.915  0.1427 -0.2068 -0.2772
 9734TIP3    H153397   0.192   2.170   7.938 -0.8368 -0.6768 -1.0232
 9734TIP3    H253398   0.190   2.020   7.923  0.6499 -0.7020 -1.1388
 9735TIP3   OH253399   6.188   4.286   9.878  0.0031  0.0288  0.2324
 9735TIP3    H153400   6.093   4.288   9.874 -0.0848  2.1800  1.4200
 9735TIP3    H253401   6.213   4.379   9.880  2.0687 -0.4919  0.7887
 9736TIP3   OH253402   2.050   2.862   6.723 -0.3086 -0.1528  0.3122
 9736TIP3    H153403   2.000   2.926   6.672  0.8167 -0.1042 -0.7689
 9736TIP3    H253404   2.141   2.879   6.701  0.0069 -2.7228 -0.7909
 9737TIP3   OH253405   1.028   2.141   9.422 -0.2453 -0.4554  0.9198
 9737TIP3    H153406   1.123   2.127   9.417 -0.3403 -0.9396  0.3200
 9737TIP3    H253407   1.009   2.139   9.515  0.1924 -1.4321  1.0068
 9738TIP3   OH253408   2.380   5.922   8.169 -0.0963 -0.4845 -0.3380
 9738TIP3    H153409   2.460   5.869   8.172 -1.2092 -2.3222 -1.3004
 9738TIP3    H253410   2.337   5.895   8.088 -1.6869  0.4734  0.1476
 9739TIP3   OH253411   1.931   5.773   9.316 -0.0352  0.1142  0.3809
 9739TIP3    H153412   2.009   5.719   9.311 -0.8724 -1.0596 -0.4795
 9739TIP3    H253413   1.873   5.727   9.377 -0.1837  0.8180  0.7894
 9740TIP3   OH253414   6.223   2.812   7.506  0.4445 -0.2501  0.2394
 9740TIP3    H153415   6.179   2.895   7.493 -2.4141 -1.2876  2.2981
 9740TIP3    H253416   6.183   2.752   7.443  1.8416 -0.3521 -0.6112
 9741TIP3   OH253417   0.774   1.611   8.795 -0.1513 -0.3215 -0.2754
 9741TIP3    H153418   0.731   1.648   8.872  0.5715 -0.0741  0.0220
 9741TIP3    H253419   0.780   1.517   8.813 -1.7140 -0.5769 -0.8956
 9742TIP3   OH253420   4.339   5.929   8.841 -0.0981  0.4370 -0.0557
 9742TIP3    H153421   4.342   5.973   8.926  1.8946 -0.1560  0.2453
 9742TIP3    H253422   4.385   5.989   8.782  0.1723  0.0170 -0.2753
 9743TIP3   OH253423   2.028   2.478   7.189  0.2067  0.4374  0.3451
 9743TIP3    H153424   2.092   2.408   7.196  2.3710  2.1792 -0.9544
 9743TIP3    H253425   2.052   2.540   7.258  0.3449  1.4059 -0.5439
 9744TIP3   OH253426   5.749   6.020   8.331  0.2432  0.3025  0.0406
 9744TIP3    H153427   5.735   5.931   8.365  0.3883  0.3231  0.1574
 9744TIP3    H253428   5.739   6.076   8.407 -2.5521  0.6623 -0.4880
 9745TIP3   OH253429   2.096   0.859   7.563  0.0470  0.1516  0.2764
 9745TIP3    H153430   2.152   0.933   7.586 -0.7877  1.0940 -0.6069
 9745TIP3    H253431   2.113   0.844   7.470 -0.5259 -0.1021  0.2099
 9746TIP3   OH253432   0.568   1.991   7.367 -0.3057  0.2390 -0.7320
 9746TIP3    H153433   0.484   1.952   7.393 -1.6378  2.3154 -1.6693
 9746TIP3    H253434   0.603   1.930   7.302 -0.2669 -1.4526  0.7750
 9747TIP3   OH253435   2.191   2.338   7.607  0.5878 -0.3690  0.4172
 9747TIP3    H153436   2.261   2.402   7.624  0.7036 -0.2963 -0.2820
 9747TIP3    H253437   2.212   2.303   7.520 -0.2838 -0.2913  0.1668
 9748TIP3   OH253438   5.896   3.274   9.286  1.0404  0.2173 -0.1698
 9748TIP3    H153439   5.979   3.260   9.239  0.0377  0.6640 -2.1866
 9748TIP3    H253440   5.829   3.260   9.220 -0.3991  3.8893  0.2809
 9749TIP3   OH253441   0.547   2.356   9.731  0.1457  0.1147 -0.8291
 9749TIP3    H153442   0.561   2.450   9.745 -0.8603  0.4928 -2.1307
 9749TIP3    H253443   0.497   2.328   9.807  0.8584  0.5094 -0.1912
 9750TIP3   OH253444   2.229   5.903   6.825 -0.0455 -0.0350  0.4697
 9750TIP3    H153445   2.320   5.880   6.843  0.0808 -0.6712 -0.8557
 9750TIP3    H253446   2.218   5.991   6.861  1.2802  0.3057  0.0899
 9751TIP3   OH253447   0.609   2.744   8.220 -0.5935  0.3808  0.2757
 9751TIP3    H153448   0.698   2.771   8.242 -0.9737  0.3690  2.0073
 9751TIP3    H253449   0.618   2.694   8.139  1.0666 -0.1413  0.7487
 9752TIP3   OH253450   6.583   3.940   7.695 -0.3226 -0.6120  0.2160
 9752TIP3    H153451   6.568   3.988   7.613 -1.1920 -0.5945  0.3774
 9752TIP3    H253452   6.627   4.004   7.751  0.4794 -0.6919 -0.3038
 9753TIP3   OH253453   0.148   2.120   9.353  0.1569 -0.4732  0.1301
 9753TIP3    H153454   0.139   2.154   9.264 -2.1242  0.4391  0.6289
 9753TIP3    H253455   0.241   2.131   9.374  0.8668 -1.2620 -2.3009
 9754TIP3   OH253456   4.976   0.313   7.204 -0.2803 -0.5155  0.0205
 9754TIP3    H153457   4.938   0.319   7.291 -1.3083  0.0285 -0.4410
 9754TIP3    H253458   4.972   0.402   7.170 -2.9832 -1.1845 -1.7938
 9755TIP3   OH253459   5.518   0.020   6.173 -0.5696 -0.5210  0.2002
 9755TIP3    H153460   5.544  -0.062   6.131  1.9270  0.7515 -0.9567
 9755TIP3    H253461   5.567   0.021   6.256  0.3604  0.2746 -0.3312
 9756TIP3   OH253462   1.006   3.374   9.330  0.0918  0.0197 -0.3762
 9756TIP3    H153463   0.931   3.415   9.286 -0.6460 -1.2099 -0.3174
 9756TIP3    H253464   1.076   3.377   9.265 -0.5848 -0.5238 -1.1619
 9757TIP3   OH253465   2.078   6.616   7.957  0.7331  0.4795  0.0112
 9757TIP3    H153466   2.041   6.601   8.044  0.5147  0.7612 -0.0340
 9757TIP3    H253467   2.009   6.589   7.897  2.3234 -3.8812 -0.1939
 9758TIP3   OH253468   5.054   3.394   9.504 -0.0737  0.0771 -0.4567
 9758TIP3    H153469   4.958   3.398   9.505 -0.0301  1.8875 -0.5805
 9758TIP3    H253470   5.078   3.410   9.413  0.3594  0.3478 -0.2974
 9759TIP3   OH253471   6.054   0.133   9.102  0.1350  0.4631 -0.0481
 9759TIP3    H153472   6.035   0.061   9.042  3.6249 -2.1639  1.6162
 9759TIP3    H253473   5.980   0.132   9.163 -1.0706 -0.0608 -1.4550
 9760TIP3   OH253474   0.149   1.220   8.332 -0.1254  0.1487  0.7902
 9760TIP3    H153475   0.199   1.233   8.251  1.0320 -0.3204  1.4030
 9760TIP3    H253476   0.212   1.238   8.401 -0.6914 -0.8766  1.5953
 9761TIP3   OH253477   3.013   6.105   8.809 -0.6071  0.8206 -0.0842
 9761TIP3    H153478   3.039   6.197   8.802 -0.3482  0.9373  1.8534
 9761TIP3    H253479   2.934   6.098   8.756 -0.1325  1.9325 -0.9810
 9762TIP3   OH253480   0.293   5.615   9.325  0.0364 -0.0352 -0.1142
 9762TIP3    H153481   0.312   5.523   9.307  1.8092 -0.3739  2.8611
 9762TIP3    H253482   0.278   5.654   9.239  1.1906 -2.6886 -1.6257
 9763TIP3   OH253483   4.202   1.307   7.288 -0.7615  0.0876  0.3902
 9763TIP3    H153484   4.279   1.251   7.302 -0.0463  0.7932 -0.5738
 9763TIP3    H253485   4.220   1.386   7.339 -0.3662  0.6720 -0.6348
 9764TIP3   OH253486   2.966   0.463   7.953  0.6623 -0.3026 -0.2706
 9764TIP3    H153487   2.877   0.428   7.950  0.6618 -0.2526 -2.5479
 9764TIP3    H253488   3.003   0.441   7.868  2.2088  1.2796 -0.0593
 9765TIP3   OH253489   6.433   2.910   8.815 -0.1400 -0.1310  0.6009
 9765TIP3    H153490   6.430   2.820   8.784  0.8667  0.1815 -0.4708
 9765TIP3    H253491   6.436   2.901   8.911  0.0574 -1.2377  0.5122
 9766TIP3   OH253492   2.013   5.977   7.888 -0.5465  0.2451 -0.0478
 9766TIP3    H153493   1.957   5.997   7.964 -0.5957  1.1587 -0.3093
 9766TIP3    H253494   2.055   5.894   7.911 -2.5398 -0.8640 -0.1419
 9767TIP3   OH253495   1.007   2.191   6.517 -0.1956 -0.1175  0.3983
 9767TIP3    H153496   1.030   2.238   6.597 -1.4406  0.0381  0.6754
 9767TIP3    H253497   1.041   2.247   6.447  0.9650 -0.2897  0.8015
 9768TIP3   OH253498   3.178   4.582   6.902  0.0578 -0.0338 -0.3656
 9768TIP3    H153499   3.111   4.553   6.964 -0.5225  4.5989  1.5156
 9768TIP3    H253500   3.253   4.526   6.921 -1.1099 -0.8731  2.3079
 9769TIP3   OH253501   3.454   0.982   7.291  0.0160  0.4493 -0.4179
 9769TIP3    H153502   3.440   0.915   7.358 -0.2444 -0.9362 -1.7988
 9769TIP3    H253503   3.366   1.012   7.270 -0.1129 -0.6361 -1.5785
 9770TIP3   OH253504   1.484   1.370   7.302 -0.3350 -0.1689  0.2882
 9770TIP3    H153505   1.463   1.332   7.388 -0.2862 -0.3502  0.2213
 9770TIP3    H253506   1.404   1.415   7.275 -0.5722 -0.6676  0.1343
 9771TIP3   OH253507   2.491   3.835   8.821  0.2432 -0.0400 -0.3861
 9771TIP3    H153508   2.507   3.766   8.885  0.1877 -0.9514 -1.3315
 9771TIP3    H253509   2.577   3.873   8.805  0.2125  0.4148  0.4499
 9772TIP3   OH253510   3.983   4.275   7.810  0.4657 -0.2603  0.1282
 9772TIP3    H153511   3.979   4.261   7.715  1.0267 -0.7991  0.1801
 9772TIP3    H253512   4.006   4.190   7.846  0.5733  0.0176  0.7249
 9773TIP3   OH253513   6.115   4.895   7.012 -0.4284 -0.1567  0.0240
 9773TIP3    H153514   6.061   4.919   7.088  1.0365  0.6562  0.8556
 9773TIP3    H253515   6.205   4.915   7.039  0.1561 -0.0418 -1.8547
 9774TIP3   OH253516   2.340   3.495   8.185 -0.3458  0.2785 -0.1132
 9774TIP3    H153517   2.358   3.564   8.122  0.4114  0.8339  0.6907
 9774TIP3    H253518   2.411   3.432   8.173 -1.1611 -0.5166 -1.0089
 9775TIP3   OH253519   1.629   2.852   9.404  0.0499 -0.1105 -0.1617
 9775TIP3    H153520   1.564   2.849   9.333  0.7213  2.0146 -0.9458
 9775TIP3    H253521   1.712   2.871   9.359  0.0763  4.3073  1.2422
 9776TIP3   OH253522   3.447   6.167   8.375 -0.5961 -0.7069 -0.2243
 9776TIP3    H153523   3.391   6.105   8.422 -0.2348 -0.4693  0.5291
 9776TIP3    H253524   3.526   6.117   8.353  1.0240  0.1878  2.9897
 9777TIP3   OH253525   1.642   1.556   7.583  0.8525  0.7611 -0.0792
 9777TIP3    H153526   1.581   1.564   7.657 -0.1548  1.1028 -0.9157
 9777TIP3    H253527   1.704   1.488   7.610 -0.5829 -0.4433  0.3544
 9778TIP3   OH253528   2.202   5.116   9.234 -0.6395  0.0210  0.3917
 9778TIP3    H153529   2.242   5.030   9.238 -0.4407  0.1617  1.7660
 9778TIP3    H253530   2.130   5.106   9.172  0.9340 -0.4587 -1.4721
 9779TIP3   OH253531   6.382   2.898   9.374  0.4285 -0.1713  0.5996
 9779TIP3    H153532   6.303   2.863   9.415  0.2264  1.3275  1.5850
 9779TIP3    H253533   6.448   2.895   9.444  0.1438  2.1955  1.0555
 9780TIP3   OH253534   2.948   0.264   6.977  0.1781 -0.0703 -0.0023
 9780TIP3    H153535   3.002   0.185   6.976  0.5411  0.0359  3.1830
 9780TIP3    H253536   3.010   0.335   6.959  0.2998 -0.2721 -0.4117
 9781TIP3   OH253537   6.625   0.160   6.599  0.6785  0.3558 -0.3206
 9781TIP3    H153538   6.603   0.073   6.634 -0.5012  0.2046 -1.3992
 9781TIP3    H253539   6.631   0.216   6.677 -0.2563 -0.3291  0.2647
 9782TIP3   OH253540   1.214   0.556   9.727 -0.2538  0.0018  0.5577
 9782TIP3    H153541   1.242   0.539   9.817  0.5303  0.2708  0.3732
 9782TIP3    H253542   1.158   0.482   9.705  0.3275 -0.5598  0.9414
 9783TIP3   OH253543   4.378   0.960   9.263  0.9663 -0.3088  0.4492
 9783TIP3    H153544   4.339   0.968   9.350 -0.6047 -1.9520 -0.0633
 9783TIP3    H253545   4.471   0.945   9.280  1.1545  1.8186  1.7409
 9784TIP3   OH253546   3.848   5.419   6.765 -0.1424 -0.3957  1.1806
 9784TIP3    H153547   3.874   5.346   6.823  0.5965  1.0654  2.7876
 9784TIP3    H253548   3.893   5.495   6.801 -2.4600  1.2689  0.7871
 9785TIP3   OH253549   4.917   3.903   8.377 -0.0505 -0.3875  0.2629
 9785TIP3    H153550   4.876   3.914   8.291 -0.3027 -0.7241  0.3404
 9785TIP3    H253551   4.966   3.821   8.370 -0.2812 -0.5472  0.5267
 9786TIP3   OH253552   0.399   2.111   7.685  0.5047  0.2934  0.2932
 9786TIP3    H153553   0.345   2.103   7.763 -0.2190  0.1956 -0.2092
 9786TIP3    H253554   0.404   2.022   7.650 -1.5940  0.7371 -1.3470
 9787TIP3   OH253555   2.539   5.787   8.720  0.3569 -0.5316  0.3815
 9787TIP3    H153556   2.498   5.700   8.722 -1.3146  0.2004 -0.2421
 9787TIP3    H253557   2.509   5.829   8.801 -0.9313  0.3211 -0.4946
 9788TIP3   OH253558   5.319   2.051   7.651 -0.1574 -0.1565 -0.1293
 9788TIP3    H153559   5.277   1.977   7.694  1.4545  0.2404  2.3013
 9788TIP3    H253560   5.341   2.019   7.563 -0.9170 -2.0042  0.3197
 9789TIP3   OH253561   2.723   1.096   8.406 -0.5028 -0.0082  0.6247
 9789TIP3    H153562   2.736   1.007   8.376  0.0360 -0.5110  2.2128
 9789TIP3    H253563   2.810   1.136   8.402 -0.8651  0.6855 -0.7376
 9790TIP3   OH253564   0.596   2.777   9.370  0.2207  0.5177 -0.8063
 9790TIP3    H153565   0.679   2.816   9.340  1.3686 -1.7792 -0.8122
 9790TIP3    H253566   0.568   2.722   9.298  1.3102 -2.5198  0.8766
 9791TIP3   OH253567   4.002   1.934   7.576 -0.1407 -0.1433  0.6504
 9791TIP3    H153568   3.944   1.963   7.506  2.0756  0.1563 -1.1734
 9791TIP3    H253569   4.046   2.014   7.606 -0.5936 -0.3647  1.9809
 9792TIP3   OH253570   0.428   2.051   9.688  0.5304  0.0631 -0.2358
 9792TIP3    H153571   0.502   2.074   9.633  0.6717  0.6152  0.1741
 9792TIP3    H253572   0.466   2.000   9.759  0.2824 -1.0654 -0.8901
 9793TIP3   OH253573   2.775   2.013   6.696  0.1959 -0.1527 -0.0703
 9793TIP3    H153574   2.843   1.985   6.635  0.1648  0.4582 -0.3952
 9793TIP3    H253575   2.693   1.979   6.658  0.0845  0.8862 -0.7975
 9794TIP3   OH253576   4.262   2.076   8.306  0.2560 -0.0153 -0.0286
 9794TIP3    H153577   4.237   2.010   8.370  0.2671  0.4550  0.4770
 9794TIP3    H253578   4.250   2.034   8.221  0.6822 -0.8058  0.2907
 9795TIP3   OH253579   0.924   0.813   9.015 -0.0541 -0.2645 -0.1562
 9795TIP3    H153580   0.930   0.748   9.085  1.6482  0.8286  0.7880
 9795TIP3    H253581   0.914   0.762   8.935 -0.6665 -1.5992  0.7304
 9796TIP3   OH253582   1.939   4.990   7.014 -0.7269 -0.0883  0.3185
 9796TIP3    H153583   1.894   4.922   6.963 -1.2244  0.4010  0.0950
 9796TIP3    H253584   2.032   4.964   7.010 -1.0034 -1.2692  1.0387
 9797TIP3   OH253585   5.899   2.025   7.686  0.0050 -0.1610 -0.3176
 9797TIP3    H153586   5.863   1.995   7.770 -0.9402 -0.8478 -0.9381
 9797TIP3    H253587   5.822   2.040   7.631  0.6095  0.2385 -1.0822
 9798TIP3   OH253588   3.289   5.212   7.718  0.5745  0.4296 -0.2925
 9798TIP3    H153589   3.295   5.195   7.624  1.1994 -3.1698  0.2563
 9798TIP3    H253590   3.195   5.217   7.735  0.4188 -0.3571 -0.8962
 9799TIP3   OH253591   1.428   6.254   9.291 -0.0250 -0.1211  0.8135
 9799TIP3    H153592   1.453   6.252   9.198 -0.8755 -0.1910  0.5770
 9799TIP3    H253593   1.468   6.176   9.328  1.4171  0.5912  0.8082
 9800TIP3   OH253594   4.741   5.144   8.436 -0.0456  0.3565 -0.1416
 9800TIP3    H153595   4.679   5.080   8.468 -0.2516 -0.6086 -2.3044
 9800TIP3    H253596   4.810   5.146   8.502 -0.6267 -1.2149  0.5505
 9801TIP3   OH253597   1.872   5.252   6.925 -0.5034  0.2875  0.0665
 9801TIP3    H153598   1.879   5.178   6.986  1.5597  0.2151 -0.1702
 9801TIP3    H253599   1.902   5.216   6.841 -1.4131  0.8998 -0.5385
 9802TIP3   OH253600   6.597   2.708   7.681 -0.1680 -0.4164  0.1032
 9802TIP3    H153601   6.555   2.751   7.755  2.2412  3.0681 -0.3154
 9802TIP3    H253602   6.609   2.777   7.616  0.9338 -2.5548 -2.1374
 9803TIP3   OH253603   1.236   2.071   8.262  0.2040 -0.1363  0.1429
 9803TIP3    H153604   1.223   1.977   8.249  1.2639 -0.0130 -2.2291
 9803TIP3    H253605   1.212   2.111   8.179  0.9444  1.5697  0.6996
 9804TIP3   OH253606   1.676   3.510   8.202  0.3628  0.2181 -0.2622
 9804TIP3    H153607   1.704   3.586   8.152  0.5874 -0.6188 -1.4675
 9804TIP3    H253608   1.627   3.545   8.276 -0.8375  1.4723 -1.6157
 9805TIP3   OH253609   5.664   4.548   7.715 -0.0562  0.0233 -0.5209
 9805TIP3    H153610   5.618   4.569   7.796  1.2718 -0.1337  0.3122
 9805TIP3    H253611   5.607   4.580   7.645 -0.3638  1.9243  0.5396
 9806TIP3   OH253612   1.822   6.529   8.443 -0.4493  0.1231 -0.1199
 9806TIP3    H153613   1.900   6.529   8.499  0.5541  0.1371 -1.4745
 9806TIP3    H253614   1.759   6.476   8.491  0.5500 -0.2904  0.7967
 9807TIP3   OH253615   4.363   5.469   9.399 -0.1146 -0.1684 -0.0403
 9807TIP3    H153616   4.365   5.523   9.478 -0.3456 -0.6410  0.2929
 9807TIP3    H253617   4.452   5.476   9.363  1.2114 -2.8729  2.2783
 9808TIP3   OH253618   3.169   1.508   8.965 -0.2119 -0.0427  0.4006
 9808TIP3    H153619   3.238   1.529   8.902 -0.9391 -0.3007 -0.5009
 9808TIP3    H253620   3.175   1.413   8.976 -1.5796 -0.3461 -1.1060
 9809TIP3   OH253621   1.638   2.771   8.656 -0.0681  0.1846 -0.3811
 9809TIP3    H153622   1.637   2.676   8.643  0.4104  0.0004  0.7593
 9809TIP3    H253623   1.609   2.782   8.747  3.0945  0.8849  0.6669
 9810TIP3   OH253624   1.953   2.951   7.722 -0.0056 -0.5056 -0.2996
 9810TIP3    H153625   1.967   2.942   7.628  2.0584  0.6528 -0.1660
 9810TIP3    H253626   2.034   2.921   7.762 -0.4323  0.0568  1.0586
 9811TIP3   OH253627   0.991   3.760   8.151  0.0214 -0.1830 -0.1832
 9811TIP3    H153628   1.024   3.765   8.062  0.5836 -1.1510 -0.0454
 9811TIP3    H253629   0.917   3.699   8.145  2.0244 -2.8566  0.5087
 9812TIP3   OH253630   3.645   3.154   9.095 -0.2616 -0.1079 -0.3970
 9812TIP3    H153631   3.551   3.136   9.101 -0.4553  0.9244 -0.2165
 9812TIP3    H253632   3.663   3.154   9.001 -0.6824  0.8423 -0.4867
 9813TIP3   OH253633   6.447   4.188   8.108  0.2135 -0.4132 -0.7297
 9813TIP3    H153634   6.427   4.115   8.168  1.0444  2.1329  3.0464
 9813TIP3    H253635   6.526   4.228   8.145  0.2349  1.9517 -3.0698
 9814TIP3   OH253636   1.443   2.082   6.720 -0.4172 -0.1686 -0.2868
 9814TIP3    H153637   1.463   2.170   6.687 -0.2884  0.4167  1.2792
 9814TIP3    H253638   1.499   2.072   6.796 -1.5291 -1.0233  0.4414
 9815TIP3   OH253639   5.906   0.412   6.221 -0.1554 -0.5538  0.6525
 9815TIP3    H153640   5.907   0.330   6.271 -0.5906 -0.5300  0.7076
 9815TIP3    H253641   5.974   0.401   6.155 -0.2704 -0.9963  0.6025
 9816TIP3   OH253642   1.534   6.031   8.456  0.0990  0.5737  0.4929
 9816TIP3    H153643   1.599   6.094   8.425 -0.1493  1.3214  1.4345
 9816TIP3    H253644   1.577   5.987   8.529 -0.8467  1.9964  1.9953
 9817TIP3   OH253645   4.685   5.482   7.857  0.2685  0.7627  0.0978
 9817TIP3    H153646   4.766   5.469   7.808  0.6996  1.2010  0.6882
 9817TIP3    H253647   4.692   5.420   7.930 -0.4420 -0.0009 -0.4581
 9818TIP3   OH253648   4.906   3.130   8.787 -0.4879  0.3006 -0.0739
 9818TIP3    H153649   4.940   3.155   8.701 -2.7554 -1.5965 -1.6304
 9818TIP3    H253650   4.850   3.203   8.814 -0.8646  0.3091 -0.8661
 9819TIP3   OH253651   5.335   5.419   9.050 -0.6855 -0.0534 -0.3329
 9819TIP3    H153652   5.274   5.453   8.985  1.0624  1.4873 -1.2498
 9819TIP3    H253653   5.413   5.396   9.000  0.7528  1.2816  1.2181
 9820TIP3   OH253654   2.714   1.331   7.660 -0.3707  0.5408  0.1569
 9820TIP3    H153655   2.799   1.363   7.687 -0.4065  0.6344  0.1589
 9820TIP3    H253656   2.666   1.409   7.632 -1.8449  1.1447  3.7509
 9821TIP3   OH253657   1.029   5.556   8.163 -0.6349  0.1821 -0.3272
 9821TIP3    H153658   0.952   5.612   8.175  0.0907  1.3388 -0.9202
 9821TIP3    H253659   0.994   5.467   8.167 -2.2809  0.6616 -2.1220
 9822TIP3   OH253660   1.647   2.054   7.962  0.0003  0.1013 -0.3363
 9822TIP3    H153661   1.665   2.133   7.912  0.7130  0.2110  0.0834
 9822TIP3    H253662   1.583   2.081   8.029  0.6451  0.4570  0.1470
 9823TIP3   OH253663   0.278   6.657   8.136 -0.0965  0.0076  0.0515
 9823TIP3    H153664   0.345   6.669   8.069 -1.1837  0.1667 -1.0374
 9823TIP3    H253665   0.311   6.705   8.212  1.8627 -1.3976  0.1642
 9824TIP3   OH253666   2.536   1.947   6.587 -0.4016  0.1813  0.1513
 9824TIP3    H153667   2.448   1.982   6.600 -0.6211 -0.7189  1.3852
 9824TIP3    H253668   2.524   1.875   6.525 -1.0167 -1.5350  2.1419
 9825TIP3   OH253669   4.381   1.989  10.096 -0.5123 -0.0421  0.0307
 9825TIP3    H153670   4.392   2.074  10.137  0.0095 -0.3868  0.6251
 9825TIP3    H253671   4.375   2.008  10.002 -1.0006  0.6920  0.2000
 9826TIP3   OH253672   5.491   2.431   7.239 -0.1134 -1.0277 -0.0090
 9826TIP3    H153673   5.402   2.458   7.218  0.4289 -0.3579 -1.5048
 9826TIP3    H253674   5.548   2.492   7.192  1.1607 -1.2781  1.1168
 9827TIP3   OH253675   5.117   6.603   8.981  0.3503 -0.0778 -0.3084
 9827TIP3    H153676   5.091   6.626   9.070 -0.4917  0.5843 -0.7105
 9827TIP3    H253677   5.178   6.530   8.992 -0.1097 -0.3135  0.7834
 9828TIP3   OH253678   4.861   4.766   7.616 -0.4387  0.0875 -0.0968
 9828TIP3    H153679   4.929   4.728   7.561  0.1526  0.1876  0.5453
 9828TIP3    H253680   4.785   4.774   7.559 -0.2670 -1.0957 -0.5162
 9829TIP3   OH253681   6.191   2.194   6.859 -0.0021 -0.3341  0.4421
 9829TIP3    H153682   6.173   2.144   6.939  1.3182 -0.1201  0.8999
 9829TIP3    H253683   6.106   2.228   6.832 -0.3257  0.5926  2.4471
 9830TIP3   OH253684   2.459   2.557   9.462 -0.2138  0.0790  0.1696
 9830TIP3    H153685   2.518   2.537   9.389  1.0741 -1.4627  1.5505
 9830TIP3    H253686   2.444   2.651   9.455  0.4964  0.1081 -1.6053
 9831TIP3   OH253687   6.174   3.663   6.681 -0.2875 -0.0661  0.4638
 9831TIP3    H153688   6.161   3.751   6.717  0.6969  0.0059  0.6793
 9831TIP3    H253689   6.268   3.647   6.691 -0.1832 -0.5229 -0.9926
 9832TIP3   OH253690   6.608   4.005   9.255  0.8748 -0.0935 -0.3604
 9832TIP3    H153691   6.616   4.095   9.287  0.4954  0.7805 -2.5251
 9832TIP3    H253692   6.684   3.960   9.290  0.9684  1.0057  0.9286
 9833TIP3   OH253693   1.787   5.619   7.564  0.3787  0.2697  0.3829
 9833TIP3    H153694   1.707   5.612   7.513  1.5399 -0.4449 -1.4742
 9833TIP3    H253695   1.783   5.706   7.604 -0.4111  1.0548 -1.3029
 9834TIP3   OH253696   2.156   2.600   7.394 -0.0306  0.3660 -0.1474
 9834TIP3    H153697   2.133   2.656   7.468 -0.7672 -1.0927  0.7889
 9834TIP3    H253698   2.250   2.589   7.400  0.0302  0.9585  0.0504
 9835TIP3   OH253699   6.546   1.300   8.617 -0.3201 -0.6205 -0.1036
 9835TIP3    H153700   6.575   1.232   8.557  0.0040  0.6365 -1.4227
 9835TIP3    H253701   6.473   1.260   8.665  1.5344 -2.7978  1.1300
 9836TIP3   OH253702   5.961   0.219   8.753  0.0463 -0.1427  0.0541
 9836TIP3    H153703   5.896   0.181   8.812 -0.3549 -1.1914 -1.0059
 9836TIP3    H253704   5.914   0.230   8.670  0.4981  1.6141  0.0040
 9837TIP3   OH253705   6.664   2.223   9.375  0.0717  0.1986  0.0764
 9837TIP3    H153706   6.612   2.169   9.315 -0.4564  1.1885 -0.3771
 9837TIP3    H253707   6.741   2.169   9.395 -0.3773 -0.6686 -0.4585
 9838TIP3   OH253708   5.058   1.296   7.657  0.7580  0.4644 -0.0877
 9838TIP3    H153709   5.127   1.255   7.710 -0.3958  0.0725  1.1543
 9838TIP3    H253710   5.063   1.249   7.573  0.1763 -1.5631  0.9336
 9839TIP3   OH253711   1.039   5.174   8.697  0.1060  0.3505  0.3591
 9839TIP3    H153712   0.990   5.145   8.774 -0.5769  0.6180  0.0354
 9839TIP3    H253713   1.091   5.247   8.729  2.1559 -1.3999  1.2834
 9840TIP3   OH253714   2.732   5.252   9.483  0.5318 -0.0807  0.0481
 9840TIP3    H153715   2.638   5.240   9.478  0.6982 -1.2287 -0.4765
 9840TIP3    H253716   2.744   5.347   9.472 -0.5211  0.0245 -0.3235
 9841TIP3   OH253717   2.678   2.704   9.204  0.3471 -0.1394 -0.4164
 9841TIP3    H153718   2.690   2.702   9.299  0.8576  1.1520 -0.4396
 9841TIP3    H253719   2.623   2.628   9.186 -0.5752  0.1366  1.0316
 9842TIP3   OH253720   0.487   4.184   6.794  0.2626 -0.0718 -0.6436
 9842TIP3    H153721   0.478   4.117   6.726  1.8600 -2.0269  0.9225
 9842TIP3    H253722   0.441   4.147   6.869  2.2789 -0.0970  0.6572
 9843TIP3   OH253723   5.707   6.250   6.674 -0.3217 -0.0656 -0.1003
 9843TIP3    H153724   5.638   6.194   6.710 -0.9843  1.6188  1.3404
 9843TIP3    H253725   5.780   6.241   6.736 -0.8201  1.4590  0.7384
 9844TIP3   OH253726   2.422   0.797   7.520 -0.1271  0.2292  0.1033
 9844TIP3    H153727   2.479   0.737   7.569  1.6626  0.8490 -1.0953
 9844TIP3    H253728   2.426   0.765   7.430  1.3443  2.3993 -0.6814
 9845TIP3   OH253729   0.350   6.479   8.440 -0.0237  0.8178 -0.3900
 9845TIP3    H153730   0.410   6.541   8.398  0.3743  0.9751  0.3846
 9845TIP3    H253731   0.366   6.490   8.534  0.3688 -0.7533 -0.2423
 9846TIP3   OH253732   6.703   0.593  10.012  0.0716 -0.0583  0.0334
 9846TIP3    H153733   6.663   0.677   9.988 -0.5002  0.6010  2.9124
 9846TIP3    H253734   6.766   0.576   9.943 -1.1204  1.7926 -1.6219
 9847TIP3   OH253735   3.678   6.716   8.646  0.6963 -0.4351  0.2741
 9847TIP3    H153736   3.758   6.765   8.661  2.2763 -2.7320 -0.0734
 9847TIP3    H253737   3.608   6.778   8.663  2.5161  2.2913 -1.4429
 9848TIP3   OH253738   0.100   3.011   8.780  0.6404  0.2415  0.4894
 9848TIP3    H153739   0.152   3.083   8.744  2.2315 -2.0024 -2.1540
 9848TIP3    H253740   0.160   2.966   8.839  0.5876 -0.4011  0.0639
 9849TIP3   OH253741   4.217   0.253   6.667  0.2985  0.0130  0.1520
 9849TIP3    H153742   4.217   0.233   6.761  4.7328 -0.0463  0.3619
 9849TIP3    H253743   4.246   0.172   6.625 -1.5453  0.0633 -1.3437
 9850TIP3   OH253744   1.379   1.719   9.108 -0.4860  0.3452  0.5339
 9850TIP3    H153745   1.419   1.723   9.194  2.3856 -0.2874 -0.6340
 9850TIP3    H253746   1.352   1.809   9.089 -0.7708  0.5601  1.9200
 9851TIP3   OH253747   2.991   5.060   6.460 -0.2103 -0.4954  0.1805
 9851TIP3    H153748   2.944   5.143   6.455 -0.3052 -0.5689 -0.1147
 9851TIP3    H253749   2.931   5.001   6.504 -1.3647 -1.2701 -2.2697
 9852TIP3   OH253750   2.299   1.657   8.896 -0.7559 -0.0562  0.7383
 9852TIP3    H153751   2.394   1.658   8.903 -0.7776  0.7925  1.0710
 9852TIP3    H253752   2.275   1.749   8.886 -1.3679 -0.4047 -1.9743
 9853TIP3   OH253753   5.003   4.665   9.422  0.0626 -0.2611  0.0804
 9853TIP3    H153754   4.949   4.602   9.469  0.3024 -1.0270 -0.6690
 9853TIP3    H253755   4.945   4.740   9.408 -1.2556 -1.5302 -1.7908
 9854TIP3   OH253756   5.760   1.867   8.353 -0.2693  0.0668 -0.4175
 9854TIP3    H153757   5.835   1.863   8.293  1.3365 -2.0716  1.5403
 9854TIP3    H253758   5.712   1.786   8.338 -1.3601  0.7261 -0.5942
 9855TIP3   OH253759   0.494   2.253   6.780 -0.2144  0.2699 -0.0785
 9855TIP3    H153760   0.479   2.206   6.862 -1.3684 -0.5576 -0.7281
 9855TIP3    H253761   0.517   2.185   6.716 -1.9402  0.5213 -1.0406
 9856TIP3   OH253762   5.433   2.027   7.410 -0.0103 -0.5395  0.2880
 9856TIP3    H153763   5.350   2.064   7.381  1.0471 -0.0551 -2.3248
 9856TIP3    H253764   5.446   1.950   7.356  0.8604 -1.1177  1.2659
 9857TIP3   OH253765   3.757   5.789   7.701 -0.0504  0.2465 -0.2173
 9857TIP3    H153766   3.741   5.774   7.607 -0.3941  0.4551 -0.1918
 9857TIP3    H253767   3.843   5.832   7.703  1.6119 -2.8288 -0.2106
 9858TIP3   OH253768   2.581   3.848   7.060  0.2639 -0.1528  0.4323
 9858TIP3    H153769   2.605   3.936   7.031 -0.0411 -0.7986 -2.0530
 9858TIP3    H253770   2.651   3.823   7.120  0.1649  1.8846  1.4690
 9859TIP3   OH253771   3.048   4.952   8.880  0.5035  0.1641  0.0116
 9859TIP3    H153772   3.005   4.888   8.823 -0.6112  1.2021 -0.3649
 9859TIP3    H253773   3.004   4.943   8.964  2.1681 -1.3870  0.7735
 9860TIP3   OH253774   6.350   1.906   8.961 -0.0943 -0.7682 -0.1347
 9860TIP3    H153775   6.364   1.998   8.938  1.5192 -0.8877  0.2806
 9860TIP3    H253776   6.266   1.906   9.007  0.3676  0.6616  0.7804
 9861TIP3   OH253777   1.633   1.272   8.262  0.2106  0.5534  0.4333
 9861TIP3    H153778   1.569   1.301   8.327 -0.1073 -0.8052  0.7663
 9861TIP3    H253779   1.640   1.345   8.200 -3.2205  0.0511 -0.7611
 9862TIP3   OH253780   6.752   0.372   9.287 -0.5347  0.6625  0.1880
 9862TIP3    H153781   6.674   0.341   9.240 -0.6753 -1.3775  1.6124
 9862TIP3    H253782   6.736   0.465   9.301 -2.6847  0.3292  0.3308
 9863TIP3   OH253783   1.906   6.161   8.960  0.3131  0.1645  0.3124
 9863TIP3    H153784   1.975   6.206   9.010 -0.7106  0.6296  1.3682
 9863TIP3    H253785   1.825   6.188   9.003 -0.4556 -1.3187 -0.1516
 9864TIP3   OH253786   1.062   2.078   9.682  1.1233  0.0147 -0.6236
 9864TIP3    H153787   1.049   2.046   9.771  1.8544 -0.4387 -0.6741
 9864TIP3    H253788   1.119   2.155   9.693  3.9633 -1.8973 -0.9124
 9865TIP3   OH253789   0.927   4.002   6.934  0.6220  0.1229 -0.3217
 9865TIP3    H153790   0.979   3.982   6.855  0.4042  0.2812 -0.5070
 9865TIP3    H253791   0.977   3.964   7.006 -0.7168 -2.8196 -0.8174
 9866TIP3   OH253792   4.123   1.162   7.661  0.1484  0.1762  0.0174
 9866TIP3    H153793   4.209   1.120   7.662  1.2009  2.1928  0.1126
 9866TIP3    H253794   4.098   1.166   7.754  0.9883  1.4798  0.2202
 9867TIP3   OH253795   0.826   3.169   6.561  0.1077 -0.2047 -0.5131
 9867TIP3    H153796   0.798   3.104   6.625 -3.5375 -0.1737 -1.8388
 9867TIP3    H253797   0.858   3.118   6.487  0.4289 -0.3709 -0.2596
 9868TIP3   OH253798   5.879   5.964   9.236  0.0392  0.2769 -0.0191
 9868TIP3    H153799   5.856   6.005   9.153  1.1635  0.0549 -0.4653
 9868TIP3    H253800   5.930   6.030   9.282  1.0021 -0.2274 -0.3159
 9869TIP3   OH253801   6.277   0.231   7.324  0.6638  0.4880  0.0752
 9869TIP3    H153802   6.350   0.169   7.326 -0.1910 -0.5471  0.0621
 9869TIP3    H253803   6.258   0.247   7.417  1.1354  1.0449  0.0795
 9870TIP3   OH253804   2.902   4.187   8.128  0.1568 -0.4251  0.1856
 9870TIP3    H153805   2.881   4.171   8.220 -1.0446 -3.0369 -0.4554
 9870TIP3    H253806   2.818   4.196   8.085  0.7216  1.5789 -0.6045
 9871TIP3   OH253807   2.197   4.967   7.725 -0.5949  0.0534  0.5578
 9871TIP3    H153808   2.148   4.988   7.646 -0.0776  2.3426  0.7859
 9871TIP3    H253809   2.134   4.977   7.796 -0.5249  0.1494  0.6075
 9872TIP3   OH253810   4.978   3.698  10.497  0.0846 -0.6822  0.1922
 9872TIP3    H153811   4.980   3.745  10.581 -0.4194 -1.6085  0.7311
 9872TIP3    H253812   4.891   3.715  10.461  0.6449  0.5643 -0.6636
 9873TIP3   OH253813   1.328   2.920   7.689  0.1173  0.1847  0.3837
 9873TIP3    H153814   1.253   2.861   7.686  0.1196  0.0898  1.7514
 9873TIP3    H253815   1.302   2.991   7.748 -0.2428  2.1100 -1.9175
 9874TIP3   OH253816   0.823   5.807   8.013 -0.1970 -0.0131 -0.3857
 9874TIP3    H153817   0.811   5.785   8.105  1.8047  1.5845  0.3476
 9874TIP3    H253818   0.838   5.724   7.969  0.3572 -0.6757  1.0172
 9875TIP3   OH253819   6.076   5.707   9.043 -0.2633 -0.0068  0.4093
 9875TIP3    H153820   6.163   5.725   9.078 -0.6262  0.4809  1.0664
 9875TIP3    H253821   6.074   5.612   9.032  0.0763 -0.1018  1.1291
 9876TIP3   OH253822   5.113   6.696   7.444 -0.3951  0.3026 -0.0517
 9876TIP3    H153823   5.073   6.648   7.516 -0.4778 -1.2707 -1.0941
 9876TIP3    H253824   5.144   6.777   7.483 -1.6213  0.0831  1.4709
 9877TIP3   OH253825   5.721   1.887   7.030  0.1900 -0.3743  0.1950
 9877TIP3    H153826   5.773   1.904   7.108 -0.8052 -0.4733  0.9098
 9877TIP3    H253827   5.718   1.792   7.023  1.5624 -0.3549 -0.8749
 9878TIP3   OH253828   3.348   1.101   8.400  0.0821 -0.4604 -0.2266
 9878TIP3    H153829   3.429   1.049   8.397  0.9859  0.9232 -1.3617
 9878TIP3    H253830   3.367   1.171   8.463 -1.2163 -1.5710  1.4878
 9879TIP3   OH253831   3.867   1.480   8.414  0.1600  0.5529 -0.3445
 9879TIP3    H153832   3.960   1.461   8.398  0.7232  1.4834  1.4998
 9879TIP3    H253833   3.826   1.472   8.328  1.4033 -2.6532 -0.7844
 9880TIP3   OH253834   3.730   4.717  10.259 -0.6903 -0.0719 -0.0994
 9880TIP3    H153835   3.816   4.677  10.264 -0.3772  0.6402  0.3799
 9880TIP3    H253836   3.744   4.798  10.209 -0.4371  1.6271  2.5293
 9881TIP3   OH253837   1.931   2.646   8.790 -0.1228  0.5593  0.2529
 9881TIP3    H153838   1.959   2.735   8.812  2.1772 -0.5205  2.2250
 9881TIP3    H253839   1.840   2.642   8.820 -0.2528  2.2061  0.2154
 9882TIP3   OH253840   6.328   0.934   9.614 -0.3967 -0.1706  0.2816
 9882TIP3    H153841   6.421   0.951   9.599 -0.2826 -1.3465 -0.5194
 9882TIP3    H253842   6.303   0.994   9.684  0.6588  1.0508 -0.3373
 9883TIP3   OH253843   2.999   2.093   6.432 -0.0649 -0.6257 -0.2232
 9883TIP3    H153844   2.949   2.086   6.351  1.5556 -2.5010 -1.1518
 9883TIP3    H253845   2.999   2.004   6.469 -2.1876  0.4778  2.8305
 9884TIP3   OH253846   0.993   4.871   9.307 -0.3158  0.0984  0.3565
 9884TIP3    H153847   0.953   4.920   9.379 -0.6578 -0.3650  0.4874
 9884TIP3    H253848   1.049   4.807   9.350 -2.5396 -1.9861  0.3686
 9885TIP3   OH253849   5.127   1.593   7.745 -0.1640 -0.3140  0.4452
 9885TIP3    H153850   5.181   1.576   7.823 -2.4292 -0.5127  2.0704
 9885TIP3    H253851   5.132   1.513   7.694  2.8725  0.4548 -0.7018
 9886TIP3   OH253852   4.169   3.022   8.237 -0.5536 -0.0095 -0.0625
 9886TIP3    H153853   4.227   3.066   8.176  1.4408 -0.9353  1.0848
 9886TIP3    H253854   4.180   2.929   8.220 -1.0185 -0.2391  0.7795
 9887TIP3   OH253855   0.616   3.954   8.105 -0.1158  0.1827 -0.5387
 9887TIP3    H153856   0.696   3.931   8.057  1.1584  1.1554  1.0183
 9887TIP3    H253857   0.626   3.912   8.190 -2.0651 -1.0194 -0.8413
 9888TIP3   OH253858   3.906   1.531   8.969  0.4079 -0.1462  0.2450
 9888TIP3    H153859   3.923   1.503   8.879 -0.3151  0.2360 -0.0209
 9888TIP3    H253860   3.929   1.455   9.023 -0.2369 -0.7749 -0.3472
 9889TIP3   OH253861   5.626   3.409  10.266 -0.1968  0.0836  0.7890
 9889TIP3    H153862   5.688   3.382  10.334 -0.0871  1.1225  1.1207
 9889TIP3    H253863   5.651   3.358  10.189  1.5603  0.9866  0.6981
 9890TIP3   OH253864   6.213   6.428   7.120 -0.0515  0.1642 -0.1099
 9890TIP3    H153865   6.129   6.457   7.086 -0.7058 -2.1402 -0.6428
 9890TIP3    H253866   6.191   6.367   7.190  1.0309 -2.1249 -1.6285
 9891TIP3   OH253867   0.640   4.964   7.403 -0.1288 -0.4407 -0.0949
 9891TIP3    H153868   0.577   5.033   7.387  0.1652 -0.3177 -0.7372
 9891TIP3    H253869   0.657   4.926   7.317  2.1898  0.8547 -0.2825
 9892TIP3   OH253870   4.469   2.285   7.805 -0.0993 -0.4974 -0.4739
 9892TIP3    H153871   4.557   2.268   7.772 -0.0432  0.6178 -0.9492
 9892TIP3    H253872   4.470   2.253   7.895 -0.5322 -4.5082 -1.6960
 9893TIP3   OH253873   2.334   4.190   9.145 -0.1194 -0.0688 -0.2161
 9893TIP3    H153874   2.337   4.115   9.205 -2.3653 -0.3354 -0.3557
 9893TIP3    H253875   2.300   4.154   9.063 -0.0606  0.8760 -0.6706
 9894TIP3   OH253876   3.059   1.484   8.013  0.0703 -0.1219  0.5082
 9894TIP3    H153877   3.080   1.568   8.054  0.1800 -0.5899  1.4269
 9894TIP3    H253878   3.144   1.444   7.997  0.2352  1.2173 -2.7870
 9895TIP3   OH253879   0.281   2.963   9.635 -0.4090  0.2549  0.0602
 9895TIP3    H153880   0.258   3.007   9.553  0.1619 -0.1785 -0.3388
 9895TIP3    H253881   0.376   2.967   9.638 -0.4729  1.8509  1.5817
 9896TIP3   OH253882   5.720   6.242   9.201  0.2043 -0.4868  0.3678
 9896TIP3    H153883   5.752   6.201   9.281  0.2678  0.5774  0.9161
 9896TIP3    H253884   5.791   6.301   9.175 -0.1552 -0.2057  0.0095
 9897TIP3   OH253885   1.365   6.020   8.156  0.8061 -0.1930  0.0769
 9897TIP3    H153886   1.323   5.964   8.221  0.5002  2.3722  2.2955
 9897TIP3    H253887   1.322   5.998   8.074 -0.2901 -2.1347  1.0976
 9898TIP3   OH253888   1.054   4.355   7.325 -0.0632 -0.6669 -0.2125
 9898TIP3    H153889   1.043   4.312   7.240  1.3485  1.1358 -1.3788
 9898TIP3    H253890   1.063   4.448   7.304  0.8957 -0.2263  1.8844
 9899TIP3   OH253891   2.069   0.695   6.883  0.1939  0.1728 -0.4271
 9899TIP3    H153892   1.993   0.694   6.941  0.4345  0.4566 -0.1088
 9899TIP3    H253893   2.049   0.762   6.818  0.1471  0.2040 -0.3803
 9900TIP3   OH253894   3.551   4.747   6.915  0.6770 -0.3249  0.2137
 9900TIP3    H153895   3.465   4.788   6.926  0.6634 -0.4609  0.6545
 9900TIP3    H253896   3.614   4.818   6.929  0.6355 -0.0396 -0.9424
 9901TIP3   OH253897   5.199   1.682   9.266  0.8212  0.3062 -0.5290
 9901TIP3    H153898   5.248   1.672   9.347  1.0296 -1.0853 -0.8125
 9901TIP3    H253899   5.265   1.697   9.199  0.8278 -0.8086 -0.7886
 9902TIP3   OH253900   2.304   1.167   8.131  0.7962 -1.1029  0.0326
 9902TIP3    H153901   2.369   1.146   8.064  1.1555  0.6445 -0.1986
 9902TIP3    H253902   2.235   1.212   8.084  1.1339  0.3057  0.8465
 9903TIP3   OH253903   5.643   1.487   8.196  0.4448  0.2973  0.4394
 9903TIP3    H153904   5.602   1.516   8.115  1.5459 -0.8637 -0.5595
 9903TIP3    H253905   5.606   1.545   8.263 -1.4400  0.4676 -0.6718
 9904TIP3   OH253906   0.215   3.617   9.837 -0.4417  0.0490  0.2973
 9904TIP3    H153907   0.181   3.632   9.749  0.0978  1.4150  0.2895
 9904TIP3    H253908   0.288   3.556   9.825 -1.0759 -0.6531 -0.0445
 9905TIP3   OH253909   1.126   2.392   9.303  0.4679 -0.8371  0.2894
 9905TIP3    H153910   1.082   2.309   9.321  0.5778 -1.0285 -0.2757
 9905TIP3    H253911   1.057   2.457   9.302  0.3825 -0.9235  0.7523
 9906TIP3   OH253912   5.734   6.598   7.672 -0.3877  0.3544  0.0485
 9906TIP3    H153913   5.774   6.581   7.587  1.1103  0.2044  0.7506
 9906TIP3    H253914   5.645   6.625   7.651 -0.2430 -0.2615 -1.5320
 9907TIP3   OH253915   1.451   1.291   7.564 -0.2792 -0.1407 -0.4687
 9907TIP3    H153916   1.520   1.232   7.593 -1.1334 -1.0568 -0.2437
 9907TIP3    H253917   1.450   1.361   7.629  0.5931  0.0184 -0.6131
 9908TIP3   OH253918   4.760   2.892   7.494  0.3104 -0.3218 -0.4302
 9908TIP3    H153919   4.669   2.890   7.465  0.4856 -0.8953 -0.9788
 9908TIP3    H253920   4.777   2.803   7.526  0.8826 -0.4278 -0.9984
 9909TIP3   OH253921   5.511   3.449   7.971  0.1930  0.0932  0.5538
 9909TIP3    H153922   5.443   3.514   7.956 -0.1182  0.4844  3.2048
 9909TIP3    H253923   5.590   3.488   7.933 -0.6307  0.4661 -0.8712
 9910TIP3   OH253924   4.578   5.795   8.974 -0.1902 -0.1847 -0.5409
 9910TIP3    H153925   4.581   5.717   8.919 -2.0052 -0.0805 -0.8536
 9910TIP3    H253926   4.520   5.771   9.046  1.3525  0.0235  0.8274
 9911TIP3   OH253927   3.207   1.690   6.594  0.2192  0.3649  0.2230
 9911TIP3    H153928   3.196   1.597   6.617 -0.5763  0.4345  0.1498
 9911TIP3    H253929   3.301   1.701   6.584  0.2518 -0.6901 -0.7882
 9912TIP3   OH253930   3.508   0.638   7.894 -0.6529 -0.0662  0.2466
 9912TIP3    H153931   3.507   0.593   7.809 -0.5015  1.8451 -0.8270
 9912TIP3    H253932   3.597   0.627   7.925  0.1316  1.5583 -1.2306
 9913TIP3   OH253933   0.642   3.149   7.431 -0.3869 -0.4540 -0.3376
 9913TIP3    H153934   0.639   3.176   7.339  0.3615 -0.4946 -0.3779
 9913TIP3    H253935   0.673   3.058   7.428  0.6859 -0.1122  0.0074
 9914TIP3   OH253936   2.470   2.857   7.949  0.1291  0.2531  0.0039
 9914TIP3    H153937   2.493   2.950   7.952 -1.0614  0.6677 -1.7760
 9914TIP3    H253938   2.406   2.846   8.019  0.3306  0.7641  0.2736
 9915TIP3   OH253939   2.115   0.808   7.264  0.0964 -0.3915 -0.4892
 9915TIP3    H153940   2.121   0.896   7.227 -0.7350 -0.5629 -1.0635
 9915TIP3    H253941   2.185   0.759   7.220 -0.5257 -0.4483 -1.4565
 9916TIP3   OH253942   6.141   3.841   7.050  0.0897  0.0435 -0.0467
 9916TIP3    H153943   6.156   3.747   7.039  3.1654  0.3993  0.3719
 9916TIP3    H253944   6.112   3.871   6.963 -0.0200 -1.1320 -0.4315
 9917TIP3   OH253945   3.396   1.339   8.536 -0.3928  0.2609 -0.8539
 9917TIP3    H153946   3.335   1.395   8.586  0.0914 -1.4956  1.9166
 9917TIP3    H253947   3.482   1.377   8.554 -0.1971 -0.4902 -0.1882
 9918TIP3   OH253948   2.741   3.039   9.430 -0.0168 -0.0599 -0.3790
 9918TIP3    H153949   2.821   2.991   9.448  0.0454 -0.1732 -0.9183
 9918TIP3    H253950   2.751   3.122   9.477 -0.0817 -0.5268  0.4741
 9919TIP3   OH253951   3.598   2.947   8.719 -0.0549  0.2251  0.3857
 9919TIP3    H153952   3.597   2.966   8.626  0.8549  0.1785  0.3583
 9919TIP3    H253953   3.536   2.874   8.729  0.3503 -0.2192 -0.2803
 9920TIP3   OH253954   5.511   3.220   8.594  0.0139  0.1011 -0.3894
 9920TIP3    H153955   5.565   3.257   8.524 -0.3389  0.8300 -0.2897
 9920TIP3    H253956   5.464   3.148   8.553 -2.1025  2.0448 -1.6228
 9921TIP3   OH253957   5.095   6.400   7.857 -0.1434  0.3707  0.1926
 9921TIP3    H153958   5.070   6.423   7.946 -1.2205  0.5226 -0.1314
 9921TIP3    H253959   5.044   6.322   7.836 -2.4286  2.1474 -1.3774
 9922TIP3   OH253960   4.087   4.102   8.299 -0.1802  0.3494 -0.3666
 9922TIP3    H153961   4.148   4.175   8.295  0.3725 -0.1502 -1.9172
 9922TIP3    H253962   4.077   4.084   8.393  0.0083  2.1008  0.0248
 9923TIP3   OH253963   6.239   0.681   7.582  0.3445 -0.2549  0.7955
 9923TIP3    H153964   6.235   0.668   7.487 -1.5449 -0.9619  0.9329
 9923TIP3    H253965   6.316   0.631   7.609  1.5552  0.8537 -0.4704
 9924TIP3   OH253966   3.611   2.223   7.654  0.4909  0.0124 -0.1788
 9924TIP3    H153967   3.555   2.148   7.673  0.2989 -0.3407 -2.0249
 9924TIP3    H253968   3.651   2.244   7.739  0.7510 -2.3151  0.3604
 9925TIP3   OH253969   4.004   2.098   9.526  0.1204 -0.5231  0.1542
 9925TIP3    H153970   3.946   2.033   9.488 -0.4020 -1.1248  1.8820
 9925TIP3    H253971   4.061   2.049   9.585  0.3352  0.4609  0.8024
 9926TIP3   OH253972   2.928   2.631   6.633 -0.3871 -0.1609  0.1459
 9926TIP3    H153973   3.004   2.579   6.659 -0.5530  0.1902  1.3814
 9926TIP3    H253974   2.938   2.643   6.538  0.5720 -0.9416  0.1374
 9927TIP3   OH253975   3.211   5.220   6.598  0.4733 -0.2601  0.2142
 9927TIP3    H153976   3.189   5.169   6.521  0.8625 -0.2319  0.0866
 9927TIP3    H253977   3.222   5.155   6.668  0.9356 -0.3500  0.0602
 9928TIP3   OH253978   3.727   2.334   7.903  0.4655  0.0436  0.0683
 9928TIP3    H153979   3.658   2.321   7.968 -0.1538 -1.4034 -0.8297
 9928TIP3    H253980   3.758   2.424   7.918 -0.1554  0.0037  1.8568
 9929TIP3   OH253981   1.556   0.363   8.092 -0.2452 -0.0699 -1.0464
 9929TIP3    H153982   1.492   0.392   8.027 -1.7342  0.1401  0.4273
 9929TIP3    H253983   1.540   0.268   8.100 -1.9048  0.2916  0.7977
 9930TIP3   OH253984   4.384   5.883   9.925 -0.5857 -0.6436 -0.6624
 9930TIP3    H153985   4.289   5.892   9.930 -0.6127 -1.2928  0.2042
 9930TIP3    H253986   4.402   5.799   9.967  0.2711 -1.1182 -1.9385
 9931TIP3   OH253987   1.402   0.276   7.479 -0.1357 -0.4668  0.0220
 9931TIP3    H153988   1.432   0.364   7.460 -0.2181 -0.2055  1.0279
 9931TIP3    H253989   1.424   0.225   7.401  0.8649  0.2044 -0.1452
 9932TIP3   OH253990   4.138   1.156   7.061  0.4844  0.3997  0.5362
 9932TIP3    H153991   4.139   1.205   7.143  1.7812 -1.4833  1.7102
 9932TIP3    H253992   4.062   1.099   7.068  2.5206 -2.3358  2.1365
 9933TIP3   OH253993   2.598   6.225   8.648 -0.0718  0.0581  0.2361
 9933TIP3    H153994   2.569   6.201   8.560 -1.1669 -1.7232  1.0223
 9933TIP3    H253995   2.686   6.187   8.656  0.1899  0.5589 -0.2012
 9934TIP3   OH253996   5.922   5.027   9.549 -0.1684 -0.4089  0.2214
 9934TIP3    H153997   5.889   4.953   9.600  1.3318  0.8989  3.3380
 9934TIP3    H253998   5.888   5.104   9.594  0.7177  0.8457 -1.1667
 9935TIP3   OH253999   5.108   6.198   9.313  0.0550  0.0185 -0.2712
 9935TIP3    H154000   5.181   6.228   9.365  0.1997 -0.9054  0.0717
 9935TIP3    H254001   5.142   6.192   9.224 -0.6156  3.1370 -0.8463
 9936TIP3   OH254002   2.225   6.747   7.398  0.5824  0.4666 -0.9616
 9936TIP3    H154003   2.154   6.684   7.404  0.2473  0.8003 -1.3928
 9936TIP3    H254004   2.183   6.829   7.375  0.9984  0.8847 -0.2726
 9937TIP3   OH254005   5.770   0.091   7.713 -0.0163 -0.4609 -0.0254
 9937TIP3    H154006   5.784  -0.002   7.697 -2.5107 -0.9697  0.3746
 9937TIP3    H254007   5.755   0.097   7.808  0.1298  0.3787 -0.0392
 9938TIP3   OH254008   5.446   3.014   8.438  0.2948 -0.5065 -0.2280
 9938TIP3    H154009   5.399   3.073   8.379  0.6151 -0.3004 -0.2791
 9938TIP3    H254010   5.501   2.961   8.380  0.1209 -0.7504 -0.1703
 9939TIP3   OH254011   1.580   3.272   7.506  0.0881  0.0055 -0.3379
 9939TIP3    H154012   1.503   3.266   7.450 -1.9234 -0.0913  2.2447
 9939TIP3    H254013   1.581   3.190   7.555  1.9527 -0.0431 -0.3764
 9940TIP3   OH254014   6.432   1.231   6.601  0.6477  0.0442  0.3568
 9940TIP3    H154015   6.446   1.140   6.624 -0.4609 -0.1556  0.3200
 9940TIP3    H254016   6.516   1.274   6.617  1.9771 -1.4366 -1.9417
 9941TIP3   OH254017   4.831   6.131   8.254 -0.0727  0.5756  0.2683
 9941TIP3    H154018   4.818   6.118   8.348 -0.5167 -0.6050  0.0588
 9941TIP3    H254019   4.745   6.156   8.221 -0.0660  0.3593  0.0822
 9942TIP3   OH254020   5.417   1.687   9.101  0.6374  0.1699 -0.4800
 9942TIP3    H154021   5.423   1.761   9.040  0.8752  0.7594  0.2558
 9942TIP3    H254022   5.496   1.692   9.154  1.2985 -1.3714 -1.2445
 9943TIP3   OH254023   6.421   0.378   9.245  0.1627 -0.3806  0.2630
 9943TIP3    H154024   6.457   0.433   9.176 -1.1870  1.5733  1.0289
 9943TIP3    H254025   6.386   0.302   9.198 -0.1361  0.5871 -1.1565
 9944TIP3   OH254026   1.803   3.686   8.954 -0.3872 -0.4902 -0.4970
 9944TIP3    H154027   1.757   3.749   9.008 -0.5879 -1.8271  0.9461
 9944TIP3    H254028   1.892   3.721   8.947 -0.0590 -0.7811  1.6083
 9945TIP3   OH254029   0.706   4.518   8.520 -0.2597  0.1923 -0.7570
 9945TIP3    H154030   0.751   4.593   8.482  1.4896 -0.7035 -0.5526
 9945TIP3    H254031   0.734   4.517   8.612 -1.2575 -0.0029 -0.4386
 9946TIP3   OH254032   2.043   5.705   8.872  0.7070  0.3387  0.6009
 9946TIP3    H154033   2.038   5.771   8.941 -1.0882  0.0132  0.8523
 9946TIP3    H254034   2.100   5.637   8.908 -0.6194 -0.0797  2.0410
 9947TIP3   OH254035   5.696   2.904   9.615  0.0149 -0.1347 -0.2464
 9947TIP3    H154036   5.606   2.880   9.636 -0.5331  1.7928 -0.1195
 9947TIP3    H254037   5.706   2.883   9.522 -0.7773  0.1842 -0.4074
 9948TIP3   OH254038   2.461   0.938   8.272  0.3604  0.2545 -0.1302
 9948TIP3    H154039   2.380   0.887   8.272 -0.9641  2.2488 -0.4811
 9948TIP3    H254040   2.494   0.930   8.182  2.4198 -3.1849  0.7404
 9949TIP3   OH254041   2.782   5.113   9.240  0.6118 -0.4756 -0.4006
 9949TIP3    H154042   2.847   5.045   9.256  0.0251 -0.8366  0.4807
 9949TIP3    H254043   2.758   5.145   9.327 -0.0069  0.0176 -0.7453
 9950TIP3   OH254044   6.041   2.356   9.584 -0.4059 -0.3716 -0.9693
 9950TIP3    H154045   6.131   2.322   9.588 -0.5599 -0.6486  1.8579
 9950TIP3    H254046   5.992   2.288   9.538  0.5205 -0.9238 -1.1895
 9951TIP3   OH254047   2.722   5.394   6.553  0.1334 -0.0862 -0.2664
 9951TIP3    H154048   2.776   5.336   6.606 -2.5602 -0.4992  2.2971
 9951TIP3    H254049   2.649   5.339   6.524 -1.7751  1.5521  1.0927
 9952TIP3   OH254050   3.396   1.663   7.953 -0.2508  0.6007  0.3169
 9952TIP3    H154051   3.322   1.696   7.902  1.1853  2.4517 -0.7045
 9952TIP3    H254052   3.420   1.736   8.010  0.3141 -0.2524  1.2085
 9953TIP3   OH254053   0.695   3.022   6.746 -0.1032 -0.1876 -0.2349
 9953TIP3    H154054   0.679   2.930   6.725 -0.9958 -0.5875  1.9355
 9953TIP3    H254055   0.686   3.026   6.841  0.8900  1.9750 -0.1921
 9954TIP3   OH254056   1.201   5.182   9.513 -0.2387 -0.1844  0.3943
 9954TIP3    H154057   1.251   5.263   9.511  0.2885 -0.5155 -1.3280
 9954TIP3    H254058   1.184   5.167   9.606  2.1229  0.3843  0.9846
 9955TIP3   OH254059   5.593   4.548   8.623  0.6850  0.1118  0.0633
 9955TIP3    H154060   5.608   4.598   8.703  0.5965 -0.4728  0.4541
 9955TIP3    H254061   5.622   4.459   8.645  1.2406  0.0824 -0.7552
 9956TIP3   OH254062   0.746   0.397   7.494 -0.5187  0.4153 -0.4587
 9956TIP3    H154063   0.726   0.425   7.405 -1.7256  1.3007  0.0585
 9956TIP3    H254064   0.815   0.458   7.523  0.5026 -0.4200 -1.0502
 9957TIP3   OH254065   3.443   2.557   9.754 -0.3807 -0.7333  0.2087
 9957TIP3    H154066   3.431   2.630   9.815  1.5632  0.7733 -1.0639
 9957TIP3    H254067   3.372   2.566   9.691 -0.5030 -0.3075  0.4041
 9958TIP3   OH254068   1.949   3.657   8.623 -0.6760  0.2555 -0.2284
 9958TIP3    H154069   2.038   3.692   8.633 -0.2106 -1.1883  1.2285
 9958TIP3    H254070   1.912   3.706   8.550  1.1080  1.3130 -0.4940
 9959TIP3   OH254071   3.707   4.033   7.305  0.1578  0.1593 -0.0287
 9959TIP3    H154072   3.763   4.033   7.228 -1.2445 -0.0244 -1.0795
 9959TIP3    H254073   3.674   3.943   7.311  0.0478  0.2389  0.6427
 9960TIP3   OH254074   2.483   1.901   9.998  0.0209 -0.2176 -0.3766
 9960TIP3    H154075   2.558   1.915  10.056  0.4646  0.2634 -1.0461
 9960TIP3    H254076   2.521   1.853   9.924 -0.7104 -1.6179  0.1185
 9961TIP3   OH254077   6.663   6.520   7.395 -0.5261 -0.1189 -0.0164
 9961TIP3    H154078   6.571   6.532   7.371 -0.7749  0.4795  1.1460
 9961TIP3    H254079   6.708   6.594   7.355 -0.7631  0.2848  0.4517
 9962TIP3   OH254080   0.572   2.888   8.626 -0.1274  0.2467  0.3071
 9962TIP3    H154081   0.632   2.911   8.696  1.2187 -1.0869 -0.3653
 9962TIP3    H254082   0.542   2.800   8.647 -0.2424  0.1002 -0.4257
 9963TIP3   OH254083   6.500   2.092   9.203  0.0815  0.1696 -0.0912
 9963TIP3    H154084   6.420   2.144   9.210  0.0290  0.0833 -0.0504
 9963TIP3    H254085   6.470   2.001   9.197  0.1692  0.1551 -0.3006
 9964TIP3   OH254086   4.939   3.700   7.860 -0.5421 -0.5059 -0.2810
 9964TIP3    H154087   4.996   3.637   7.818 -0.2102 -1.2497  1.2027
 9964TIP3    H254088   4.892   3.649   7.927 -0.3551  0.7708  0.8682
 9965TIP3   OH254089   2.593   1.968   7.825  0.3604  0.0460  0.2792
 9965TIP3    H154090   2.595   2.063   7.812  0.1612 -0.0912 -0.8667
 9965TIP3    H254091   2.553   1.934   7.745  2.5339 -1.1672 -0.3804
 9966TIP3   OH254092   0.840   2.891   8.290  0.1592  0.1758 -0.3950
 9966TIP3    H154093   0.831   2.966   8.349 -0.3483 -2.0478  2.5704
 9966TIP3    H254094   0.913   2.841   8.327 -1.0030 -1.9699 -0.8755
 9967TIP3   OH254095   3.613   6.747   8.131  0.3512 -0.4674 -0.1191
 9967TIP3    H154096   3.552   6.740   8.204 -0.7268 -1.3168 -1.0612
 9967TIP3    H254097   3.627   6.841   8.120  0.1738 -0.3151  0.8753
 9968TIP3   OH254098   6.516   0.868   8.095 -0.2316 -0.0970 -0.4638
 9968TIP3    H154099   6.580   0.929   8.132 -0.3276  1.2927 -2.4235
 9968TIP3    H254100   6.448   0.861   8.163  0.4204  0.9509  0.3298
 9969TIP3   OH254101   5.791   1.088   8.663 -0.9059  0.1165 -0.4499
 9969TIP3    H154102   5.862   1.038   8.704 -0.8562 -0.5810 -1.3699
 9969TIP3    H254103   5.810   1.179   8.686  1.5916  0.2248 -2.5376
 9970TIP3   OH254104   2.423   1.744   6.787 -0.0940  0.3348  0.4088
 9970TIP3    H154105   2.462   1.811   6.732  0.0538  0.9868  1.2851
 9970TIP3    H254106   2.396   1.791   6.866  1.8651 -0.9591  1.9421
 9971TIP3   OH254107   2.672   3.851  10.334 -0.2727  0.1715 -0.6041
 9971TIP3    H154108   2.728   3.793  10.386 -0.0853  2.1757  1.5704
 9971TIP3    H254109   2.583   3.816  10.347 -0.3641  1.1387  1.9450
 9972TIP3   OH254110   5.573   4.828   8.800  0.0394 -0.3110  0.6099
 9972TIP3    H154111   5.658   4.824   8.755  0.0671 -1.1982  0.7042
 9972TIP3    H254112   5.593   4.869   8.884  0.3100 -0.1959  0.4925
 9973TIP3   OH254113   5.213   0.875   7.717  0.3298  0.6712  0.1019
 9973TIP3    H154114   5.139   0.861   7.659  0.0484 -0.1286  0.6441
 9973TIP3    H254115   5.190   0.829   7.797  0.7045  1.7732  0.8688
 9974TIP3   OH254116   3.586   6.245   8.080 -0.1262  0.1982  0.6696
 9974TIP3    H154117   3.672   6.242   8.038 -0.6139  0.6183 -0.4132
 9974TIP3    H254118   3.594   6.315   8.145  0.1553  0.7162  0.0923
 9975TIP3   OH254119   2.589   1.599   8.874 -0.0053  0.2183  0.1709
 9975TIP3    H154120   2.592   1.580   8.968 -0.4459  2.4694  0.6976
 9975TIP3    H254121   2.648   1.674   8.863 -1.0579  0.8993 -1.0906
 9976TIP3   OH254122   5.232   5.023   8.573 -0.6513 -0.0074  0.6575
 9976TIP3    H154123   5.217   5.051   8.482 -0.2069 -0.3836  0.4655
 9976TIP3    H254124   5.306   5.076   8.602 -1.3163  0.7200  1.0902
 9977TIP3   OH254125   1.849   2.777   7.366  0.7721 -0.0280  0.0028
 9977TIP3    H154126   1.855   2.688   7.401 -0.4817 -0.0337  0.2309
 9977TIP3    H254127   1.800   2.768   7.285 -0.4830  0.6112  0.6726
 9978TIP3   OH254128   2.570   5.076   8.723  0.6776 -0.3170 -0.4738
 9978TIP3    H154129   2.623   5.075   8.803 -0.9364 -0.7488  0.6447
 9978TIP3    H254130   2.620   5.129   8.661  1.2756  1.3524  1.3272
 9979TIP3   OH254131   1.176   3.971   8.947 -0.2084 -0.0817  0.5865
 9979TIP3    H154132   1.124   3.924   9.012 -0.2714  0.8501  1.2184
 9979TIP3    H254133   1.166   3.920   8.866  3.0094 -3.6080  2.0879
 9980TIP3   OH254134   6.487   0.516   9.477 -0.0557 -0.4956  0.5253
 9980TIP3    H154135   6.510   0.473   9.394  0.7301  1.0882 -0.1151
 9980TIP3    H254136   6.570   0.528   9.522 -0.1515  1.0190  0.3379
 9981TIP3   OH254137   1.707   5.968   8.670  0.1255  0.5049 -0.0359
 9981TIP3    H154138   1.665   5.966   8.756  1.4222 -1.8093  0.6375
 9981TIP3    H254139   1.792   6.010   8.686  0.2818  0.2672 -0.2426
 9982TIP3   OH254140   1.007   3.573   7.220 -0.0467 -0.1547  0.4422
 9982TIP3    H154141   1.018   3.523   7.139 -0.1684 -0.2800  0.5030
 9982TIP3    H254142   0.966   3.512   7.281  0.0168 -0.0506  0.5891
 9983TIP3   OH254143   2.071   0.594   9.352  0.2583 -0.1034 -0.0312
 9983TIP3    H154144   2.140   0.527   9.358  0.5126  0.1531 -0.1067
 9983TIP3    H254145   2.087   0.638   9.269 -0.8419 -0.9686 -0.7428
 9984TIP3   OH254146   5.418   2.174   9.065 -0.2754 -0.0136 -0.1586
 9984TIP3    H154147   5.391   2.141   9.151 -2.1189  0.8057 -0.3739
 9984TIP3    H254148   5.420   2.096   9.009 -0.2470 -0.3813  0.3497
 9985TIP3   OH254149   3.591   0.647   7.070 -0.2395 -0.2862  0.2675
 9985TIP3    H154150   3.658   0.610   7.012 -0.8314 -0.2555 -0.4552
 9985TIP3    H254151   3.514   0.593   7.055 -0.6917  0.3387  0.2876
 9986TIP3   OH254152   2.738   0.919   9.829  0.0308 -0.0464  0.1593
 9986TIP3    H154153   2.708   0.991   9.885  0.0046  0.6636 -0.7619
 9986TIP3    H254154   2.831   0.910   9.849 -0.1179 -0.2319  0.7907
 9987TIP3   OH254155   3.866   4.941   7.793 -0.6446  0.2821 -0.0805
 9987TIP3    H154156   3.928   4.995   7.744 -0.9320  0.1657 -0.5778
 9987TIP3    H254157   3.909   4.856   7.800 -0.5158  0.3569  0.0503
 9988TIP3   OH254158   3.315   2.344   9.047 -0.2157  0.1290 -0.3352
 9988TIP3    H154159   3.381   2.298   8.994 -0.5999 -0.1168 -0.6004
 9988TIP3    H254160   3.328   2.312   9.136  0.2465  0.3328 -0.3220
 9989TIP3   OH254161   5.070   6.292   8.635  0.4858 -0.2331  0.4350
 9989TIP3    H154162   4.977   6.316   8.633  0.7322  0.7452  0.2624
 9989TIP3    H254163   5.087   6.254   8.549  0.1776 -0.7120  0.5798
 9990TIP3   OH254164   0.245   1.616   7.021  0.0303 -0.4519 -0.1031
 9990TIP3    H154165   0.324   1.614   7.075 -0.4824  4.8051  1.3883
 9990TIP3    H254166   0.176   1.582   7.077  0.6695 -2.5172 -0.4700
 9991TIP3   OH254167   5.783   1.896   7.301  0.6164  0.9451  0.2701
 9991TIP3    H154168   5.715   1.833   7.276  4.2433 -2.3166 -2.4327
 9991TIP3    H254169   5.788   1.889   7.397 -0.9771 -0.7268  0.2820
 9992TIP3   OH254170   4.644   2.049   9.435  0.2705 -0.0401  0.0172
 9992TIP3    H154171   4.645   1.955   9.419 -0.9604 -0.0410 -0.1943
 9992TIP3    H254172   4.661   2.058   9.528 -0.4416 -0.5362  0.2064
 9993TIP3   OH254173   2.173   3.875   7.323 -0.1253  0.2875 -0.1113
 9993TIP3    H154174   2.211   3.962   7.321  0.4273  0.0990  1.1506
 9993TIP3    H254175   2.155   3.854   7.231  2.9597  0.3152 -0.8069
 9994TIP3   OH254176   6.072   6.050   7.091  0.3696  0.5106  0.3516
 9994TIP3    H154177   6.068   6.044   6.996 -0.1312 -0.0206  0.3924
 9994TIP3    H254178   6.061   5.959   7.121 -0.1381  0.7508  0.9238
 9995TIP3   OH254179   2.887   4.201   8.397 -0.5880  0.0212  0.2566
 9995TIP3    H154180   2.969   4.154   8.411  0.8882  1.2151 -3.1565
 9995TIP3    H254181   2.828   4.169   8.465  1.0711 -4.7879 -0.2011
 9996TIP3   OH254182   1.742   1.777   7.433 -0.5386 -0.3754  0.4508
 9996TIP3    H154183   1.682   1.742   7.368 -0.4551  0.0637  0.1326
 9996TIP3    H254184   1.733   1.718   7.509 -1.5425 -0.1683  0.4978
 9997TIP3   OH254185   0.286   5.502   8.731  0.5404 -0.1032 -0.3177
 9997TIP3    H154186   0.324   5.481   8.646  0.2110  0.0568 -0.5052
 9997TIP3    H254187   0.200   5.537   8.711  0.5288  0.0960  0.0750
 9998TIP3   OH254188   5.038   3.656  10.011 -0.1280 -0.5071  0.0175
 9998TIP3    H154189   5.085   3.735  10.036 -1.2773 -0.1192  1.0533
 9998TIP3    H254190   5.009   3.618  10.094  0.6074 -2.1614 -0.4470
 9999TIP3   OH254191   2.390   6.441   8.294  0.0463 -0.0335  0.4155
 9999TIP3    H154192   2.428   6.366   8.340 -0.5281  0.1138  1.1511
 9999TIP3    H254193   2.429   6.517   8.337 -0.7842  0.1135  0.9211
10000TIP3   OH254194   2.780   3.022   6.712  0.0120  0.1275 -0.0920
10000TIP3    H154195   2.875   3.023   6.698  0.0705 -0.4511  0.2125
10000TIP3    H254196   2.770   3.003   6.805 -0.3987 -1.8130 -0.4892
10001TIP3   OH254197   4.848   0.744   6.728  0.3486 -0.0243  0.3181
10001TIP3    H154198   4.779   0.796   6.688 -0.5496 -0.9070  0.6815
10001TIP3    H254199   4.874   0.682   6.660  1.8536  1.2495 -0.3298
10002TIP3   OH254200   5.908   0.701   6.718 -0.2483  0.4752  0.1230
10002TIP3    H154201   5.898   0.633   6.651 -0.7647 -0.2553  0.9193
10002TIP3    H254202   5.957   0.659   6.788 -1.0971  0.7259  0.8887
10003TIP3   OH254203   0.354   3.437   8.941 -0.2905  0.5590  0.7389
10003TIP3    H154204   0.446   3.417   8.959 -0.4067  1.0105  1.9143
10003TIP3    H254205   0.305   3.374   8.995 -0.6744  0.6256  0.4775
10004TIP3   OH254206   2.960   4.094   7.106 -0.0074  0.7666 -0.3639
10004TIP3    H154207   2.949   4.013   7.156  0.7961  0.8441 -0.0423
10004TIP3    H254208   2.919   4.162   7.159 -0.3672  0.6279 -0.4644
10005TIP3   OH254209   6.407   0.197   9.476  0.5346  0.3925  0.4317
10005TIP3    H154210   6.406   0.283   9.435  3.0790 -0.2171 -1.1081
10005TIP3    H254211   6.473   0.203   9.544 -0.4067  0.0793  1.3885
10006TIP3   OH254212   0.218   3.383   7.724  0.3321  0.4662  0.1895
10006TIP3    H154213   0.228   3.383   7.819  0.3181  0.6453  0.1921
10006TIP3    H254214   0.152   3.316   7.707  0.1119  0.6416  0.3338
10007TIP3   OH254215   1.214   0.192   7.883  0.2115 -0.3698  0.1140
10007TIP3    H154216   1.275   0.185   7.957  1.3814 -0.6952 -0.8562
10007TIP3    H254217   1.259   0.150   7.810 -1.4034 -1.1289 -0.5116
10008TIP3   OH254218   0.803   2.025   8.189  0.9530 -0.1487  0.2728
10008TIP3    H154219   0.733   2.088   8.208  0.1239 -1.0095  0.1622
10008TIP3    H254220   0.865   2.073   8.136  0.6577  0.7655  0.7401
10009TIP3   OH254221   0.684   1.490   8.338  0.1461 -0.0128  0.3600
10009TIP3    H154222   0.602   1.453   8.304  1.5544 -1.0848 -2.1222
10009TIP3    H254223   0.668   1.501   8.432 -2.9746  0.2755 -0.0908
10010TIP3   OH254224   5.114   3.462   9.239  0.0244 -0.2831 -0.3809
10010TIP3    H154225   5.027   3.482   9.203  0.5512  0.8484 -1.0961
10010TIP3    H254226   5.156   3.408   9.172  0.7363  1.2074 -1.1793
10011TIP3   OH254227   0.395   1.362   9.504  0.2667  0.0358  0.0091
10011TIP3    H154228   0.458   1.391   9.570  1.6246 -0.4247 -1.0231
10011TIP3    H254229   0.434   1.390   9.421 -0.3976 -1.1522 -0.7219
10012TIP3   OH254230   1.119   6.203   6.889 -0.3301  0.2705 -0.5994
10012TIP3    H154231   1.026   6.190   6.907 -0.5045  0.0181 -1.5958
10012TIP3    H254232   1.121   6.237   6.799  0.5829 -0.4559 -0.8684
10013TIP3   OH254233   1.825   0.634   9.443 -0.3660  0.1962  0.5287
10013TIP3    H154234   1.781   0.653   9.361  0.3557  1.0337  0.3141
10013TIP3    H254235   1.918   0.625   9.419 -0.2809 -0.5398  1.1051
10014TIP3   OH254236   6.702   4.608   7.074  0.1561  0.1720  0.2154
10014TIP3    H154237   6.664   4.558   7.146  1.8409 -1.3273  0.1309
10014TIP3    H254238   6.764   4.668   7.116  1.0247 -0.5946  0.0660
10015TIP3   OH254239   5.973   3.026   9.422  0.3463  0.4825 -0.3109
10015TIP3    H154240   5.978   3.102   9.364 -2.3302 -0.0085 -1.3587
10015TIP3    H254241   5.961   2.951   9.363 -0.1308 -0.3364  0.7780
10016TIP3   OH254242   0.818   4.704   6.754  0.4439  0.3053  0.2216
10016TIP3    H154243   0.854   4.681   6.668  0.4863 -2.5236  0.8971
10016TIP3    H254244   0.888   4.751   6.798  1.5984 -0.9904 -0.1798
10017TIP3   OH254245   1.538   2.826   6.678  0.0355  0.0827 -0.0773
10017TIP3    H154246   1.583   2.749   6.644  1.7190  1.0686 -0.2360
10017TIP3    H254247   1.504   2.870   6.600 -2.3823 -1.2733  0.1183
10018TIP3   OH254248   2.606   3.874   7.981 -0.0470  0.1098 -0.6131
10018TIP3    H154249   2.571   3.925   7.907 -0.3637  0.7918 -0.0015
10018TIP3    H254250   2.700   3.896   7.983 -0.2459  0.9640 -0.1351
10019TIP3   OH254251   1.050   4.405   8.578  0.0602 -0.2621 -0.2032
10019TIP3    H154252   1.059   4.500   8.586 -0.2134 -0.2727  0.2613
10019TIP3    H254253   1.140   4.372   8.586 -0.1153 -0.2401  2.5665
10020TIP3   OH254254   5.634   2.210   9.382 -0.0954  0.0589 -0.3859
10020TIP3    H154255   5.629   2.272   9.310  0.7248  0.2957 -0.2443
10020TIP3    H254256   5.728   2.196   9.396 -0.1830  0.9314  1.4004
10021TIP3   OH254257   4.667   1.725   6.656  0.2138  0.2410 -0.3605
10021TIP3    H154258   4.574   1.729   6.632  0.2861  0.3838 -0.6273
10021TIP3    H254259   4.681   1.805   6.707 -0.1399 -0.4826  0.9072
10022TIP3   OH254260   2.723   0.640   9.880  0.0947 -0.2399  0.1563
10022TIP3    H154261   2.680   0.624   9.964  0.0711 -1.4399 -0.0632
10022TIP3    H254262   2.719   0.734   9.869  1.5028  0.1322  2.2410
10023TIP3   OH254263   4.631   0.682   9.090  0.3605  0.9518 -0.4014
10023TIP3    H154264   4.599   0.674   9.180 -1.0204  3.5512 -0.5671
10023TIP3    H254265   4.567   0.738   9.046  2.2924  1.8373 -2.3177
10024TIP3   OH254266   0.729   0.893   8.685  0.1632 -0.1442 -0.3410
10024TIP3    H154267   0.800   0.952   8.709  0.9245 -0.8542 -0.7668
10024TIP3    H254268   0.769   0.832   8.622 -0.8307 -0.5399 -0.6094
10025TIP3   OH254269   4.722   2.407   8.553  0.0041 -0.2151  0.7622
10025TIP3    H154270   4.816   2.419   8.567  0.3899  0.6416 -1.9946
10025TIP3    H254271   4.684   2.492   8.574  0.0991 -0.0255  0.1842
10026TIP3   OH254272   3.893   0.734   8.801  0.2944 -0.4840  0.0058
10026TIP3    H154273   3.948   0.741   8.723 -0.4214 -1.5876 -0.6210
10026TIP3    H254274   3.879   0.640   8.812 -1.3515 -0.2338  0.2254
10027TIP3   OH254275   4.820   1.974   7.917  0.0807 -0.2388  0.6090
10027TIP3    H154276   4.814   1.944   7.827  2.0530  0.9062  0.0432
10027TIP3    H254277   4.782   1.903   7.969 -1.5603 -0.7087 -1.1164
10028TIP3   OH254278   0.040   1.873   9.286 -0.4514 -0.1286 -0.3300
10028TIP3    H154279   0.065   1.959   9.318  0.3434  0.1784 -1.7023
10028TIP3    H254280   0.030   1.820   9.365 -1.0262  1.2257  0.5352
10029TIP3   OH254281   0.121   5.012   9.167  0.3819  0.3495 -0.2056
10029TIP3    H154282   0.099   5.053   9.083 -2.8274  0.5799  0.6195
10029TIP3    H254283   0.073   4.930   9.167  2.4461 -0.9336  0.4022
10030TIP3   OH254284   5.679   5.453   8.401  0.0881 -0.1025 -0.4049
10030TIP3    H154285   5.676   5.416   8.313  1.7942 -2.0978  0.3044
10030TIP3    H254286   5.736   5.530   8.392 -0.1395 -0.0011 -1.0972
10031TIP3   OH254287   0.676   2.758   7.947 -0.1017 -0.0275 -0.0802
10031TIP3    H154288   0.760   2.717   7.922 -0.3544 -0.2204 -0.6346
10031TIP3    H254289   0.613   2.720   7.887 -0.6529 -0.1306  0.5594
10032TIP3   OH254290   2.414   5.746  10.074 -0.2615 -0.8496 -0.0138
10032TIP3    H154291   2.327   5.735  10.113  0.2204 -0.2825  1.2796
10032TIP3    H254292   2.433   5.839  10.083  1.3918 -1.2879  1.8354
10033TIP3   OH254293   6.195   3.932  10.081  0.3833 -0.0757  0.1116
10033TIP3    H154294   6.151   3.878  10.014  1.2137  0.5188 -0.9346
10033TIP3    H254295   6.123   3.975  10.127 -0.2579 -1.3510  0.3619
10034TIP3   OH254296   0.483   5.298   7.276 -0.2479 -0.1810  0.1312
10034TIP3    H154297   0.443   5.363   7.334  2.1091  0.8581  0.7204
10034TIP3    H254298   0.577   5.305   7.294  0.4056 -1.1557 -2.4755
10035TIP3   OH254299   1.782   3.415   7.892 -0.1955  0.2062 -0.3441
10035TIP3    H154300   1.806   3.322   7.897  0.9460  0.4032 -1.6698
10035TIP3    H254301   1.743   3.434   7.978 -1.7291 -1.8162 -0.5061
10036TIP3   OH254302   2.351   6.234   6.418 -0.0681 -0.2643 -0.1436
10036TIP3    H154303   2.402   6.236   6.337 -1.9979  0.1827 -1.4219
10036TIP3    H254304   2.334   6.326   6.439 -0.0726 -0.3919  0.4393
10037TIP3   OH254305   3.948   3.523   8.169 -0.0919 -0.2553  0.1382
10037TIP3    H154306   4.023   3.468   8.190 -1.4333 -2.4647 -0.5670
10037TIP3    H254307   3.914   3.552   8.253  0.0143 -1.4269  0.6021
10038TIP3   OH254308   4.671   6.227   9.766 -0.3415 -0.2328 -0.0665
10038TIP3    H154309   4.700   6.143   9.730 -1.8118 -1.4690  1.4681
10038TIP3    H254310   4.644   6.207   9.855 -2.1091  1.5808 -0.1117
10039TIP3   OH254311   3.244   6.163   7.253 -0.9429 -0.3475 -0.4235
10039TIP3    H154312   3.211   6.074   7.237 -2.0110 -0.2002  0.8063
10039TIP3    H254313   3.229   6.209   7.171  1.4091 -1.7692 -1.7789
10040TIP3   OH254314   1.355   6.578   6.587  0.1799 -0.3375  0.5108
10040TIP3    H154315   1.408   6.623   6.520 -0.7523 -1.9228 -1.4175
10040TIP3    H254316   1.285   6.639   6.607  1.3972  0.8381  1.3288
10041TIP3   OH254317   1.345   3.473   7.061 -0.3717 -0.2712  0.4663
10041TIP3    H154318   1.251   3.483   7.072 -0.5100 -1.3538  0.3568
10041TIP3    H254319   1.356   3.384   7.027  0.3914  1.1584 -3.5399
10042TIP3   OH254320   5.792   3.662   7.613  0.2509  0.2334  0.6270
10042TIP3    H154321   5.736   3.698   7.544  0.4200  0.0598  0.3950
10042TIP3    H254322   5.869   3.720   7.613  0.4469 -0.0224  0.3696
10043TIP3   OH254323   1.540   1.694   9.380  0.4606 -0.0213 -0.1645
10043TIP3    H154324   1.526   1.644   9.460  1.3961 -1.9809 -1.1485
10043TIP3    H254325   1.542   1.785   9.408 -1.9120 -0.4417  1.6290
10044TIP3   OH254326   3.006   5.246   7.769 -0.1326 -0.4619 -0.3788
10044TIP3    H154327   2.975   5.179   7.709  1.2696 -1.1962 -0.3241
10044TIP3    H254328   2.978   5.217   7.855 -0.0390 -0.6644 -0.4172
10045TIP3   OH254329   0.408   6.534   8.701  0.9894  0.4918 -0.4818
10045TIP3    H154330   0.425   6.447   8.739  0.6498  0.9205  0.7065
10045TIP3    H254331   0.418   6.594   8.775 -4.3685  0.9452  0.2998
10046TIP3   OH254332   0.202   4.381   9.423 -0.1466  0.0566  0.1604
10046TIP3    H154333   0.224   4.302   9.373  0.6339  0.4949 -0.2088
10046TIP3    H254334   0.151   4.349   9.497 -0.6416 -0.6934 -0.4874
10047TIP3   OH254335   4.887   3.100   9.277 -0.2685  0.0951 -0.0002
10047TIP3    H154336   4.901   3.007   9.258  1.5047  0.3652 -0.1916
10047TIP3    H254337   4.938   3.146   9.211 -2.5509  1.2906 -1.0464
10048TIP3   OH254338   1.277   4.778   8.790 -0.2727 -0.2286  0.0640
10048TIP3    H154339   1.355   4.743   8.832 -0.1627 -1.7990 -1.3434
10048TIP3    H254340   1.310   4.840   8.725 -0.3098  0.3058  0.5430
10049TIP3   OH254341   2.451   1.777   7.991 -0.0676  0.1758 -0.0441
10049TIP3    H154342   2.446   1.792   8.085 -0.6211 -0.7237  0.0774
10049TIP3    H254343   2.536   1.814   7.966  0.2812  0.0326  0.8773
10050TIP3   OH254344   0.328   0.266   8.941 -0.6338  0.6756  0.1896
10050TIP3    H154345   0.404   0.217   8.908 -0.8152 -1.0323  2.0461
10050TIP3    H254346   0.252   0.218   8.908 -0.8466  0.7934  0.5030
10051TIP3   OH254347   0.575   0.955   6.592  0.3177  0.1332  0.2872
10051TIP3    H154348   0.555   1.028   6.532 -1.4681 -1.3300 -1.0257
10051TIP3    H254349   0.543   0.985   6.677 -1.3053  0.5543 -0.4277
10052TIP3   OH254350   5.944   1.780   9.674  0.1296  0.6756 -0.0517
10052TIP3    H154351   5.857   1.776   9.714  0.7787 -1.4939  1.2895
10052TIP3    H254352   5.962   1.690   9.646  1.8945  1.1033 -0.4143
10053TIP3   OH254353   1.396   4.508   9.055  0.2246  0.1291 -0.4688
10053TIP3    H154354   1.419   4.562   9.131 -1.1324 -0.0428  0.0774
10053TIP3    H254355   1.456   4.434   9.060 -0.1533 -0.1251  0.7224
10054TIP3   OH254356   6.630   5.427   9.161  0.2384 -0.3445  0.2281
10054TIP3    H154357   6.674   5.352   9.202  1.3320  0.1937  0.0687
10054TIP3    H254358   6.697   5.495   9.156 -0.3060  0.1335 -1.0262
10055TIP3   OH254359   0.726   0.102   7.336 -0.0566 -0.1885 -0.5114
10055TIP3    H154360   0.751   0.149   7.256  1.9972  0.0006  0.1744
10055TIP3    H254361   0.776   0.021   7.332  2.3151  1.0022  1.7996
10056TIP3   OH254362   4.018   5.720   7.886  0.0094  0.2947  0.2339
10056TIP3    H154363   4.083   5.649   7.884 -0.6414 -0.3580  1.3829
10056TIP3    H254364   3.981   5.716   7.974 -1.7294  0.5275 -0.4464
10057TIP3   OH254365   1.267   4.942   7.333  0.4238  0.0710  0.0864
10057TIP3    H154366   1.296   4.869   7.278 -0.2630 -1.0415  1.1516
10057TIP3    H254367   1.212   4.901   7.400  0.6183  1.4881  1.1530
10058TIP3   OH254368   5.891   1.337   8.735  0.0950 -0.0377 -0.3721
10058TIP3    H154369   5.803   1.373   8.738 -0.6361 -1.7747  1.5977
10058TIP3    H254370   5.933   1.381   8.661 -2.3610  0.9138 -1.2876
10059TIP3   OH254371   3.558   0.915   8.401 -0.8492 -0.4468  0.4707
10059TIP3    H154372   3.601   0.902   8.485 -0.2909  1.0409  0.4577
10059TIP3    H254373   3.604   0.856   8.341  0.3988  0.2326  0.7245
10060TIP3   OH254374   5.671   4.719   8.419 -0.0413  0.0045  0.2505
10060TIP3    H154375   5.624   4.801   8.428 -0.7616 -0.5113  1.3196
10060TIP3    H254376   5.636   4.662   8.488 -0.2906 -1.5418 -1.0773
10061TIP3   OH254377   4.048   4.041   9.207 -0.5018  0.6109  0.2500
10061TIP3    H154378   3.964   4.085   9.192 -0.8389 -0.0233  0.2445
10061TIP3    H254379   4.058   3.983   9.132 -0.1857  0.4900  0.3862
10062TIP3   OH254380   5.912   5.936   7.846 -0.0941 -0.1206 -0.0305
10062TIP3    H154381   5.851   5.871   7.881 -0.9481  0.7938  0.2328
10062TIP3    H254382   5.921   6.000   7.917  1.3310 -0.3456  0.0054
10063TIP3   OH254383   4.073   3.697   7.983 -0.2587 -0.7195 -0.4078
10063TIP3    H154384   4.026   3.639   8.042  0.3550 -2.3684 -1.4580
10063TIP3    H254385   4.158   3.710   8.025 -0.8386  0.4771  0.4341
10064TIP3   OH254386   0.675   6.613   9.369 -0.4005 -0.9968 -0.0665
10064TIP3    H154387   0.765   6.583   9.383  0.0205  1.2115  2.7471
10064TIP3    H254388   0.620   6.539   9.396  0.5379 -1.8254 -0.3738
10065TIP3   OH254389   1.107   2.505  10.162 -0.9592 -0.7976 -0.1164
10065TIP3    H154390   1.138   2.515  10.252 -2.8820 -0.1605  0.5257
10065TIP3    H254391   1.129   2.588  10.119 -0.3698 -0.9652 -0.1547
10066TIP3   OH254392   1.876   3.873   7.170  0.3013  0.2036  0.1375
10066TIP3    H154393   1.965   3.838   7.169 -0.1802 -1.1147  1.2731
10066TIP3    H254394   1.819   3.797   7.162 -0.7467  0.9315  0.4147
10067TIP3   OH254395   1.477   0.100   8.505  0.2065  0.6717  0.3496
10067TIP3    H154396   1.443   0.046   8.577 -1.0940 -0.0890 -0.8043
10067TIP3    H254397   1.568   0.070   8.494 -0.5281 -1.4430 -0.3775
10068TIP3   OH254398   4.888   4.448   8.923  0.1504  0.2363 -0.0265
10068TIP3    H154399   4.945   4.516   8.886 -0.5463  0.7691 -0.1403
10068TIP3    H254400   4.871   4.478   9.012 -0.3525  0.3348 -0.1547
10069TIP3   OH254401   5.403   1.687   7.741 -0.4099 -0.5240 -0.0004
10069TIP3    H154402   5.482   1.731   7.708  0.1570 -0.8970  0.8000
10069TIP3    H254403   5.334   1.752   7.733  0.0317 -0.1072 -0.5086
10070TIP3   OH254404   5.554   6.074   6.845 -0.1996  0.0194 -0.7590
10070TIP3    H154405   5.527   6.141   6.908  1.9858  0.6344 -0.3851
10070TIP3    H254406   5.616   6.019   6.893 -0.0147 -0.7245 -1.8100
10071TIP3   OH254407   5.016   1.714   7.529 -0.2614  0.1631  0.6753
10071TIP3    H154408   5.048   1.789   7.479  1.1013 -0.0616  1.1669
10071TIP3    H254409   5.095   1.666   7.554 -1.1283 -1.8529 -0.2162
10072TIP3   OH254410   0.301   6.129   9.194  0.1646  0.2650  0.6565
10072TIP3    H154411   0.338   6.212   9.163 -0.4165 -0.0308 -0.9177
10072TIP3    H254412   0.288   6.077   9.115 -0.3597 -0.9754  1.5209
10073TIP3   OH254413   4.881   5.482   8.607  0.2294 -0.3340  0.1027
10073TIP3    H154414   4.902   5.561   8.657 -0.6598 -0.3121  0.4635
10073TIP3    H254415   4.786   5.480   8.605  0.2555 -0.7551 -0.9450
10074TIP3   OH254416   1.695   2.815   9.966 -0.2420  0.1169  0.5231
10074TIP3    H154417   1.746   2.739   9.993  0.3636 -0.0786 -1.0581
10074TIP3    H254418   1.620   2.816  10.025 -0.1505 -1.5845  0.7095
10075TIP3   OH254419   0.168   6.173   7.844 -0.4005  0.1476  0.3075
10075TIP3    H154420   0.220   6.180   7.924 -1.0644 -1.4328  0.9332
10075TIP3    H254421   0.078   6.167   7.875 -0.9040  1.8758 -0.7149
10076TIP3   OH254422   5.113   5.833   8.008 -0.1867  0.5688  0.0841
10076TIP3    H154423   5.081   5.915   8.045  2.4601  1.0758  1.4903
10076TIP3    H254424   5.079   5.833   7.918 -0.3898  3.1408  0.0872
10077TIP3   OH254425   2.530   1.496   7.905 -0.0126 -0.1291 -0.5204
10077TIP3    H154426   2.463   1.564   7.904  0.8587  0.7805  0.1990
10077TIP3    H254427   2.592   1.524   7.972  1.2473 -0.7647 -1.3571
10078TIP3   OH254428   2.122   0.203   8.925 -0.1329 -0.0447  0.1920
10078TIP3    H154429   2.086   0.198   8.837  1.8134 -0.2413 -0.6373
10078TIP3    H254430   2.125   0.112   8.955  1.6879 -0.3112 -0.6461
10079TIP3   OH254431   1.179   2.860   6.551  0.3803 -0.3871 -0.1129
10079TIP3    H154432   1.120   2.927   6.518 -0.6699 -0.5137  1.4093
10079TIP3    H254433   1.196   2.885   6.642  0.5662 -1.7606  0.2605
10080TIP3   OH254434   6.663   6.685   6.703 -0.3743 -0.3035 -0.3341
10080TIP3    H154435   6.657   6.592   6.679  2.0967 -0.7590  0.5326
10080TIP3    H254436   6.652   6.685   6.798  2.1484 -0.0931  0.0247
10081TIP3   OH254437   2.069   1.527   8.850 -0.1507  0.4349  0.0734
10081TIP3    H154438   2.036   1.588   8.916  2.1962  0.6220  1.1812
10081TIP3    H254439   2.157   1.558   8.831 -0.3689 -0.2511 -2.4248
10082TIP3   OH254440   6.004   4.218   7.056 -0.0852 -0.0520  0.4947
10082TIP3    H154441   5.909   4.222   7.050 -0.0412  0.7166  0.1719
10082TIP3    H254442   6.023   4.218   7.149 -0.4415 -1.5794  0.5916
10083TIP3   OH254443   3.405   4.856   7.273 -0.0222 -0.0742  0.1416
10083TIP3    H154444   3.492   4.895   7.283  1.5223 -2.5349 -2.2338
10083TIP3    H254445   3.377   4.882   7.186 -0.6049 -1.1470 -0.0092
10084TIP3   OH254446   5.488   4.282   9.731 -0.2641  0.6263  0.2242
10084TIP3    H154447   5.485   4.187   9.739  0.9647  0.6450  1.2689
10084TIP3    H254448   5.422   4.303   9.665 -0.1334 -1.0003 -0.4631
10085TIP3   OH254449   1.138   1.163   9.181 -0.4854 -0.0688 -0.1224
10085TIP3    H154450   1.093   1.115   9.112  1.4425  1.4563 -2.6119
10085TIP3    H254451   1.179   1.095   9.235 -0.7381 -1.2847 -1.4054
10086TIP3   OH254452   3.362   5.029   8.142 -0.2493  0.1434  0.6452
10086TIP3    H154453   3.310   4.952   8.117  0.8085 -0.3939  0.0664
10086TIP3    H254454   3.414   4.999   8.217  1.3785 -0.2341 -0.5908
10087TIP3   OH254455   2.399   2.147   6.824 -0.2740 -0.4120 -0.3482
10087TIP3    H154456   2.317   2.189   6.848  0.0111 -0.0224 -0.0414
10087TIP3    H254457   2.383   2.109   6.738 -0.7204 -0.1839 -0.3653
10088TIP3   OH254458   5.380   5.442   8.771  0.4102  0.3509  0.1234
10088TIP3    H154459   5.354   5.359   8.730  1.9436  0.6232 -1.5489
10088TIP3    H254460   5.301   5.495   8.770 -0.5457 -1.0011  1.0330
10089TIP3   OH254461   1.496   2.347   6.664 -0.2338  0.2640  0.3089
10089TIP3    H154462   1.511   2.377   6.754 -0.5798 -2.0855  1.2039
10089TIP3    H254463   1.411   2.384   6.640 -1.4776 -1.3189  2.0310
10090TIP3   OH254464   5.194   2.803   7.216 -0.5915  0.0248  0.0403
10090TIP3    H154465   5.113   2.829   7.172  0.0813  0.6229 -0.8713
10090TIP3    H254466   5.173   2.808   7.309 -1.2895  1.1739 -0.1641
10091TIP3   OH254467   2.793   6.018   8.012  0.3154  0.2037  0.0839
10091TIP3    H154468   2.770   5.925   8.020  2.1271 -0.3766 -0.7615
10091TIP3    H254469   2.850   6.022   7.934 -0.6468  2.2264 -0.5945
10092TIP3   OH254470   3.291   6.382   9.617 -0.5931 -0.5224 -0.1749
10092TIP3    H154471   3.381   6.363   9.644  0.6662  2.5198 -1.7095
10092TIP3    H254472   3.293   6.383   9.522 -1.9003  0.8815 -0.2408
10093TIP3   OH254473   4.558   2.293   8.338  0.1226  0.5286  0.0982
10093TIP3    H154474   4.640   2.305   8.386  0.4455  2.0505 -0.7389
10093TIP3    H254475   4.493   2.342   8.388 -0.4940 -1.3319  1.1924
10094TIP3   OH254476   0.184   0.651   7.522  0.2570 -0.5051 -0.3147
10094TIP3    H154477   0.099   0.691   7.502  0.3903  0.3049  0.6461
10094TIP3    H254478   0.245   0.692   7.460  0.4196  0.9677  0.7545
10095TIP3   OH254479   6.238   2.368   8.677 -0.2883  0.0759  0.6197
10095TIP3    H154480   6.246   2.346   8.770  0.4052 -1.7042  0.1757
10095TIP3    H254481   6.232   2.284   8.633 -1.9085  0.9083 -0.8764
10096TIP3   OH254482   0.047   0.255   7.287 -0.3419 -1.1567  0.3072
10096TIP3    H154483   0.108   0.218   7.351  0.7316  0.8844  0.5208
10096TIP3    H254484  -0.027   0.285   7.339  0.5844  0.6159  0.6927
10097TIP3   OH254485   3.540   6.668   7.857  0.8602  0.2236  0.4972
10097TIP3    H154486   3.500   6.708   7.934 -0.9493  2.0634 -1.2822
10097TIP3    H254487   3.528   6.574   7.870  0.3073  0.4955  2.2677
10098TIP3   OH254488   1.668   0.718   6.423 -0.0213 -0.3987 -0.2981
10098TIP3    H154489   1.758   0.709   6.455  0.0535  1.0195 -0.0484
10098TIP3    H254490   1.621   0.646   6.465  0.7265 -0.3759  0.6255
10099TIP3   OH254491   5.872   1.051   8.404 -0.1484  0.2417 -0.3827
10099TIP3    H154492   5.834   1.127   8.358  0.7759  1.1725  0.3326
10099TIP3    H254493   5.847   1.063   8.495  0.0172 -0.3172 -0.2621
10100TIP3   OH254494   5.194   2.086   7.264  0.0624  0.2286 -0.2436
10100TIP3    H154495   5.139   2.009   7.270  0.2313  0.0114 -1.3160
10100TIP3    H254496   5.133   2.160   7.262 -0.1436  0.0564 -0.2895
10101TIP3   OH254497   1.742   6.162   6.803 -0.0406  0.1281  0.5288
10101TIP3    H154498   1.647   6.177   6.797  0.1527  0.8461 -2.1449
10101TIP3    H254499   1.752   6.067   6.799 -0.6508  0.0291  1.1678
10102TIP3   OH254500   3.433   4.123   7.577 -0.0256 -0.3117  0.2295
10102TIP3    H154501   3.412   4.032   7.556 -0.3837 -0.7435  2.2197
10102TIP3    H254502   3.528   4.127   7.580 -0.0129 -0.6976  0.3647
10103TIP3   OH254503   1.874   6.031   8.115 -0.3781  0.4391  0.5315
10103TIP3    H154504   1.873   6.116   8.159 -0.6102  0.9761 -0.4889
10103TIP3    H254505   1.785   5.997   8.127 -0.6300  0.8757 -0.0716
10104TIP3   OH254506   0.068   3.767   7.904 -0.3516  0.5711 -0.3042
10104TIP3    H154507   0.139   3.831   7.899 -1.8995  2.3045 -2.7132
10104TIP3    H254508  -0.001   3.812   7.953 -0.3672 -0.4983  0.6941
10105TIP3   OH254509   5.500   6.406   8.751 -0.3148  0.2738 -0.0662
10105TIP3    H154510   5.500   6.409   8.656 -0.6648 -1.6612 -0.1568
10105TIP3    H254511   5.410   6.427   8.776  0.2890  3.1598  0.0059
10106TIP3   OH254512   4.641   5.001   8.642 -0.1438  0.1438  0.3979
10106TIP3    H154513   4.572   4.934   8.633 -0.9250  0.7703  1.3839
10106TIP3    H254514   4.704   4.962   8.703 -0.9050  0.5052  1.4527
10107TIP3   OH254515   3.100   5.823   6.865  0.0792  0.1745  0.5326
10107TIP3    H154516   3.065   5.908   6.890 -0.3373  0.0221  0.4827
10107TIP3    H254517   3.046   5.796   6.790 -0.7579 -0.7782  1.4444
10108TIP3   OH254518   6.366   5.762  10.194  0.6075  0.1005  0.4366
10108TIP3    H154519   6.410   5.716  10.266  0.5863 -0.1903  0.2679
10108TIP3    H254520   6.338   5.692  10.135 -1.2599  0.1481  1.1816
10109TIP3   OH254521   5.374   1.204   8.101 -0.1276  0.5028 -0.3262
10109TIP3    H154522   5.348   1.127   8.151 -1.7807  0.7115 -0.8106
10109TIP3    H254523   5.467   1.191   8.083 -0.3307 -1.2634 -0.2073
10110TIP3   OH254524   4.706   6.538   8.221  0.3354  1.1545  0.3602
10110TIP3    H154525   4.736   6.608   8.162 -0.1553  0.9749 -0.1199
10110TIP3    H254526   4.689   6.464   8.163  0.5677  0.7305  0.8297
10111TIP3   OH254527   1.839   2.851   8.489 -0.1582 -0.5806 -0.2897
10111TIP3    H154528   1.922   2.825   8.529  0.2962  0.3312 -0.6317
10111TIP3    H254529   1.772   2.811   8.545  0.4609  0.5818  1.3556
10112TIP3   OH254530   1.925   0.782   7.926 -0.2123  0.8465  0.1146
10112TIP3    H154531   1.913   0.875   7.944  0.0266  0.7715  0.6772
10112TIP3    H254532   1.907   0.738   8.009  1.9144  0.5793  0.4839
10113TIP3   OH254533   3.177   4.338   9.231 -0.0720 -0.9092 -0.4467
10113TIP3    H154534   3.172   4.382   9.315 -3.1739 -0.8695 -0.5619
10113TIP3    H254535   3.212   4.404   9.171 -3.6888  1.2594 -0.4156
10114TIP3   OH254536   2.945   4.268   7.826 -0.0340  0.6529  0.2647
10114TIP3    H154537   2.883   4.218   7.772  1.4427  0.5664 -1.4515
10114TIP3    H254538   2.937   4.230   7.913 -1.4698 -0.1902 -0.1961
10115TIP3   OH254539   5.818   0.744   7.010  0.1373  0.1067  0.5615
10115TIP3    H154540   5.774   0.829   7.014 -1.3037 -0.6307  1.2619
10115TIP3    H254541   5.764   0.691   6.951  1.0890 -0.2972  0.0329
10116TIP3   OH254542   5.631   4.090   6.742  0.0334 -0.4748 -0.0991
10116TIP3    H154543   5.656   4.118   6.655  0.3136  2.7458  0.8850
10116TIP3    H254544   5.540   4.120   6.752 -0.8114 -2.8136  0.0105
10117TIP3   OH254545   4.806   1.846   7.681 -0.0810 -0.0673  0.2399
10117TIP3    H154546   4.748   1.896   7.622  0.4089  0.5839  0.3048
10117TIP3    H254547   4.875   1.813   7.623 -0.7278 -1.2107  0.0842
10118TIP3   OH254548   6.462   4.660   6.591  0.3870  0.5464 -0.2198
10118TIP3    H154549   6.388   4.719   6.574  0.9099  0.9000 -1.3404
10118TIP3    H254550   6.538   4.706   6.557  0.7311 -1.0288 -1.7577
10119TIP3   OH254551   3.623   1.385   8.824 -0.0038  0.0477  0.0537
10119TIP3    H154552   3.705   1.340   8.841  0.0755  0.3435  0.4503
10119TIP3    H254553   3.641   1.439   8.746  0.5648  1.0850  0.8776
10120TIP3   OH254554   5.356   0.568   6.886 -0.1049  0.1983 -0.1318
10120TIP3    H154555   5.302   0.517   6.826  0.6402 -2.4113  1.2496
10120TIP3    H254556   5.331   0.537   6.973  2.0609  0.4524  0.6589
10121TIP3   OH254557   1.676   5.425   8.359 -0.2723  0.1480 -0.5733
10121TIP3    H154558   1.709   5.341   8.327  0.2563  0.0850  0.1069
10121TIP3    H254559   1.675   5.415   8.454 -0.4417  0.8280 -0.5028
10122TIP3   OH254560   3.275   4.545   9.087  0.0744  0.7875  0.6806
10122TIP3    H154561   3.356   4.563   9.135  1.2277  0.2227 -0.9488
10122TIP3    H254562   3.234   4.631   9.075  0.7560  1.1575  0.9910
10123TIP3   OH254563   1.329   1.597   6.501 -0.0645 -0.1683 -0.1228
10123TIP3    H154564   1.350   1.654   6.427 -1.3212  1.4861  0.7233
10123TIP3    H254565   1.244   1.627   6.532  0.0825 -1.2905  1.5562
10124TIP3   OH254566   6.002   5.584   7.914  0.4003 -0.7121  0.4763
10124TIP3    H154567   6.056   5.577   7.993  0.1411 -2.2030  0.5552
10124TIP3    H254568   5.977   5.494   7.895  0.0646 -0.3211 -1.0461
10125TIP3   OH254569   5.135   2.527   7.131 -0.0474 -0.6418 -0.4924
10125TIP3    H154570   5.185   2.606   7.152  0.5425 -0.9331 -0.7620
10125TIP3    H254571   5.155   2.511   7.038 -0.5133 -0.8549 -0.5545
10126TIP3   OH254572   4.045   0.409   9.773 -0.1038  0.5021 -0.3477
10126TIP3    H154573   4.119   0.468   9.760 -0.2173  0.6788 -0.2077
10126TIP3    H254574   4.063   0.334   9.717  0.3775  0.3646 -0.0099
10127TIP3   OH254575   2.142   2.524   6.765 -0.0491  0.3361 -0.0819
10127TIP3    H154576   2.212   2.579   6.729 -0.2542 -0.0959 -1.1596
10127TIP3    H254577   2.095   2.582   6.825 -0.0757  1.2590 -0.9666
10128TIP3   OH254578   6.354   6.073   8.711  0.0165  0.0335 -0.3797
10128TIP3    H154579   6.384   6.113   8.793 -1.6601 -1.4490  1.0612
10128TIP3    H254580   6.435   6.047   8.666  1.0402 -1.3757  2.0469
10129TIP3   OH254581   2.636   2.559   6.696  0.4700  0.1678  0.7559
10129TIP3    H154582   2.727   2.561   6.665  0.7304 -2.9638  0.9066
10129TIP3    H254583   2.627   2.472   6.735 -2.9670 -0.1591 -0.4296
10130TIP3   OH254584   1.665   0.772   8.243 -0.0205  0.3702 -0.0539
10130TIP3    H154585   1.760   0.774   8.229  0.0602  0.2326  0.4458
10130TIP3    H254586   1.648   0.846   8.300 -0.5077  1.6213 -1.7521
10131TIP3   OH254587   0.494   4.600   8.694 -0.2876 -0.1889  0.4422
10131TIP3    H154588   0.572   4.599   8.638 -0.9721 -0.3082 -0.5289
10131TIP3    H254589   0.513   4.665   8.761  0.1661  0.6557 -0.4896
10132TIP3   OH254590   1.049   1.312   7.321 -0.2761 -0.4087 -0.2375
10132TIP3    H154591   1.016   1.234   7.276  2.2228  0.2522 -3.5929
10132TIP3    H254592   1.098   1.278   7.395 -2.4360 -1.7094  0.6972
10133TIP3   OH254593   0.550   5.839   8.419 -0.2729  0.3244 -0.0725
10133TIP3    H154594   0.477   5.897   8.397 -0.4913  0.4370  0.9002
10133TIP3    H254595   0.578   5.803   8.335  0.0267  2.0148 -0.7385
10134TIP3   OH254596   3.827   6.075   8.968  0.0640 -0.0587 -1.3852
10134TIP3    H154597   3.877   6.003   8.929  0.0756  0.5324 -2.5149
10134TIP3    H254598   3.878   6.153   8.948 -0.1389  0.3130 -0.4930
10135TIP3   OH254599   1.580   1.914   8.991 -0.5874 -0.5703 -0.2584
10135TIP3    H154600   1.538   1.835   9.022 -2.0509 -0.0594 -0.8449
10135TIP3    H254601   1.646   1.883   8.929 -1.2542 -1.3286 -0.6065
10136TIP3   OH254602   6.672   6.227   7.330 -0.0018  0.1821 -0.0840
10136TIP3    H154603   6.649   6.253   7.240 -0.2398  0.3714  0.0324
10136TIP3    H254604   6.658   6.305   7.382  0.2717  0.1110  0.0999
10137TIP3   OH254605   1.770   4.567   8.707 -0.5138  0.1254 -0.0966
10137TIP3    H154606   1.775   4.629   8.634  0.1613 -0.6923 -0.7638
10137TIP3    H254607   1.678   4.542   8.711 -0.6387  0.5372 -0.3639
10138TIP3   OH254608   5.784   4.029   7.834  0.0259  0.0631 -0.1858
10138TIP3    H154609   5.868   4.068   7.809  0.2845 -0.3162  0.0795
10138TIP3    H254610   5.742   4.095   7.889  0.8332 -0.3516  0.9711
10139TIP3   OH254611   0.355   4.035   7.000 -0.3075  0.2432  0.5095
10139TIP3    H154612   0.448   4.016   7.015 -0.4087 -0.1563  0.6292
10139TIP3    H254613   0.323   4.068   7.084  0.0338  1.6222  0.1129
10140TIP3   OH254614   5.033   4.387   7.680  0.2445  0.0975 -0.0468
10140TIP3    H154615   4.967   4.422   7.620  0.2274 -1.8020 -1.2191
10140TIP3    H254616   5.017   4.292   7.680  0.5742 -0.0311  2.6063
10141TIP3   OH254617   4.365   1.716   9.940 -0.3921  0.6052  0.1165
10141TIP3    H154618   4.386   1.768  10.017  2.0024  1.4835 -1.0173
10141TIP3    H254619   4.326   1.636   9.975  0.6143  0.9623  2.2463
10142TIP3   OH254620   1.730   5.747   6.509 -0.5921 -0.3085  0.0807
10142TIP3    H154621   1.825   5.757   6.500 -0.5071 -0.0197  1.2149
10142TIP3    H254622   1.719   5.671   6.566 -1.0670 -0.7123 -0.5291
10143TIP3   OH254623   5.394   4.085   7.938 -0.3622  0.4537 -0.0632
10143TIP3    H154624   5.432   4.126   7.859  1.9837  0.9507  1.2221
10143TIP3    H254625   5.417   3.992   7.930 -0.6144  0.4025 -0.2123
10144TIP3   OH254626   5.995   0.813   9.388 -0.2717  0.4293 -0.0331
10144TIP3    H154627   6.041   0.855   9.460  1.4716  0.1184 -0.9137
10144TIP3    H254628   5.912   0.861   9.381 -1.1413 -0.3942  3.0038
10145TIP3   OH254629   5.568   4.401   7.237 -0.1596  0.4284  0.0950
10145TIP3    H154630   5.491   4.348   7.217 -0.8834  1.3569  0.3571
10145TIP3    H254631   5.598   4.434   7.152  1.1405 -1.4881 -0.2488
10146TIP3   OH254632   3.675   0.440   8.540 -0.1879 -0.0951 -0.0022
10146TIP3    H154633   3.599   0.484   8.578  0.5836  1.2819  0.0064
10146TIP3    H254634   3.638   0.365   8.493 -1.3977 -0.2919  1.2003
10147TIP3   OH254635   3.254   3.220   6.577  0.0502  0.3644 -0.1876
10147TIP3    H154636   3.217   3.299   6.538 -0.2534  0.4613  0.2903
10147TIP3    H254637   3.290   3.249   6.660  1.5464  0.3420 -0.7982
10148TIP3   OH254638   0.633   5.415   7.789  0.1384  0.0157  0.1220
10148TIP3    H154639   0.599   5.351   7.726 -1.1020 -0.8224  1.5696
10148TIP3    H254640   0.722   5.385   7.806 -0.6893 -1.9348  1.4169
10149TIP3   OH254641   2.382   6.625   9.925 -0.0242 -0.5236 -0.0366
10149TIP3    H154642   2.293   6.592   9.918  0.5250 -2.0900 -0.0537
10149TIP3    H254643   2.382   6.706   9.874 -1.3932 -0.5540 -0.1220
10150TIP3   OH254644   0.064   0.902   7.775  0.2988  0.6742 -0.7805
10150TIP3    H154645  -0.020   0.933   7.743  1.3350  0.5119 -3.9567
10150TIP3    H254646   0.045   0.815   7.810 -0.7342  0.1559 -2.4998
10151TIP3   OH254647   1.519   2.258   9.374  0.3986 -0.1498 -0.3880
10151TIP3    H154648   1.483   2.342   9.347 -0.8413 -0.7316 -0.6100
10151TIP3    H254649   1.526   2.207   9.293 -0.1154 -0.7198 -0.0824
10152TIP3   OH254650   0.164   5.020   7.804  0.1496  0.1783 -0.8207
10152TIP3    H154651   0.085   5.038   7.754 -0.8442 -1.1247  0.2216
10152TIP3    H254652   0.229   4.996   7.738 -1.1686 -1.6531 -1.5231
10153TIP3   OH254653   2.904   4.713   8.822  0.6333  0.1071  0.3081
10153TIP3    H154654   2.826   4.663   8.802  0.5643  0.0542  0.7178
10153TIP3    H254655   2.944   4.669   8.897  0.1653  1.0844  1.1657
10154TIP3   OH254656   5.512   4.428   6.991  0.2150 -0.1617  0.1917
10154TIP3    H154657   5.490   4.367   6.920  0.5776 -0.8633  0.6704
10154TIP3    H254658   5.433   4.481   7.002  0.2888  0.2479 -1.0089
10155TIP3   OH254659   2.499   1.840   7.573 -0.2369 -0.5405  0.0087
10155TIP3    H154660   2.497   1.902   7.500  0.9482 -0.1249  0.2983
10155TIP3    H254661   2.538   1.761   7.536  1.6297  0.1090  0.4538
10156TIP3   OH254662   4.782   3.860  10.191  0.5984 -0.5318 -0.8612
10156TIP3    H154663   4.858   3.918  10.198  0.1270  0.0006  0.0575
10156TIP3    H254664   4.797   3.793  10.257  0.5825 -0.7959 -1.1258
10157TIP3   OH254665   6.515   0.461   8.985 -0.0797 -0.1238 -0.4122
10157TIP3    H154666   6.585   0.397   8.996 -1.2411 -1.1877  1.3056
10157TIP3    H254667   6.438   0.408   8.965 -0.3249  1.0629 -3.0226
10158TIP3   OH254668   4.265   6.522   8.057  0.3161  0.2864  0.0553
10158TIP3    H154669   4.191   6.583   8.064  0.0853  0.0899 -0.5893
10158TIP3    H254670   4.230   6.438   8.088  0.0896  0.0579 -0.7885
10159TIP3   OH254671   6.627   1.570   8.545  0.3842 -0.4140 -0.5693
10159TIP3    H154672   6.588   1.482   8.542 -0.7489  0.0911 -1.6240
10159TIP3    H254673   6.687   1.572   8.471  0.0384 -0.1507 -0.8485
10160TIP3   OH254674   5.483   2.016   8.628 -0.2410 -0.1650 -0.4016
10160TIP3    H154675   5.444   1.980   8.707 -1.1065  0.8015 -0.3646
10160TIP3    H254676   5.516   2.102   8.655 -1.9452  0.8638 -1.4208
10161TIP3   OH254677   2.018   6.508   7.092  0.1407 -0.2429  0.4075
10161TIP3    H154678   1.958   6.453   7.040 -0.2889 -0.0822  0.7236
10161TIP3    H254679   2.008   6.596   7.054 -0.0772 -0.1510  0.6763
10162TIP3   OH254680   6.319   1.188   8.737  0.1478 -0.2490 -0.0625
10162TIP3    H154681   6.286   1.229   8.817  0.1607 -1.7324  0.7377
10162TIP3    H254682   6.251   1.126   8.711  2.1232 -3.4614  1.6985
10163TIP3   OH254683   1.095   4.979   8.479  0.2922 -0.5265 -0.1105
10163TIP3    H154684   1.051   5.025   8.550 -0.1143  0.6325 -1.0819
10163TIP3    H254685   1.025   4.933   8.433  0.1897  0.5440 -1.0797
10164TIP3   OH254686   2.135   1.882   9.273 -0.1177  0.1569  0.1597
10164TIP3    H154687   2.073   1.826   9.320  0.5066 -1.1613 -0.5150
10164TIP3    H254688   2.163   1.947   9.337 -2.0748  0.7149  0.5281
10165TIP3   OH254689   0.719   4.679   7.929 -0.0099 -0.4351 -0.6895
10165TIP3    H154690   0.728   4.617   8.001 -0.3215 -1.7034 -1.7006
10165TIP3    H254691   0.625   4.685   7.914  0.0942 -1.2349 -1.8349
10166TIP3   OH254692   3.044   2.751   8.267  0.2466 -0.1359 -0.2347
10166TIP3    H154693   3.117   2.721   8.213  0.7318  2.0629 -0.9265
10166TIP3    H254694   3.005   2.671   8.302  1.6488 -1.4825 -1.5898
10167TIP3   OH254695   0.861   5.568   9.060 -0.8600 -0.2617 -0.1852
10167TIP3    H154696   0.816   5.485   9.042  1.2169 -1.2697 -1.0981
10167TIP3    H254697   0.879   5.565   9.154  1.3934 -2.1436 -0.5611
10168TIP3   OH254698   5.475   3.829   9.004  0.5914  0.0967  0.1858
10168TIP3    H154699   5.479   3.734   9.008  2.0313  0.1172 -0.3804
10168TIP3    H254700   5.566   3.858   9.000  0.1656  1.4278 -0.9666
10169TIP3   OH254701   5.520   4.030   7.652  0.2157 -0.0441 -0.1727
10169TIP3    H154702   5.591   4.009   7.713  0.2566  0.8626  0.1078
10169TIP3    H254703   5.561   4.085   7.586 -0.5009  1.7339  0.7936
10170TIP3   OH254704   0.478   6.241   8.805 -0.3003 -0.2921  0.5439
10170TIP3    H154705   0.503   6.191   8.728 -0.1716  2.0115 -1.0325
10170TIP3    H254706   0.472   6.177   8.875  1.2323 -2.2459 -1.0021
10171TIP3   OH254707   3.543   2.127   6.713 -0.1456 -0.1497 -0.5670
10171TIP3    H154708   3.527   2.092   6.625 -0.1003  0.2604 -0.7426
10171TIP3    H254709   3.608   2.196   6.700  0.6057 -0.7486 -0.0689
10172TIP3   OH254710   0.120   1.418   7.826 -0.5894 -0.0573  0.1494
10172TIP3    H154711   0.104   1.323   7.831  1.5592 -0.3926  1.7284
10172TIP3    H254712   0.177   1.437   7.900 -1.0059  2.5203 -0.1041
10173TIP3   OH254713   2.321   5.607   6.810  0.1321 -0.3915  0.1946
10173TIP3    H154714   2.316   5.600   6.715 -0.1071  1.4074  0.0573
10173TIP3    H254715   2.234   5.638   6.837 -0.0256 -1.5246  1.0860
10174TIP3   OH254716   3.056   2.602   7.555  0.3565 -0.0352 -0.2719
10174TIP3    H154717   3.076   2.559   7.638 -0.8334 -0.1828 -0.0519
10174TIP3    H254718   2.992   2.546   7.513 -0.1592  0.7834 -0.6140
10175TIP3   OH254719   1.392   4.488   9.399  0.2534  0.2348 -0.2319
10175TIP3    H154720   1.359   4.556   9.457 -0.7616 -2.4005  2.4758
10175TIP3    H254721   1.323   4.422   9.396  2.0863 -1.7889 -0.8177
10176TIP3   OH254722   4.776   5.543   6.959 -0.5819 -0.0728 -0.5360
10176TIP3    H154723   4.851   5.512   7.010 -0.2620 -1.3542 -1.7346
10176TIP3    H254724   4.799   5.633   6.935  1.0891 -0.7705 -1.7560
10177TIP3   OH254725   0.129   0.103   8.813 -0.4530  0.1234 -0.0439
10177TIP3    H154726   0.056   0.123   8.755 -1.7072  1.0594  1.7820
10177TIP3    H254727   0.133   0.007   8.815 -0.5288  0.0700 -1.4351
10178TIP3   OH254728   5.310   0.284   7.317  0.3391 -0.1068 -0.3831
10178TIP3    H154729   5.273   0.372   7.315  0.8363  0.1098 -0.3303
10178TIP3    H254730   5.397   0.294   7.278  0.4534 -0.5479 -0.2466
10179TIP3   OH254731   4.124   2.144   7.678  0.6593 -0.2520  0.8507
10179TIP3    H154732   4.080   2.171   7.759  2.0423  0.6606  1.3293
10179TIP3    H254733   4.208   2.189   7.680  0.8522 -0.4580 -0.9606
10180TIP3   OH254734   4.305   3.361   9.217 -0.0908 -0.3656 -0.2112
10180TIP3    H154735   4.376   3.350   9.153  0.2345  1.0978 -0.1430
10180TIP3    H254736   4.238   3.410   9.170 -0.5815 -0.7677  0.0646
10181TIP3   OH254737   0.337   1.811   8.662 -0.4641 -0.3365  0.1753
10181TIP3    H154738   0.346   1.823   8.567 -1.1750  0.1527  0.1609
10181TIP3    H254739   0.376   1.890   8.700  2.8330 -1.9262  0.4668
10182TIP3   OH254740   3.730   0.904   7.399  0.3853  0.0903 -0.5446
10182TIP3    H154741   3.643   0.937   7.422  0.1654 -1.1000  0.4698
10182TIP3    H254742   3.783   0.982   7.386 -1.1854  0.8918 -2.7806
10183TIP3   OH254743   1.662   4.907   6.690 -0.0669 -0.1584 -0.2487
10183TIP3    H154744   1.579   4.897   6.644 -0.5082 -0.6763  0.6327
10183TIP3    H254745   1.671   4.828   6.743 -0.0227  0.7690  1.2188
10184TIP3   OH254746   5.969   3.562   9.397  0.3284  0.4085  0.2516
10184TIP3    H154747   5.930   3.545   9.312  1.4914 -1.7429  0.0953
10184TIP3    H254748   5.903   3.536   9.460 -0.0143  0.6962  0.0146
10185TIP3   OH254749   3.076   5.944   9.347 -0.5512  0.0546  0.1552
10185TIP3    H154750   3.141   5.921   9.413 -0.4729 -0.9939 -0.2583
10185TIP3    H254751   3.063   6.038   9.357  0.6300  0.1849  0.6030
10186TIP3   OH254752   3.764   6.145   7.829  0.3153  0.1519 -0.1955
10186TIP3    H154753   3.810   6.103   7.902  0.2070  2.1209  1.0975
10186TIP3    H254754   3.681   6.098   7.823  1.2876 -1.5803 -0.6645
10187TIP3   OH254755   6.173   6.765   7.586 -0.5090  0.1266 -0.2561
10187TIP3    H154756   6.201   6.856   7.589 -1.3107  0.3595  0.5999
10187TIP3    H254757   6.152   6.744   7.677 -1.0747 -0.6785 -0.5680
10188TIP3   OH254758   0.760   3.684   7.177 -0.6564  0.9104 -0.5678
10188TIP3    H154759   0.841   3.633   7.178 -0.0315  1.8724  0.5477
10188TIP3    H254760   0.693   3.621   7.151  0.0558 -0.5569  0.9395
10189TIP3   OH254761   6.006   0.342   6.789  0.1517  0.7513 -0.2203
10189TIP3    H154762   6.027   0.361   6.697  1.3467  0.2878 -0.0562
10189TIP3    H254763   6.030   0.250   6.800 -0.8167  0.5551  0.3367
10190TIP3   OH254764   4.208   5.541   7.814 -0.0181  0.3254 -0.1045
10190TIP3    H154765   4.250   5.530   7.729 -1.0901 -0.9831 -0.5114
10190TIP3    H254766   4.278   5.532   7.878  0.9047  1.9026 -0.8317
10191TIP3   OH254767   6.258   0.657   7.998 -0.3234 -0.1022  0.7202
10191TIP3    H154768   6.213   0.699   7.925 -0.8004 -0.5448  0.7526
10191TIP3    H254769   6.212   0.573   8.009  0.3776 -0.4681  0.8878
10192TIP3   OH254770   0.587   1.790   8.982 -0.3220 -0.8060 -0.0406
10192TIP3    H154771   0.497   1.794   8.949 -0.5489 -0.2415  0.5983
10192TIP3    H254772   0.577   1.759   9.072  0.2817 -2.3807 -0.4965
10193TIP3   OH254773   4.984   0.941   6.884 -0.2913  0.4658 -0.0891
10193TIP3    H154774   5.016   0.978   6.802 -0.7716  0.9155 -0.0776
10193TIP3    H254775   4.918   0.877   6.857  0.5947 -0.4688 -0.1133
10194TIP3   OH254776   2.293   1.899   9.707  0.0851  0.4245  0.5265
10194TIP3    H154777   2.259   1.818   9.667  1.2036 -0.4328  1.2487
10194TIP3    H254778   2.386   1.881   9.721  1.2014  3.0706 -2.3408
10195TIP3   OH254779   2.630   6.366   9.061 -0.1903 -0.0929 -0.7893
10195TIP3    H154780   2.687   6.397   8.991  0.0671  0.3649 -0.3859
10195TIP3    H254781   2.686   6.310   9.115 -0.0999  0.4153 -0.3523
10196TIP3   OH254782   2.298   3.570   9.812 -0.5888 -0.0961 -0.5744
10196TIP3    H154783   2.268   3.560   9.902  2.0975  1.2213  0.5781
10196TIP3    H254784   2.288   3.664   9.793  0.1825 -0.1017 -1.0954
10197TIP3   OH254785   1.996   1.208   7.650 -0.1075  0.4258 -0.3690
10197TIP3    H154786   2.074   1.160   7.679 -0.3779  0.0683 -0.2201
10197TIP3    H254787   1.981   1.175   7.561  0.5488  1.3036 -0.8184
10198TIP3   OH254788   0.047   2.938   7.541  0.2364  0.0869 -0.6121
10198TIP3    H154789  -0.032   2.982   7.508  0.6279 -1.3001 -3.6675
10198TIP3    H254790   0.087   2.899   7.464  3.7047  0.3022  0.9116
10199TIP3   OH254791   5.921   1.181   6.934 -0.0610 -0.0901 -0.3435
10199TIP3    H154792   5.994   1.131   6.898 -0.0750 -1.4680  1.4070
10199TIP3    H254793   5.962   1.252   6.983  0.1213 -0.6715  0.3657
10200TIP3   OH254794   6.359   4.947   8.516  0.4346 -0.2816  1.0316
10200TIP3    H154795   6.266   4.950   8.538 -0.0832  1.0919 -1.0447
10200TIP3    H254796   6.398   5.023   8.560 -0.2308  1.3437 -0.9904
10201TIP3   OH254797   2.779   5.067   8.142 -0.1837  0.2722  0.1624
10201TIP3    H154798   2.752   5.026   8.224 -1.4708 -1.0519 -0.8668
10201TIP3    H254799   2.711   5.133   8.125 -0.1643  0.2402 -0.0442
10202TIP3   OH254800   0.042   3.177   8.156  0.2581 -0.2625 -0.6298
10202TIP3    H154801   0.011   3.266   8.176  3.5651  1.0231 -0.4901
10202TIP3    H254802   0.034   3.130   8.239  1.7974  1.0712  0.3272
10203TIP3   OH254803   4.635   4.977   7.816  0.1399  0.0442 -0.0170
10203TIP3    H154804   4.619   5.048   7.878  0.8852 -0.4498  0.7611
10203TIP3    H254805   4.705   4.926   7.855 -0.6927 -1.3957 -0.3193
10204TIP3   OH254806   5.787   5.741   8.460 -0.5775  0.4308  0.1330
10204TIP3    H154807   5.737   5.739   8.542 -1.7808 -3.1533 -0.4960
10204TIP3    H254808   5.876   5.719   8.485 -0.9832 -0.8541  0.5213
10205TIP3   OH254809   4.633   1.554   7.231 -0.0601  0.3296 -0.1138
10205TIP3    H154810   4.713   1.510   7.203  0.5052  1.3164 -0.0922
10205TIP3    H254811   4.663   1.633   7.276 -1.0074  2.5487 -3.0454
10206TIP3   OH254812   1.096   3.760   8.786  0.0801 -0.0977  0.0609
10206TIP3    H154813   1.048   3.792   8.710  0.5273 -1.1893 -0.7037
10206TIP3    H254814   1.039   3.694   8.824 -0.3614  0.7876  0.9926
10207TIP3   OH254815   3.040   6.410   9.086  0.1025 -0.3923 -0.1161
10207TIP3    H154816   3.026   6.320   9.056 -2.7166 -0.5324  1.2616
10207TIP3    H254817   3.064   6.401   9.178  2.3261  0.2353 -0.5858
10208TIP3   OH254818   5.969   5.912   9.899 -0.5733  0.0885 -0.5883
10208TIP3    H154819   5.976   5.867   9.983  1.7087  0.0047 -0.7661
10208TIP3    H254820   5.925   5.848   9.842  0.4314 -1.0007 -0.1857
10209TIP3   OH254821   3.934   5.144   8.135  0.2181  0.3989 -0.2126
10209TIP3    H154822   4.023   5.178   8.146 -0.2282  1.6935 -0.4079
10209TIP3    H254823   3.924   5.132   8.040  0.4500 -0.5579 -0.1312
10210TIP3   OH254824   1.870   2.992  10.135  0.0583 -0.4063  0.7407
10210TIP3    H154825   1.829   2.998  10.049 -2.1054  1.4757  1.8031
10210TIP3    H254826   1.871   3.082  10.168 -2.6950 -1.3899  4.1302
10211TIP3   OH254827   5.991   4.803   6.395 -0.2931 -0.0135  0.3117
10211TIP3    H154828   6.034   4.800   6.310 -1.3507  2.8085 -0.4277
10211TIP3    H254829   5.903   4.769   6.379 -0.0916 -0.6919  0.6006
10212TIP3   OH254830   4.583   0.318   8.673  0.4265  0.0954 -0.6211
10212TIP3    H154831   4.552   0.375   8.743  1.3751  0.2705 -0.3217
10212TIP3    H254832   4.539   0.235   8.688  2.9904 -0.9221  2.1780
10213TIP3   OH254833   4.970   3.626   8.333 -0.3198  0.4287  0.1110
10213TIP3    H154834   4.910   3.571   8.384  1.6614 -1.6543  0.3622
10213TIP3    H254835   4.914   3.667   8.267 -2.5011  1.0177  2.1606
10214TIP3   OH254836   0.175   4.072   7.518 -0.2946 -0.3633 -0.2996
10214TIP3    H154837   0.129   4.149   7.483  1.4798  0.6652 -0.5260
10214TIP3    H254838   0.114   4.034   7.581 -0.6521  2.2205  1.0583
10215TIP3   OH254839   5.932   4.085   9.313  0.2295 -0.7208  0.0418
10215TIP3    H154840   6.019   4.125   9.319  0.9395 -2.1315 -0.2819
10215TIP3    H254841   5.950   3.991   9.307 -1.2432 -0.9505 -1.6378
10216TIP3   OH254842   1.007   4.052   7.246  0.5655 -0.1785  0.0577
10216TIP3    H154843   0.922   4.029   7.282  0.0437  1.0560 -0.3478
10216TIP3    H254844   1.014   4.146   7.257  1.3914 -0.0941 -0.9397
10217TIP3   OH254845   4.347   6.666   6.860  0.1260  0.6902 -0.2874
10217TIP3    H154846   4.269   6.613   6.871  0.1036  0.8428  0.3075
10217TIP3    H254847   4.365   6.662   6.766 -0.5902  0.6555 -0.4297
10218TIP3   OH254848   1.172   0.134   9.333  0.6126 -0.2179  0.2955
10218TIP3    H154849   1.208   0.223   9.340 -0.6495  0.2421  1.4132
10218TIP3    H254850   1.159   0.107   9.424 -0.6125 -0.8786 -0.0610
10219TIP3   OH254851   3.938   6.130   8.551  0.0361 -0.3461 -0.3005
10219TIP3    H154852   4.004   6.063   8.570  0.2142  0.4003  1.9948
10219TIP3    H254853   3.979   6.212   8.578 -1.5717  0.2130  0.5812
10220TIP3   OH254854   1.860   0.345   6.547 -0.2461  0.2373 -0.1878
10220TIP3    H154855   1.858   0.333   6.642 -0.0737  0.2048 -0.1892
10220TIP3    H254856   1.879   0.258   6.512 -0.9070  0.1229 -0.2783
10221TIP3   OH254857   0.390   1.150   7.852 -0.0543 -0.1561  0.0589
10221TIP3    H154858   0.385   1.186   7.763  0.4384  1.0938  0.5115
10221TIP3    H254859   0.427   1.062   7.840  0.5218  0.2018 -0.9393
10222TIP3   OH254860   0.054   3.456   8.014 -0.0002 -0.2165 -0.4738
10222TIP3    H154861  -0.038   3.476   8.030 -0.2756 -0.9848 -1.0086
10222TIP3    H254862   0.103   3.514   8.072 -0.8703 -1.1595  1.2854
10223TIP3   OH254863   1.808   1.383   6.889 -0.2185  0.1712  0.1214
10223TIP3    H154864   1.713   1.393   6.882 -0.2371 -0.6231 -0.9543
10223TIP3    H254865   1.843   1.423   6.810  0.2513 -0.6487 -0.1006
10224TIP3   OH254866   0.870   2.654   7.620 -0.6913  0.1043 -0.2338
10224TIP3    H154867   0.802   2.619   7.678  1.1255 -1.4268  1.1149
10224TIP3    H254868   0.903   2.576   7.574 -0.1025  0.8668 -1.1224
10225TIP3   OH254869   3.266   1.135   8.803  0.2293  0.5970 -0.6869
10225TIP3    H154870   3.197   1.068   8.805 -0.6552  1.4875  0.6700
10225TIP3    H254871   3.234   1.201   8.742  1.0756 -0.1422 -1.9800
10226TIP3   OH254872   5.853   1.727   7.518 -0.7608 -0.2680 -0.3863
10226TIP3    H154873   5.878   1.663   7.451 -0.4032  1.1541 -1.6721
10226TIP3    H254874   5.914   1.711   7.590  0.2865 -0.4392 -1.2780
10227TIP3   OH254875   1.694   2.264   7.766  0.0518 -0.2418 -0.0354
10227TIP3    H154876   1.784   2.241   7.740  0.2632 -0.9984  1.2544
10227TIP3    H254877   1.683   2.354   7.736  1.7137  0.3145  0.8943
10228TIP3   OH254878   6.615   1.305   7.710 -0.2901  0.4192  0.5072
10228TIP3    H154879   6.632   1.211   7.704 -1.0481  0.3546 -0.8579
10228TIP3    H254880   6.677   1.336   7.776 -0.0610 -1.0353  1.0176
10229TIP3   OH254881   5.208   1.431   8.191 -0.0599  0.0977  0.0715
10229TIP3    H154882   5.151   1.437   8.114 -0.4012 -0.0409  0.3126
10229TIP3    H254883   5.268   1.359   8.170  0.1029  0.3183 -0.2303
10230TIP3   OH254884   6.425   1.889   6.908 -0.3291 -0.4221  0.4200
10230TIP3    H154885   6.396   1.820   6.849 -3.4789  1.0617  0.0633
10230TIP3    H254886   6.396   1.861   6.995 -1.0765  0.1693  0.3631
10231TIP3   OH254887   5.045   0.022   7.774  0.2785  0.3311  0.2673
10231TIP3    H154888   5.019  -0.069   7.759 -0.3755  1.0008 -3.9455
10231TIP3    H254889   5.141   0.020   7.773  0.2675 -0.2859 -0.1494
10232TIP3   OH254890   5.805   1.314   7.153 -0.3063  0.5447  0.4160
10232TIP3    H154891   5.790   1.297   7.060 -0.7075  1.3037  0.3279
10232TIP3    H254892   5.723   1.355   7.182  0.4331  1.8691  0.6947
10233TIP3   OH254893   4.946   2.486   9.178 -0.0432  0.5967  0.6134
10233TIP3    H154894   4.975   2.529   9.259 -0.3128  1.5624  0.2199
10233TIP3    H254895   4.868   2.437   9.203  1.4924 -1.5403  1.5565
10234TIP3   OH254896   3.933   0.571   7.590  0.0225 -0.1766  0.2800
10234TIP3    H154897   4.027   0.559   7.603 -0.2505 -0.2521  2.4797
10234TIP3    H254898   3.922   0.666   7.579  0.3233 -0.1351  0.3349
10235TIP3   OH254899   0.745   2.137   7.877 -0.2023  0.2118 -0.1055
10235TIP3    H154900   0.667   2.100   7.919  0.8066 -1.6991  0.1866
10235TIP3    H254901   0.746   2.098   7.790 -0.8657  2.1567 -1.0477
10236TIP3   OH254902   6.592   3.014   6.825  0.5946 -0.2481 -0.1390
10236TIP3    H154903   6.597   3.028   6.919 -0.0086  3.7260 -0.5439
10236TIP3    H254904   6.681   3.030   6.793  0.4877 -0.0815 -0.3642
10237TIP3   OH254905   5.015   4.664   8.835  0.0922  0.0069 -0.3325
10237TIP3    H154906   5.033   4.756   8.854  1.3800 -0.4148  0.6429
10237TIP3    H254907   5.084   4.638   8.774  0.7138 -0.7284  0.6685
10238TIP3   OH254908   0.508   5.478   8.038 -0.3855 -0.7540  0.3788
10238TIP3    H154909   0.527   5.434   7.955 -0.1325  0.3653 -0.1626
10238TIP3    H254910   0.412   5.476   8.044 -0.3863 -4.0707  1.8626
10239TIP3   OH254911   5.346   6.058   8.548 -0.1352  0.2827 -0.5548
10239TIP3    H154912   5.297   6.107   8.482  0.3105  1.8359  0.2067
10239TIP3    H254913   5.377   5.980   8.503 -0.3417  1.0132 -2.0127
10240TIP3   OH254914   6.707   4.192   8.202  0.0680  0.0293 -0.0567
10240TIP3    H154915   6.693   4.130   8.274  1.8945  0.4700  0.7481
10240TIP3    H254916   6.759   4.262   8.241 -1.4137  1.7744 -1.1038
10241TIP3   OH254917   4.634   1.277   8.177 -0.2205  0.1638  0.1783
10241TIP3    H154918   4.675   1.266   8.091  3.2082 -2.4879  1.9183
10241TIP3    H254919   4.548   1.236   8.168  1.2098 -2.7645 -1.3232
10242TIP3   OH254920   1.706   4.938   8.173  0.2197 -0.5992  0.1209
10242TIP3    H154921   1.691   4.964   8.082  0.6101 -1.6766 -0.2678
10242TIP3    H254922   1.622   4.952   8.216  0.8221  3.2069  0.4887
10243TIP3   OH254923   0.932   3.799   7.671 -0.1745 -0.7651 -0.2248
10243TIP3    H154924   0.945   3.814   7.764 -0.2918 -1.4095 -0.0989
10243TIP3    H254925   0.994   3.857   7.628  0.4287 -1.0286  0.2757
10244TIP3   OH254926   6.350   5.021   7.136  0.0408  0.2368 -0.5573
10244TIP3    H154927   6.419   5.084   7.115 -0.3861  0.8357 -0.2089
10244TIP3    H254928   6.388   4.964   7.203  0.3066  0.3529 -0.6093
10245TIP3   OH254929   1.074   3.772   7.014  0.4034 -0.2862  0.2364
10245TIP3    H154930   1.142   3.821   7.059 -0.2095  0.4892  0.3329
10245TIP3    H254931   1.030   3.722   7.084 -0.1336  0.4226  0.4122
10246TIP3   OH254932   2.721   4.132   8.603 -0.4327 -0.0578 -0.2908
10246TIP3    H154933   2.717   4.085   8.686 -0.5516 -0.1179 -0.3304
10246TIP3    H254934   2.660   4.205   8.614  0.3900  0.5862  0.0809
10247TIP3   OH254935   0.245   5.553   8.018  0.0487  0.0920 -0.3246
10247TIP3    H154936   0.189   5.630   8.009  0.3954  0.2375 -1.3841
10247TIP3    H254937   0.185   5.480   8.033 -0.3271  0.4668 -0.0239
10248TIP3   OH254938   3.643   5.324   8.843 -0.0388 -0.0717 -0.1683
10248TIP3    H154939   3.686   5.406   8.817 -0.5131  0.3355  0.2957
10248TIP3    H254940   3.655   5.320   8.938 -2.2448  0.8102  0.2161
10249TIP3   OH254941   6.379   4.026   8.748 -0.0598 -0.1683 -0.0006
10249TIP3    H154942   6.445   3.962   8.777  1.4011  1.0313 -0.5015
10249TIP3    H254943   6.295   3.987   8.772  0.6657 -2.8695 -1.4496
10250TIP3   OH254944   4.478   5.495   8.820 -0.0801  0.4338  0.0832
10250TIP3    H154945   4.454   5.456   8.736  0.0383  2.9387 -1.1869
10250TIP3    H254946   4.399   5.540   8.849  0.0830  0.1344  1.0259
10251TIP3   OH254947   1.555   2.315   8.071  0.1135  0.3576 -0.1247
10251TIP3    H154948   1.646   2.328   8.096 -0.1792  0.4406  0.9478
10251TIP3    H254949   1.532   2.230   8.108 -0.0199 -0.0387 -1.0845
10252TIP3   OH254950   4.985   0.962   9.671  0.1199 -0.0881 -0.2172
10252TIP3    H154951   5.047   0.969   9.599 -0.7809 -1.2517 -1.1475
10252TIP3    H254952   4.911   0.914   9.634  0.2012 -1.9383  1.8136
10253TIP3   OH254953   3.609   4.560   8.507 -0.0290 -0.1664  0.2941
10253TIP3    H154954   3.557   4.635   8.478  1.1155  0.3655 -0.4614
10253TIP3    H254955   3.568   4.485   8.465  0.7490  0.4280 -1.6626
10254TIP3   OH254956   6.546   3.783  10.202 -0.1471  0.0954 -0.2583
10254TIP3    H154957   6.541   3.854  10.266  1.7288 -0.0800  0.1551
10254TIP3    H254958   6.498   3.711  10.242 -0.1122  0.4072  0.3636
10255TIP3   OH254959   0.235   3.305   6.554 -0.3903 -0.8879 -0.2554
10255TIP3    H154960   0.251   3.393   6.520 -0.7828 -1.4354 -1.9822
10255TIP3    H254961   0.321   3.275   6.585 -0.2123  0.0100  0.1373
10256TIP3   OH254962   5.588   3.126   7.192  0.2357  0.1073 -0.6982
10256TIP3    H154963   5.663   3.069   7.176  0.5721  0.8649 -2.0786
10256TIP3    H254964   5.514   3.080   7.153 -0.1117 -0.7981  0.9660
10257TIP3   OH254965   1.568   0.462   7.359  0.0308 -0.0272 -0.2184
10257TIP3    H154966   1.659   0.440   7.377 -0.3930 -0.8536  0.9947
10257TIP3    H254967   1.565   0.472   7.263  1.3566 -0.1250 -0.2888
10258TIP3   OH254968   5.254   0.920   8.630  0.6636  0.1142  0.9281
10258TIP3    H154969   5.180   0.893   8.576  1.3293 -0.9203  0.5002
10258TIP3    H254970   5.319   0.952   8.567  0.4507  1.4036  1.3253
10259TIP3   OH254971   1.938   5.847   6.987  0.1112  0.4385 -0.1829
10259TIP3    H154972   1.925   5.932   7.028  0.2660  0.5454 -0.3585
10259TIP3    H254973   1.979   5.794   7.055 -0.6510  0.2833  0.1756
10260TIP3   OH254974   4.296   4.452   7.708 -0.1755 -0.0994 -0.1633
10260TIP3    H154975   4.361   4.510   7.669  1.8947 -1.9080  0.4478
10260TIP3    H254976   4.328   4.437   7.797 -1.3018 -1.2326  0.0739
10261TIP3   OH254977   5.155   3.326   9.859 -0.1572  0.0100  0.0884
10261TIP3    H154978   5.159   3.421   9.873  1.2985  0.4665 -2.7246
10261TIP3    H254979   5.077   3.298   9.907 -2.3018  3.1023 -1.2967
10262TIP3   OH254980   4.611   2.615   9.231 -0.2463  0.4271 -0.1053
10262TIP3    H154981   4.646   2.697   9.196 -0.1330  0.8192  0.8942
10262TIP3    H254982   4.536   2.641   9.285  0.9713  0.1092  1.8447
10263TIP3   OH254983   0.074   4.271   8.456  0.5403 -0.0549  0.0431
10263TIP3    H154984   0.074   4.367   8.452  1.3405 -0.0133  0.8410
10263TIP3    H254985   0.028   4.251   8.537 -0.4019 -0.3914 -0.5498
10264TIP3   OH254986   5.918   4.779   9.312  0.0283  0.4460  0.1271
10264TIP3    H154987   5.972   4.715   9.360 -0.0018  1.4510  1.5454
10264TIP3    H254988   5.973   4.857   9.307  0.2165  0.2545 -1.9434
10265TIP3   OH254989   5.657   3.516   8.540 -0.4651 -0.3980  0.2119
10265TIP3    H154990   5.609   3.559   8.612 -0.4611  1.9890 -1.1034
10265TIP3    H254991   5.748   3.543   8.554 -0.4659  0.0724 -0.6622
10266TIP3   OH254992   0.784   4.604   8.765  0.2497  0.8129  0.1607
10266TIP3    H154993   0.836   4.551   8.826  1.1118  0.1724 -1.1052
10266TIP3    H254994   0.833   4.686   8.758  0.7432  0.4720 -0.4945
10267TIP3   OH254995   1.440   0.518   8.291 -0.4956 -0.2315  0.1917
10267TIP3    H154996   1.350   0.545   8.274 -0.4624 -1.1658 -1.7086
10267TIP3    H254997   1.478   0.505   8.204  1.5462  0.3323  0.9473
10268TIP3   OH254998   5.826   4.422   9.334  0.5834  0.1306  0.0172
10268TIP3    H154999   5.778   4.430   9.416  3.2712  1.4922  1.6169
10268TIP3    H255000   5.768   4.373   9.276 -2.7611  1.8657  1.6247
10269TIP3   OH255001   6.676   1.036   7.359  0.1866 -0.1888 -0.6972
10269TIP3    H155002   6.767   1.063   7.347 -0.1819  1.0364 -0.8454
10269TIP3    H255003   6.632   1.065   7.280 -0.8309  1.5511  0.4350
10270TIP3   OH255004   0.508   1.216   6.456 -0.2459  0.7498  0.5321
10270TIP3    H155005   0.486   1.304   6.486  0.3206  0.0605  3.2075
10270TIP3    H255006   0.585   1.229   6.400  0.6594  1.8687  1.9509
10271TIP3   OH255007   4.368   4.900   7.560 -0.3420  0.2509 -0.0166
10271TIP3    H155008   4.342   4.990   7.542 -0.2510  0.1021 -0.9418
10271TIP3    H255009   4.302   4.847   7.515 -0.3921 -0.1487  0.5204
10272TIP3   OH255010   6.174   4.748   9.502  0.2289  0.4705  0.1654
10272TIP3    H155011   6.125   4.686   9.555 -0.2117  0.0412 -0.7196
10272TIP3    H255012   6.185   4.825   9.558  0.3044 -0.1960  1.0763
10273TIP3   OH255013   5.710   3.201   9.539 -0.4622 -0.4556 -0.3297
10273TIP3    H155014   5.646   3.130   9.540  0.6640 -1.5447 -1.4149
10273TIP3    H255015   5.750   3.196   9.452  2.7503 -1.4086  1.0506
10274TIP3   OH255016   2.813   5.141   7.076  0.3700  0.2375  0.3476
10274TIP3    H155017   2.748   5.104   7.017  1.1077  0.2411 -0.4838
10274TIP3    H255018   2.789   5.234   7.083 -0.1545  0.0840  0.6609
10275TIP3   OH255019   5.916   0.189   6.372  0.4246  0.6742 -0.4220
10275TIP3    H155020   5.824   0.216   6.374 -0.1030 -1.0039 -0.6822
10275TIP3    H255021   5.920   0.111   6.427  1.5247  0.2401 -1.0814
10276TIP3   OH255022   3.534   4.094   8.892  0.4032 -0.6065 -0.1736
10276TIP3    H155023   3.491   4.100   8.807  0.2715  1.2707 -0.0175
10276TIP3    H255024   3.627   4.101   8.873  0.4018 -0.6580 -0.1994
10277TIP3   OH255025   2.547   2.474   8.739 -0.1328 -0.0447  0.3719
10277TIP3    H155026   2.458   2.501   8.762 -0.3682  0.1978 -0.7592
10277TIP3    H255027   2.604   2.526   8.796 -0.7334 -1.4290  2.3098
10278TIP3   OH255028   0.795   1.914   6.169 -0.0180  0.4459 -0.0661
10278TIP3    H155029   0.703   1.886   6.167  0.4866 -1.3742  0.0297
10278TIP3    H255030   0.798   1.985   6.233 -1.1331 -0.3571  0.9049
10279TIP3   OH255031   6.429   6.478   8.165  0.1487  0.2517  0.1359
10279TIP3    H155032   6.361   6.411   8.156 -0.1237  0.3579  1.3127
10279TIP3    H255033   6.386   6.548   8.214  0.7471  0.8521 -0.1899
10280TIP3   OH255034   2.819   3.892   9.220 -0.0342  0.0555 -0.1653
10280TIP3    H155035   2.851   3.965   9.167  1.8441 -0.8914 -0.4080
10280TIP3    H255036   2.876   3.819   9.197 -2.2445 -1.6965 -0.3927
10281TIP3   OH255037   2.425   2.531   7.619 -0.4005  0.3236 -0.4097
10281TIP3    H155038   2.421   2.626   7.611  1.0775  0.5166  0.6435
10281TIP3    H255039   2.446   2.500   7.531 -0.8256  0.9706 -0.7449
10282TIP3   OH255040   3.414   4.191   6.989 -0.5630 -0.4705  0.3064
10282TIP3    H155041   3.419   4.280   6.956  2.3889 -0.8862 -0.7340
10282TIP3    H255042   3.337   4.154   6.947  0.9120  0.1832 -3.3390
10283TIP3   OH255043   0.580   4.827   7.656  0.1846  0.3666  0.4217
10283TIP3    H155044   0.644   4.876   7.605  1.4677 -0.4738  1.1338
10283TIP3    H255045   0.632   4.788   7.727 -1.0437 -0.7487  0.7492
10284TIP3   OH255046   3.281   5.261   9.087 -0.2314 -0.5509 -0.2283
10284TIP3    H155047   3.193   5.290   9.063  0.9801  0.7245 -4.0627
10284TIP3    H255048   3.287   5.171   9.054  0.3021 -0.0781 -1.5158
10285TIP3   OH255049   2.642   2.116   8.107 -0.1871 -0.1784 -0.1013
10285TIP3    H155050   2.566   2.068   8.139 -0.6456  0.5280 -0.1185
10285TIP3    H255051   2.658   2.080   8.020 -3.4034  2.8203 -2.1378
10286TIP3   OH255052   2.222   3.278   8.466  0.3711  0.1982  0.6221
10286TIP3    H155053   2.318   3.285   8.471  0.4677  2.2513 -2.1680
10286TIP3    H255054   2.207   3.192   8.427  1.0846  0.0299  0.6918
10287TIP3   OH255055   5.383   4.316   9.244  0.5973  0.0802  0.4627
10287TIP3    H155056   5.365   4.409   9.231  1.1924  0.3368  1.3735
10287TIP3    H255057   5.467   4.302   9.200 -0.1051 -0.3341 -0.7946
10288TIP3   OH255058   3.379   2.310   9.715  0.6498  0.3668  0.1732
10288TIP3    H155059   3.430   2.390   9.706  0.1864  0.5947 -0.5712
10288TIP3    H255060   3.357   2.305   9.808  1.0505  0.8732  0.2973
10289TIP3   OH255061   1.088   1.895   6.288 -0.1746 -0.0970  0.3606
10289TIP3    H155062   1.022   1.909   6.220  1.2315 -0.2160 -1.1072
10289TIP3    H255063   1.103   1.982   6.326  0.7663  0.4849 -1.2309
10290TIP3   OH255064   5.052   2.476   8.919  0.2899  0.0494 -0.5979
10290TIP3    H155065   5.013   2.472   9.006 -0.0889  2.3491 -0.5961
10290TIP3    H255066   4.979   2.459   8.859 -0.0345  1.0277 -0.5029
10291TIP3   OH255067   1.181   3.202   8.133  0.2744  0.3283 -0.0121
10291TIP3    H155068   1.166   3.296   8.126 -0.9858  0.4044  2.4104
10291TIP3    H255069   1.263   3.194   8.182  0.0947  0.1864  0.2696
10292TIP3   OH255070   4.033   4.998   8.494  0.4278 -0.6190 -0.2405
10292TIP3    H155071   3.998   4.931   8.435  2.6201 -1.7726 -0.3312
10292TIP3    H255072   4.097   4.952   8.548  1.7300  1.3130 -0.0253
10293TIP3   OH255073   0.114   6.056  10.011  0.2596  0.0234  0.4597
10293TIP3    H155074   0.117   6.089  10.101 -1.1334  0.6592  0.3035
10293TIP3    H255075   0.021   6.059   9.988  0.6284  0.1586 -1.1001
10294TIP3   OH255076   6.597   1.044   7.635  0.0076  0.4124 -0.2457
10294TIP3    H155077   6.645   1.063   7.555 -1.4027  2.3806 -0.6866
10294TIP3    H255078   6.522   0.992   7.605  1.2338 -1.8283  0.3174
10295TIP3   OH255079   0.511   3.157   8.649 -0.0294  0.5836  0.9162
10295TIP3    H155080   0.441   3.161   8.583  0.2152  0.5833  0.6524
10295TIP3    H255081   0.537   3.065   8.651  0.8130  0.7886  0.1031
10296TIP3   OH255082   3.536   6.217   7.353  0.3498  0.1892  0.2848
10296TIP3    H155083   3.493   6.291   7.395  1.7379  0.9384  0.4479
10296TIP3    H255084   3.530   6.146   7.417 -1.7822 -0.1626 -0.2319
10297TIP3   OH255085   0.735   6.096   7.097  0.1300 -0.6346  0.3402
10297TIP3    H155086   0.652   6.049   7.085  0.1536 -0.4380 -0.6773
10297TIP3    H255087   0.730   6.131   7.186 -0.4267 -1.4981  0.6642
10298TIP3   OH255088   5.142   5.429   7.543  0.8558  0.0747  0.2643
10298TIP3    H155089   5.179   5.456   7.459 -0.7118  1.4063 -0.0510
10298TIP3    H255090   5.193   5.352   7.568  2.9058  1.0323 -0.7416
10299TIP3   OH255091   3.965   6.764   6.815 -0.1811  0.6961 -0.7538
10299TIP3    H155092   3.900   6.768   6.885 -0.9020 -1.8284 -1.1724
10299TIP3    H255093   4.038   6.818   6.847 -0.4137 -0.4727  2.0528
10300TIP3   OH255094   3.653   6.232   6.918 -0.2617 -0.0272 -0.1311
10300TIP3    H155095   3.738   6.252   6.956  0.0842 -0.9253 -0.3907
10300TIP3    H255096   3.600   6.204   6.992 -0.1913  0.1074 -0.0305
10301TIP3   OH255097   3.376   3.145   8.699 -1.2464 -0.1051  0.0453
10301TIP3    H155098   3.455   3.128   8.649 -1.3311  1.5083 -0.6976
10301TIP3    H255099   3.335   3.059   8.710  0.5053 -0.9384  0.3208
10302TIP3   OH255100   6.765   1.866   9.565 -0.0243  0.2315  0.3495
10302TIP3    H155101   6.699   1.928   9.596  0.6478  1.2479 -0.1746
10302TIP3    H255102   6.736   1.781   9.597 -2.0835  0.5006 -0.6260
10303TIP3   OH255103   4.597   1.983   7.534 -0.8592  0.1288  0.2933
10303TIP3    H155104   4.647   2.039   7.476  0.0155 -0.6428  0.2732
10303TIP3    H255105   4.524   1.951   7.481 -0.9807  0.7121  0.1126
10304TIP3   OH255106   3.571   2.807   6.970 -0.2333 -0.0462  0.1776
10304TIP3    H155107   3.510   2.798   6.897  1.8933 -1.4690 -1.5571
10304TIP3    H255108   3.545   2.738   7.032 -0.9918  0.0500 -0.0238
10305TIP3   OH255109   0.328   6.014   8.391  0.0052 -0.2376  0.0401
10305TIP3    H155110   0.247   5.990   8.346  0.6295 -1.0796 -0.6937
10305TIP3    H255111   0.353   6.098   8.351  0.5715 -0.9964 -1.2573
10306TIP3   OH255112   5.248   1.550   7.409 -0.6709  0.0495 -0.7421
10306TIP3    H155113   5.333   1.568   7.447 -0.8383  0.5509 -0.6049
10306TIP3    H255114   5.250   1.456   7.390 -1.6762 -1.0882  3.4620
10307TIP3   OH255115   3.496   3.124   6.393 -0.3097 -0.2473 -0.3115
10307TIP3    H155116   3.430   3.171   6.445  0.0706  1.6608 -1.4676
10307TIP3    H255117   3.570   3.113   6.452 -0.8899 -0.5786  0.3716
10308TIP3   OH255118   4.101   4.282   9.351  0.5309  0.0197  0.2031
10308TIP3    H155119   4.086   4.210   9.289 -0.6279 -0.0871  0.5825
10308TIP3    H255120   4.193   4.275   9.375  0.7306 -0.5831 -0.7056
10309TIP3   OH255121   0.081   6.013   8.258 -0.0138  0.2007  0.8274
10309TIP3    H155122   0.064   5.922   8.238 -0.9373  0.0829  2.0178
10309TIP3    H255123  -0.006   6.052   8.271  0.3965  0.9995  1.3114
10310TIP3   OH255124   3.696   4.088   7.566  0.1148 -0.0071 -0.3010
10310TIP3    H155125   3.737   4.008   7.598  0.5024 -0.0418 -0.8625
10310TIP3    H255126   3.700   4.080   7.470 -0.5590  0.3177 -0.3587
10311TIP3   OH255127   3.271   4.830   9.216 -0.4100  0.4743 -0.0808
10311TIP3    H155128   3.188   4.825   9.263 -0.7041  0.2409 -0.6061
10311TIP3    H255129   3.336   4.852   9.283 -0.6733 -0.7035  0.5893
10312TIP3   OH255130   3.029   3.708   9.092  0.2361 -0.1866 -0.3928
10312TIP3    H155131   3.087   3.784   9.093 -0.3624  0.4493 -3.2844
10312TIP3    H255132   3.082   3.639   9.051 -0.6287  0.0836 -2.0455
10313TIP3   OH255133   3.369   1.713   9.720 -0.0218  0.0272 -0.0768
10313TIP3    H155134   3.453   1.757   9.707  0.1404 -0.2361  0.0571
10313TIP3    H255135   3.327   1.764   9.789 -1.1805  1.8298 -2.0055
10314TIP3   OH255136   5.963   5.290   7.928  0.1135  0.5550 -0.1459
10314TIP3    H155137   6.012   5.299   7.846  2.2989  1.9093  1.2086
10314TIP3    H255138   6.028   5.264   7.992 -1.3295  0.6056  1.4139
10315TIP3   OH255139   0.568   4.251   8.477  0.1748 -0.0832 -0.1842
10315TIP3    H155140   0.645   4.201   8.448 -0.2751 -2.1333  1.8190
10315TIP3    H255141   0.604   4.321   8.531  0.6986 -0.2654 -0.2857
10316TIP3   OH255142   3.359   3.359   6.797  0.3060  0.2526  0.1005
10316TIP3    H155143   3.353   3.279   6.848  0.5944  0.9075  1.1835
10316TIP3    H255144   3.399   3.423   6.856  1.9296  0.6646 -1.3686
10317TIP3   OH255145   2.684   4.079   9.930 -0.2056 -0.2694 -0.4380
10317TIP3    H155146   2.675   3.984   9.940 -1.9970  0.0267  1.2810
10317TIP3    H255147   2.680   4.093   9.835  1.0254 -1.9379 -0.7923
10318TIP3   OH255148   0.978   0.121   9.107 -1.0391 -0.1881 -0.1910
10318TIP3    H155149   1.037   0.157   9.041 -0.0991 -3.1658 -1.1332
10318TIP3    H255150   1.025   0.133   9.190 -1.7607  2.6078 -0.0981
10319TIP3   OH255151   3.858   0.799   8.142  0.6238  0.0406  0.2571
10319TIP3    H155152   3.775   0.847   8.146 -0.1368 -1.0374 -1.1603
10319TIP3    H255153   3.832   0.709   8.120  2.1706 -0.3177 -0.2569
10320TIP3   OH255154   2.988   5.335   8.731  0.2328  0.3561 -0.3065
10320TIP3    H155155   2.913   5.313   8.677 -0.1738 -0.2165  0.4762
10320TIP3    H255156   2.957   5.325   8.821  0.2983  3.2393  0.1242
10321TIP3   OH255157   0.543   0.059   7.781 -0.4671 -0.4284 -0.0082
10321TIP3    H155158   0.625   0.085   7.738  1.1877 -2.9305  1.3748
10321TIP3    H255159   0.479   0.056   7.710  0.5082  1.8268 -1.1014
10322TIP3   OH255160   2.259   5.605   8.242  0.5917 -0.2064 -0.5337
10322TIP3    H155161   2.181   5.611   8.297 -0.0130  0.0363 -1.3955
10322TIP3    H255162   2.255   5.683   8.186  0.4592 -1.1146 -1.8404
10323TIP3   OH255163   6.070   5.406   9.939  0.0788  0.3857  0.0186
10323TIP3    H155164   6.132   5.347   9.897  0.0997  0.3459  0.1053
10323TIP3    H255165   6.115   5.439  10.016  0.0624  0.5056 -0.0226
10324TIP3   OH255166   3.347   1.569   7.048  0.3759  0.0016  0.3117
10324TIP3    H155167   3.422   1.582   7.106  1.3429  0.4806 -1.0045
10324TIP3    H255168   3.271   1.592   7.101  1.2017  0.0665  1.4976
10325TIP3   OH255169   5.899   3.413   7.937 -0.4107  0.7608  0.1082
10325TIP3    H155170   5.867   3.483   7.879 -1.4690 -1.9751 -2.9389
10325TIP3    H255171   5.987   3.393   7.904 -0.5060  0.0420  0.2782
10326TIP3   OH255172   2.637   2.911   7.621  0.8441 -0.1310  0.5108
10326TIP3    H155173   2.553   2.892   7.579 -0.6843  2.5576  2.0822
10326TIP3    H255174   2.652   2.837   7.679 -0.3120 -0.7764  0.0220
10327TIP3   OH255175   0.499   5.178   6.832  0.1660  0.6188  0.1254
10327TIP3    H155176   0.516   5.085   6.817  0.9619  0.5813  1.1626
10327TIP3    H255177   0.423   5.180   6.891 -0.4731  0.6632 -0.6848
10328TIP3   OH255178   3.999   1.573   7.749  0.2012 -0.3991 -0.2022
10328TIP3    H155179   4.086   1.535   7.740  0.4781  0.1694  0.1087
10328TIP3    H255180   3.941   1.497   7.759  0.4036 -0.8899 -2.3045
10329TIP3   OH255181   4.426   4.431   8.524 -0.7820  0.2503 -0.4103
10329TIP3    H155182   4.496   4.366   8.513 -0.1324  0.8978 -0.1262
10329TIP3    H255183   4.469   4.515   8.513 -1.3560  0.6908  0.6197
10330TIP3   OH255184   5.503   2.382   8.918  0.2534 -0.0301  0.5984
10330TIP3    H155185   5.415   2.420   8.923 -0.0843 -0.6524 -0.4323
10330TIP3    H255186   5.493   2.295   8.956  0.6966  0.3288  1.5647
10331TIP3   OH255187   2.681   2.246   7.472  0.1430 -0.0389 -0.1831
10331TIP3    H155188   2.729   2.325   7.496 -1.2673  1.4503 -2.0428
10331TIP3    H255189   2.733   2.207   7.401  0.7405 -0.7581  0.6107
10332TIP3   OH255190   1.724   4.310   7.024  0.6800  0.3915  0.3890
10332TIP3    H155191   1.710   4.254   6.948  1.3821  1.0927 -0.2707
10332TIP3    H255192   1.719   4.250   7.099 -0.7407 -0.1935 -0.1388
10333TIP3   OH255193   0.588   1.542   8.586  0.4661  0.4005  0.0540
10333TIP3    H155194   0.671   1.523   8.630 -0.3361  0.5041  1.6864
10333TIP3    H255195   0.521   1.527   8.653 -0.7668  1.2877 -0.9230
10334TIP3   OH255196   2.191   2.769   7.178  0.2713  0.1543  0.0259
10334TIP3    H155197   2.262   2.769   7.115 -0.1073  1.3006 -0.4237
10334TIP3    H255198   2.199   2.685   7.223  1.2602 -0.1761 -0.7316
10335TIP3   OH255199   4.451   1.675   7.967  0.1978 -0.0562  0.0768
10335TIP3    H155200   4.469   1.589   7.928 -2.8091 -1.0806  0.7361
10335TIP3    H255201   4.478   1.738   7.899  2.2826 -1.4712 -0.4849
10336TIP3   OH255202   3.626   5.768   8.335 -0.1102 -0.0613 -0.7913
10336TIP3    H155203   3.645   5.807   8.421 -1.4411  1.9218 -1.3434
10336TIP3    H255204   3.712   5.761   8.293  0.2233  2.4813 -0.6971
10337TIP3   OH255205   1.117   2.993   9.711  0.1438  0.1176 -0.3226
10337TIP3    H155206   1.103   3.041   9.792 -3.8286 -1.3250  0.0889
10337TIP3    H255207   1.208   2.963   9.716  0.8769  2.3817  2.2106
10338TIP3   OH255208   4.262   3.807   9.963 -0.0371 -0.0245  0.5975
10338TIP3    H155209   4.301   3.726   9.930  1.3162  1.0159 -0.4869
10338TIP3    H255210   4.315   3.877   9.924 -1.4967  1.4084  1.0605
10339TIP3   OH255211   5.729   4.692   8.134  0.2214  0.0426  0.0946
10339TIP3    H155212   5.726   4.666   8.227 -0.0384  1.7227  0.5803
10339TIP3    H255213   5.726   4.787   8.136  0.2065  0.0966 -1.6628
10340TIP3   OH255214   5.498   1.357   6.674 -0.3028  0.0623 -0.1216
10340TIP3    H155215   5.579   1.306   6.677 -1.2411 -1.4262  0.5324
10340TIP3    H255216   5.506   1.408   6.593  1.3756  0.1295  0.0467
10341TIP3   OH255217   1.216   0.672   7.485 -0.2001  0.0344  0.0151
10341TIP3    H155218   1.304   0.664   7.521 -0.9160  0.8076  2.0528
10341TIP3    H255219   1.206   0.766   7.468 -1.1805  0.1938  1.3547
10342TIP3   OH255220   6.638   4.250   6.742  0.4129  0.8426  0.3009
10342TIP3    H155221   6.581   4.275   6.815 -2.5245 -0.1228 -1.4755
10342TIP3    H255222   6.609   4.305   6.669  2.8173  1.3266 -0.3990
10343TIP3   OH255223   3.169   2.494   6.617 -0.9357  0.2627 -0.2620
10343TIP3    H155224   3.255   2.481   6.656 -0.9161  0.0892 -0.3605
10343TIP3    H255225   3.137   2.406   6.599 -0.2907  0.3326 -2.0378
10344TIP3   OH255226   5.665   0.643   8.190 -0.1907  0.1367  0.2700
10344TIP3    H155227   5.626   0.608   8.270 -0.7080  0.1821  0.0344
10344TIP3    H255228   5.604   0.622   8.120 -0.4361  1.3340  0.0933
10345TIP3   OH255229   4.820   3.086   8.339  0.1687 -0.6584  0.6067
10345TIP3    H155230   4.779   3.160   8.385  0.7663 -0.2692  0.5334
10345TIP3    H255231   4.859   3.034   8.409  1.1919  0.0040  0.5680
10346TIP3   OH255232   1.364   1.973   7.264 -0.4268  0.5391  1.0422
10346TIP3    H155233   1.446   2.022   7.268  0.4364 -0.8078  0.6910
10346TIP3    H255234   1.382   1.893   7.314 -1.4620  0.1258  0.7793
10347TIP3   OH255235   4.645   1.304   8.454 -0.4382 -0.5083  0.0261
10347TIP3    H155236   4.672   1.300   8.363  2.1407 -1.4704  0.7607
10347TIP3    H255237   4.685   1.384   8.488 -0.7951 -0.5240  0.4960
10348TIP3   OH255238   4.597   0.933   7.783  0.0816  0.2569 -0.3949
10348TIP3    H155239   4.681   0.956   7.821 -0.4258  0.0042  0.9378
10348TIP3    H255240   4.617   0.863   7.720  0.6745 -1.0852  1.2105
10349TIP3   OH255241   3.671   5.287   9.119  0.1561  0.1123 -0.8787
10349TIP3    H155242   3.734   5.259   9.185  0.2144  0.2260 -0.8854
10349TIP3    H255243   3.602   5.221   9.121  0.5416 -0.3087 -1.2552
10350TIP3   OH255244   2.759   0.788   7.382 -1.1577 -0.2403  0.0596
10350TIP3    H155245   2.685   0.760   7.328 -1.5900 -0.2290  0.6294
10350TIP3    H255246   2.732   0.873   7.417 -0.7236 -0.0716 -0.0100
10351TIP3   OH255247   6.006   4.776   7.525 -0.1912 -0.7793 -0.2833
10351TIP3    H155248   6.075   4.842   7.519  0.1951 -1.2496 -1.2619
10351TIP3    H255249   5.926   4.827   7.535  0.1566 -0.1806 -0.4580
10352TIP3   OH255250   1.416   6.463   9.614 -0.8562 -0.5392 -0.3632
10352TIP3    H155251   1.413   6.550   9.573 -0.8409  0.0014  0.7406
10352TIP3    H255252   1.432   6.481   9.707 -1.5170 -1.6922 -0.0073
10353TIP3   OH255253   1.353   6.118   7.747 -0.3187 -0.6947 -0.1204
10353TIP3    H155254   1.299   6.161   7.814  1.0776 -1.6953  1.7425
10353TIP3    H255255   1.436   6.101   7.791  0.9438 -0.7260 -2.3838
10354TIP3   OH255256   6.694   2.047   6.997  0.3404 -0.5834 -0.3831
10354TIP3    H155257   6.698   1.951   6.989 -0.2882 -0.4998 -2.1591
10354TIP3    H255258   6.625   2.062   7.062  0.9169 -1.3243  0.4323
10355TIP3   OH255259   0.341   5.803   9.543  0.6373  0.0610 -0.2496
10355TIP3    H155260   0.387   5.742   9.600 -1.3712 -0.4369  0.9451
10355TIP3    H255261   0.324   5.753   9.463 -0.1958 -0.6717  0.3669
10356TIP3   OH255262   2.611   4.937   9.666  0.3999  0.0280 -1.1236
10356TIP3    H155263   2.570   4.943   9.580  0.6839 -1.0659 -1.3513
10356TIP3    H255264   2.538   4.915   9.725  0.4008 -0.3798 -1.2736
10357TIP3   OH255265   2.366   4.283   6.954 -0.4521 -0.5137 -0.7858
10357TIP3    H155266   2.459   4.297   6.935 -0.2015 -0.8481  0.1290
10357TIP3    H255267   2.343   4.354   7.014 -0.5543 -0.9417 -0.3151
10358TIP3   OH255268   2.558   5.582   9.859 -0.3412 -0.4487 -0.1436
10358TIP3    H155269   2.648   5.611   9.848 -0.0280 -0.4290  2.0165
10358TIP3    H255270   2.523   5.637   9.929 -1.6697 -1.2067 -0.1729
10359TIP3   OH255271   2.698   4.009   8.844  0.5526  0.6278  0.0878
10359TIP3    H155272   2.703   4.057   8.927  1.1329 -1.0754  1.1020
10359TIP3    H255273   2.770   3.946   8.849  0.0772 -0.0692 -1.3472
10360TIP3   OH255274   1.067   3.463   6.965 -0.2624  0.3867 -0.1570
10360TIP3    H155275   0.977   3.464   6.931 -0.3688  1.2035  0.1211
10360TIP3    H255276   1.088   3.370   6.976  0.0370 -0.0127 -3.1475
10361TIP3   OH255277   6.152   5.844   8.032 -0.2424  0.1369  0.3042
10361TIP3    H155278   6.095   5.881   8.100 -0.9847  0.2672 -0.3795
10361TIP3    H255279   6.101   5.772   7.995  0.2027  0.0035 -0.0482
10362TIP3   OH255280   0.024   5.798   7.287  0.0544 -0.1688  0.4700
10362TIP3    H155281  -0.063   5.836   7.303  0.2192  0.2724  0.3563
10362TIP3    H255282   0.078   5.874   7.264  0.4551 -0.4504  0.4850
10363TIP3   OH255283   1.196   4.734   9.803  0.2226 -0.1278 -0.3125
10363TIP3    H155284   1.132   4.776   9.861 -1.3014 -1.8373 -0.6879
10363TIP3    H255285   1.224   4.656   9.850 -0.1952 -0.9469 -1.3792
10364TIP3   OH255286   5.908   6.490   6.898  0.2980 -0.4309 -0.6359
10364TIP3    H155287   5.870   6.437   6.969  0.3463 -0.3624 -0.5588
10364TIP3    H255288   5.905   6.580   6.931  1.0035 -0.4853 -0.4219
10365TIP3   OH255289   0.211   2.249   7.281  0.3515  0.4729  0.5717
10365TIP3    H155290   0.141   2.302   7.319  0.1617  0.3583  0.3868
10365TIP3    H255291   0.215   2.276   7.190 -0.3871 -0.4799  0.2395
10366TIP3   OH255292   6.665   3.827   6.594 -0.0542  0.3201  0.0307
10366TIP3    H155293   6.668   3.871   6.679  0.9415 -0.3733  0.3709
10366TIP3    H255294   6.662   3.734   6.615 -1.1617  0.1792 -0.6937
10367TIP3   OH255295   5.101   3.304  10.507 -0.0437  0.4501 -0.1873
10367TIP3    H155296   5.191   3.271  10.513  0.3697  1.7603  2.2718
10367TIP3    H255297   5.109   3.387  10.461 -0.2988 -0.2194 -1.4991
10368TIP3   OH255298   4.731   4.257   7.808  0.7393  0.3604  0.0805
10368TIP3    H155299   4.650   4.209   7.825  2.0581 -1.2770  2.3260
10368TIP3    H255300   4.773   4.208   7.737  0.0722  0.8536 -0.6675
10369TIP3   OH255301   1.211   4.882   8.234 -0.1770  0.0418 -0.1675
10369TIP3    H155302   1.148   4.814   8.209 -0.5640  0.4207 -0.2333
10369TIP3    H255303   1.158   4.947   8.281  0.4577 -0.4774  1.3207
10370TIP3   OH255304   2.820   3.661  10.458 -0.3535  0.1016  0.8925
10370TIP3    H155305   2.896   3.605  10.442 -0.6552 -0.1628  0.3357
10370TIP3    H255306   2.782   3.627  10.538 -0.5545 -0.5303  0.5395
10371TIP3   OH255307   5.265   0.122   8.566 -0.0515  0.1928 -0.1551
10371TIP3    H155308   5.195   0.060   8.543 -0.9796  1.0385  0.3717
10371TIP3    H255309   5.234   0.166   8.645  0.3450  1.7170 -0.8162
10372TIP3   OH255310   0.466   3.104   6.550 -0.0674  0.2988  0.4471
10372TIP3    H155311   0.539   3.073   6.604 -0.1152  0.0524  0.3720
10372TIP3    H255312   0.413   3.026   6.536  0.0216  0.3335 -0.0858
10373TIP3   OH255313   5.423   6.215   7.305 -0.1623  0.2448  0.0363
10373TIP3    H155314   5.366   6.277   7.350 -0.9393 -0.9105  0.6990
10373TIP3    H255315   5.502   6.211   7.359 -0.7657 -0.5269  0.8999
10374TIP3   OH255316   4.144   2.001   7.090  0.3063 -0.1498  0.0704
10374TIP3    H155317   4.192   1.970   7.013 -0.5520 -0.5168 -0.3393
10374TIP3    H255318   4.196   2.074   7.123  0.8611 -0.1945 -0.6675
10375TIP3   OH255319   4.128   2.459   8.004 -0.0307 -0.4813 -0.4442
10375TIP3    H155320   4.164   2.422   8.085 -3.3762  1.1845  2.0433
10375TIP3    H255321   4.183   2.535   7.985 -0.0068 -0.1120  1.0513
10376TIP3   OH255322   0.504   2.675   7.741 -0.0529  0.4702 -0.3254
10376TIP3    H155323   0.510   2.587   7.777  2.1477  1.6027  2.4371
10376TIP3    H255324   0.410   2.695   7.742 -0.4156 -1.0858  0.9974
10377TIP3   OH255325   2.306   5.364   7.778  0.2173  0.0207  0.4476
10377TIP3    H155326   2.365   5.290   7.794 -0.9156 -1.2560 -0.9234
10377TIP3    H255327   2.299   5.369   7.682 -1.7908  0.1578  0.5423
10378TIP3   OH255328   3.698   6.538   9.125  0.1322  0.3564  0.0772
10378TIP3    H155329   3.664   6.449   9.134 -1.9004  1.1635  0.7813
10378TIP3    H255330   3.720   6.565   9.214  0.3581  0.7282 -0.0878
10379TIP3   OH255331   2.914   0.713   7.878  0.4655 -0.4063 -0.1645
10379TIP3    H155332   2.934   0.628   7.917 -0.0184 -0.2803  0.3635
10379TIP3    H255333   2.996   0.761   7.883  0.2917 -0.2248  1.1345
10380TIP3   OH255334   0.174   1.341   7.136  0.4220  0.0635 -0.5242
10380TIP3    H155335   0.216   1.325   7.220 -1.9909 -1.9549  0.4411
10380TIP3    H255336   0.223   1.288   7.073  1.8245  1.0536 -0.2920
10381TIP3   OH255337   6.650   6.299   8.235  0.3039 -0.2075  0.7718
10381TIP3    H155338   6.587   6.363   8.201 -1.6653 -1.1792  2.3576
10381TIP3    H255339   6.726   6.351   8.259 -1.4049  1.6927  2.4672
10382TIP3   OH255340   3.838   5.161   9.802  0.0688 -0.0829 -0.7586
10382TIP3    H155341   3.788   5.242   9.787 -0.1855 -0.3179 -1.1951
10382TIP3    H255342   3.922   5.192   9.835 -0.7744  0.2712  1.2095
10383TIP3   OH255343   6.254   1.636   6.911  0.0383  0.1293  0.0767
10383TIP3    H155344   6.249   1.666   6.820  1.1641  2.5814  0.7425
10383TIP3    H255345   6.345   1.607   6.921 -0.4661 -1.5298  0.0566
10384TIP3   OH255346   1.402   3.424   9.089 -0.1844 -0.2701  0.4266
10384TIP3    H155347   1.463   3.378   9.147  0.0519  0.9353  1.1646
10384TIP3    H255348   1.455   3.491   9.046 -0.5486 -0.5863 -0.5307
10385TIP3   OH255349   2.611   1.108  10.000 -0.2220  0.4567  0.1768
10385TIP3    H155350   2.644   1.187  10.042  0.0229 -0.0529  0.9766
10385TIP3    H255351   2.516   1.118  10.000 -0.2936  0.0529  1.7584
10386TIP3   OH255352   0.613   4.479   9.696  0.0470 -0.1770  0.7270
10386TIP3    H155353   0.571   4.474   9.610 -0.2783  1.3115  0.7730
10386TIP3    H255354   0.705   4.461   9.680 -0.0882 -0.3429  0.1374
10387TIP3   OH255355   2.343   4.418   7.711 -0.3365 -0.0728  0.2208
10387TIP3    H155356   2.289   4.490   7.680 -1.0971 -0.1711  1.2844
10387TIP3    H255357   2.290   4.339   7.697 -0.2155 -0.2382  0.6463
10388TIP3   OH255358   1.992   4.027   8.596 -0.2795 -0.5548  0.7347
10388TIP3    H155359   2.019   4.068   8.514 -1.8073 -1.7667 -0.4198
10388TIP3    H255360   2.060   3.962   8.614  0.7208  0.5690  1.1360
10389TIP3   OH255361   6.704   6.350   8.883 -0.3454 -0.0730 -0.5592
10389TIP3    H155362   6.796   6.337   8.862 -0.1981 -0.0820  0.0702
10389TIP3    H255363   6.681   6.433   8.841 -0.3827 -0.6591 -1.7331
10390TIP3   OH255364   4.950   4.037   8.033  0.0775  0.5965 -0.3452
10390TIP3    H155365   4.982   4.121   7.999  2.0472 -0.0914 -0.3018
10390TIP3    H255366   4.984   3.972   7.971  0.1986 -0.3300  0.6740
10391TIP3   OH255367   0.633   6.485   8.882 -0.2030 -0.2797 -0.3667
10391TIP3    H155368   0.619   6.393   8.901  0.4876 -0.4168 -0.4718
10391TIP3    H255369   0.719   6.488   8.839  1.0741  0.6935  2.0492
10392TIP3   OH255370   0.606   3.263   9.124  0.2191 -0.2681  0.1770
10392TIP3    H155371   0.534   3.212   9.162  1.1684 -0.9524  1.1037
10392TIP3    H255372   0.574   3.354   9.126 -1.5897 -0.7903 -1.7225
10393TIP3   OH255373   0.395   1.683   9.733 -0.4873  0.5597 -0.0997
10393TIP3    H155374   0.451   1.747   9.776  2.3513 -1.4057 -0.5603
10393TIP3    H255375   0.456   1.630   9.681 -2.9147 -1.3379 -1.1979
10394TIP3   OH255376   0.476   2.339   7.133  0.2793 -0.5751  0.2027
10394TIP3    H155377   0.435   2.386   7.060  1.1688 -0.0801  0.0097
10394TIP3    H255378   0.484   2.249   7.102  1.1342 -0.2614 -0.5291
10395TIP3   OH255379   0.011   3.558   8.502  0.3412 -0.4997 -0.0155
10395TIP3    H155380  -0.010   3.508   8.423 -0.3625  0.7453 -0.6562
10395TIP3    H255381   0.082   3.616   8.475 -0.3674  0.4254  0.0276
10396TIP3   OH255382   5.012   5.617   6.657  0.1256  0.0713 -0.3400
10396TIP3    H155383   5.020   5.522   6.651 -0.1792 -0.1376  1.9466
10396TIP3    H255384   5.099   5.650   6.632  0.4221 -0.8234 -0.5185
10397TIP3   OH255385   2.280   6.742   8.157 -0.1922  0.0173 -0.0907
10397TIP3    H155386   2.249   6.682   8.089  1.1833 -2.0497  0.9793
10397TIP3    H255387   2.245   6.705   8.238  1.4537  0.0857  0.6921
10398TIP3   OH255388   5.487   5.112   8.067 -0.2430  0.2235  0.2183
10398TIP3    H155389   5.401   5.141   8.037 -0.0986  0.8399  0.3754
10398TIP3    H255390   5.549   5.156   8.008  0.1240  2.6414  2.2272
10399TIP3   OH255391   5.185   1.861   7.787  0.2887 -0.1838  0.1383
10399TIP3    H155392   5.143   1.778   7.767 -1.9444  0.8339  0.2260
10399TIP3    H255393   5.141   1.892   7.866 -0.0545  1.7567 -0.7341
10400TIP3   OH255394   4.450   3.008   9.617  0.2980 -0.0659 -0.6112
10400TIP3    H155395   4.488   3.054   9.692 -0.2551 -1.6840  0.7565
10400TIP3    H255396   4.442   3.074   9.548 -0.8147  1.9738  1.3251
10401TIP3   OH255397   4.639   5.011   7.517 -0.4092  0.2264  0.2504
10401TIP3    H155398   4.645   4.996   7.611 -0.6840 -0.6379  0.1393
10401TIP3    H255399   4.552   4.981   7.493  0.1077 -0.7421 -0.4805
10402TIP3   OH255400   2.663   4.814   8.306  0.3299  0.4090 -0.8219
10402TIP3    H155401   2.742   4.810   8.252  0.2458  1.2183 -1.0152
10402TIP3    H255402   2.619   4.731   8.289  1.3282 -0.2227 -0.3997
10403TIP3   OH255403   4.811   3.483   8.007  0.1453  0.8624  0.7045
10403TIP3    H155404   4.727   3.449   8.038 -0.5637  0.7706 -1.2114
10403TIP3    H255405   4.873   3.458   8.076 -0.9004 -1.5843  0.8768
10404TIP3   OH255406   3.107   2.467   7.790 -0.4547 -0.1079  0.4925
10404TIP3    H155407   3.200   2.447   7.781 -0.2130  1.2138 -0.3368
10404TIP3    H255408   3.076   2.410   7.860  1.2324  0.2332  1.5533
10405TIP3   OH255409   2.277   1.028   8.979 -0.3122  0.0506  0.1078
10405TIP3    H155410   2.282   1.123   8.971 -1.3168  0.2723  1.6322
10405TIP3    H255411   2.187   1.007   8.954 -0.2729 -0.4265  0.3633
10406TIP3   OH255412   0.604   0.226   8.869  0.3079  0.3805  0.4015
10406TIP3    H155413   0.606   0.297   8.933  2.1029  1.0698 -0.3830
10406TIP3    H255414   0.693   0.219   8.836 -0.4445 -0.2993 -1.6835
10407TIP3   OH255415   4.298   0.867   8.448 -0.0209 -0.0229 -0.5365
10407TIP3    H155416   4.354   0.790   8.447 -0.2249 -0.1971  0.7053
10407TIP3    H255417   4.209   0.833   8.438 -0.1084  0.0502 -0.0218
10408TIP3   OH255418   2.527   3.635   9.009  0.0216  0.3051 -0.0949
10408TIP3    H155419   2.603   3.579   9.018 -0.1729  0.1381  0.6223
10408TIP3    H255420   2.454   3.582   9.041  0.1452  1.6390  2.7618
10409TIP3   OH255421   0.967   1.067   7.807  0.1380 -0.2860 -0.0723
10409TIP3    H155422   1.003   1.098   7.891  0.1887 -2.0543  0.6070
10409TIP3    H255423   0.882   1.109   7.800  1.9711  3.6406 -1.4937
10410TIP3   OH255424   4.873   0.766   8.338  0.1574 -0.8008 -0.2873
10410TIP3    H155425   4.837   0.698   8.281  0.4934 -0.2436 -1.1897
10410TIP3    H255426   4.812   0.839   8.330  0.6346 -0.4222 -0.5945
10411TIP3   OH255427   4.459   4.077  10.266  0.0189 -0.5977 -0.1530
10411TIP3    H155428   4.527   4.103  10.203 -0.2868 -0.0183 -0.2546
10411TIP3    H255429   4.377   4.099  10.223 -0.2917 -2.2088 -0.4338
10412TIP3   OH255430   4.630   3.153   6.698  0.1977 -0.9992  0.0257
10412TIP3    H155431   4.544   3.119   6.677 -0.6100  0.6649  0.4824
10412TIP3    H255432   4.632   3.158   6.794  0.7382 -0.8871  0.0135
10413TIP3   OH255433   3.745   5.933   8.553 -0.2884  0.3776  0.0427
10413TIP3    H155434   3.682   5.961   8.619 -0.8782  3.2470 -1.5539
10413TIP3    H255435   3.821   5.989   8.567 -0.3683  0.9355 -1.5611
10414TIP3   OH255436   0.227   2.196   6.621 -0.3745 -0.4297 -0.1580
10414TIP3    H155437   0.141   2.193   6.663  0.0504 -1.0821  0.7082
10414TIP3    H255438   0.286   2.229   6.689  0.0968 -0.1923 -0.6768
10415TIP3   OH255439   2.403   3.419   6.572  0.2430  0.1725 -0.5439
10415TIP3    H155440   2.432   3.470   6.496 -1.1607 -1.2089 -2.0810
10415TIP3    H255441   2.307   3.424   6.569  0.1460  0.3934  1.3945
10416TIP3   OH255442   0.453   4.735   9.317  0.0628  0.8220  0.0770
10416TIP3    H155443   0.530   4.728   9.260 -0.1386  0.3468 -0.1375
10416TIP3    H255444   0.457   4.825   9.350 -0.0196  1.2344 -0.9809
10417TIP3   OH255445   5.149   2.926   7.908 -0.2214 -0.2830 -0.3155
10417TIP3    H155446   5.199   2.917   7.827  0.6556 -0.3248  0.2176
10417TIP3    H255447   5.136   3.021   7.917  0.9242 -0.1495  0.2062
10418TIP3   OH255448   3.609   4.408   8.115 -0.4431 -0.4718  0.1843
10418TIP3    H155449   3.615   4.354   8.036 -1.4546  0.1251 -0.3137
10418TIP3    H255450   3.698   4.441   8.127 -0.1962 -0.8561 -0.5015
10419TIP3   OH255451   3.115   3.377   7.385 -0.0033  0.7374  0.1242
10419TIP3    H155452   3.128   3.471   7.395 -1.1217  0.9526 -0.2677
10419TIP3    H255453   3.192   3.337   7.426  1.0190  1.8386 -0.6317
10420TIP3   OH255454   0.257   6.033   7.613  0.3485  0.6650  0.1975
10420TIP3    H155455   0.352   6.041   7.610  0.4561 -0.7108 -2.1343
10420TIP3    H255456   0.232   6.072   7.697  3.0191  0.3109  1.2351
10421TIP3   OH255457   4.590   5.120   8.038  0.2782  0.5105  0.4271
10421TIP3    H155458   4.534   5.164   8.102  0.9983  1.9452  0.1075
10421TIP3    H255459   4.677   5.119   8.079  0.5688  0.6798 -0.1808
10422TIP3   OH255460   4.806   2.363   9.524  0.0133  0.0534  0.2145
10422TIP3    H155461   4.784   2.400   9.609 -1.1226 -0.4455  0.1571
10422TIP3    H255462   4.860   2.286   9.545 -0.7652 -0.4209  0.5299
10423TIP3   OH255463   1.052   4.156   8.391 -0.0896  0.5970  0.3876
10423TIP3    H155464   1.097   4.169   8.474 -0.6044 -0.9120  0.9218
10423TIP3    H255465   1.106   4.204   8.327  0.6966  1.1792  1.4583
10424TIP3   OH255466   0.322   0.736   8.081  1.1983  0.2562  0.1517
10424TIP3    H155467   0.263   0.777   8.017 -0.2459 -1.8159  0.0329
10424TIP3    H255468   0.409   0.744   8.043  0.5471  0.3602 -1.3947
10425TIP3   OH255469   6.078   5.577   9.674 -0.0728 -0.7544 -0.0546
10425TIP3    H155470   6.033   5.661   9.678 -2.4022 -1.8646 -1.0011
10425TIP3    H255471   6.054   5.532   9.755  1.4662 -0.4085  0.6235
10426TIP3   OH255472   6.604   5.035   9.549 -0.2465  0.2651  0.2363
10426TIP3    H155473   6.572   5.004   9.465 -1.8224  1.9560  0.1305
10426TIP3    H255474   6.565   4.976   9.613 -1.0884  0.4409 -0.0960
10427TIP3   OH255475   6.251   4.326   7.093  0.7190  0.2877 -0.2290
10427TIP3    H155476   6.168   4.373   7.092  0.4767 -0.1122  0.5690
10427TIP3    H255477   6.228   4.235   7.073  1.0866  0.3393 -0.9377
10428TIP3   OH255478   0.736   4.501   8.143 -0.9304 -0.0773 -0.1429
10428TIP3    H155479   0.806   4.498   8.208 -1.1987 -0.1996  0.1407
10428TIP3    H255480   0.723   4.410   8.117 -0.5046  0.0205 -0.7130
10429TIP3   OH255481   0.578   6.375   9.170  0.3109 -0.3117 -0.5827
10429TIP3    H155482   0.620   6.329   9.098  1.4880 -1.0658  0.5461
10429TIP3    H255483   0.627   6.348   9.248 -1.0341  0.3313  0.5299
10430TIP3   OH255484   6.739   1.610   8.278 -0.1564 -0.1392  0.4566
10430TIP3    H155485   6.659   1.573   8.240  0.7189 -0.2614 -1.3974
10430TIP3    H255486   6.724   1.704   8.279 -0.4741 -0.1891  0.4840
10431TIP3   OH255487   1.324   0.613   7.023  0.2761 -0.0091  0.6796
10431TIP3    H155488   1.294   0.653   7.105  1.9035 -0.2112  1.3995
10431TIP3    H255489   1.244   0.606   6.970 -1.0327 -0.8983  2.6521
10432TIP3   OH255490   4.302   5.900   7.874  0.1898  0.0534  0.4013
10432TIP3    H155491   4.286   5.909   7.780 -1.2792 -2.8263  0.2921
10432TIP3    H255492   4.272   5.812   7.896 -0.5978  1.0187  3.8084
10433TIP3   OH255493   3.222   3.014   8.332  0.5770 -0.2089  0.0818
10433TIP3    H155494   3.254   2.942   8.385  1.3846 -0.5284 -0.8107
10433TIP3    H255495   3.287   3.083   8.343 -0.0062  0.2611  0.6459
10434TIP3   OH255496   4.928   1.805   8.972 -0.1806  0.0607  0.0547
10434TIP3    H155497   4.998   1.783   8.911 -1.2556  0.2356 -1.2946
10434TIP3    H255498   4.930   1.735   9.037 -0.0182 -1.0380 -1.0824
10435TIP3   OH255499   0.356   4.747   7.336  0.0579 -0.1181  0.0367
10435TIP3    H155500   0.428   4.688   7.311  0.6026  0.8150 -0.6634
10435TIP3    H255501   0.387   4.834   7.310 -1.8606  0.1547 -1.5142
10436TIP3   OH255502   4.277   3.283   8.420  0.0441  0.3087 -0.6947
10436TIP3    H155503   4.203   3.236   8.459  0.8199 -0.8825 -0.5854
10436TIP3    H255504   4.351   3.223   8.431  1.1875  1.7563 -0.1809
10437TIP3   OH255505   6.534   1.192   8.976 -0.2399  0.5683 -0.1631
10437TIP3    H155506   6.499   1.277   9.003 -1.3105 -0.6710  2.7582
10437TIP3    H255507   6.457   1.134   8.973  0.8426 -1.0626  1.4147
10438TIP3   OH255508   5.851   4.288   8.381 -0.4955 -0.0370 -0.4253
10438TIP3    H155509   5.759   4.309   8.395 -0.4946 -1.3930  2.2421
10438TIP3    H255510   5.894   4.374   8.379 -1.5610  0.5521  0.5759
10439TIP3   OH255511   1.733   1.654   9.170  0.2780  0.1009  0.0472
10439TIP3    H155512   1.671   1.668   9.242 -0.0139 -0.6006 -0.0678
10439TIP3    H255513   1.790   1.584   9.201  1.2154  0.9314  0.2737
   6.77409   6.77409  30.00000
